Title
82301
    1SAPS     N    1   0.812   2.122  10.989  0.0525 -0.3068 -0.1826
    1SAPS   HN1    2   0.912   2.098  11.002 -0.6791 -2.1686  2.4483
    1SAPS   HN2    3   0.767   2.028  10.981 -1.7983  0.2797  2.5179
    1SAPS   HN3    4   0.793   2.174  10.901 -1.7646 -1.5774 -0.5808
    1SAPS   C12    5   0.761   2.202  11.109  0.0347 -0.5681 -0.3669
    1SAPS  H12A    6   0.656   2.215  11.086  0.4896  1.6182 -1.3051
    1SAPS   C13    7   0.768   2.139  11.247 -0.0766 -0.5277 -1.1222
    1SAPS  O13A    8   0.822   2.024  11.260 -0.0776  0.2531 -0.1003
    1SAPS  O13B    9   0.706   2.196  11.341 -0.6458  0.2452 -0.1923
    1SAPS   C11   10   0.837   2.340  11.125  0.0523  0.3012 -0.4571
    1SAPS  H11A   11   0.934   2.308  11.170 -1.2190  0.1912  2.2397
    1SAPS  H11B   12   0.783   2.402  11.199  0.7708 -1.1963  1.3472
    1SAPS     P   13   0.919   2.546  10.989  0.2053 -0.1747 -0.4679
    1SAPS   O13   14   1.030   2.551  11.086  0.4466 -0.0146 -0.3540
    1SAPS   O14   15   0.958   2.562  10.849  0.2311 -0.0417  0.3630
    1SAPS   O12   16   0.841   2.408  11.004  0.2208  0.0651  0.8127
    1SAPS   O11   17   0.815   2.652  11.032  0.8977 -0.1288 -0.1411
    1SAPS    C1   18   0.677   2.641  11.002 -0.0061  0.3954  1.4802
    1SAPS    HA   19   0.632   2.540  10.990 -0.6418  0.8926 -0.4706
    1SAPS    HB   20   0.616   2.683  11.084 -2.4472 -1.2936  0.5890
    1SAPS    C2   21   0.638   2.722  10.876 -0.0143 -0.6008  0.4776
    1SAPS    HS   22   0.529   2.712  10.853 -0.1323  1.5532 -0.0198
    1SAPS   O21   23   0.715   2.684  10.763 -0.1134  0.3089  0.2063
    1SAPS   C21   24   0.689   2.567  10.710  0.4470  0.5583  0.0774
    1SAPS   O22   25   0.597   2.497  10.743 -0.3331 -0.3665  0.5301
    1SAPS   C22   26   0.783   2.541  10.589 -0.1603  0.2358 -0.6469
    1SAPS   H2R   27   0.804   2.636  10.534 -0.3659  0.0906 -0.9800
    1SAPS   H2S   28   0.875   2.494  10.630 -0.5943  0.1063  0.1764
    1SAPS    C3   29   0.666   2.867  10.905 -0.2488  0.0244  0.4888
    1SAPS    HX   30   0.771   2.876  10.940 -0.7112  3.6018  1.1540
    1SAPS    HY   31   0.592   2.899  10.981 -0.5012  0.8346 -0.0930
    1SAPS   O31   32   0.648   2.944  10.791 -0.1745  0.0307 -0.0161
    1SAPS   C31   33   0.746   2.989  10.720 -0.7889  0.0369 -0.8583
    1SAPS   O32   34   0.867   2.978  10.743  0.4758 -0.1291 -0.9259
    1SAPS   C32   35   0.681   3.039  10.590  0.0082  0.2301  0.3623
    1SAPS   H2X   36   0.635   3.140  10.603  1.4267  0.9943 -0.4209
    1SAPS   H2Y   37   0.595   2.976  10.558  1.3708 -2.0712  1.1050
    1SAPS   C23   38   0.717   2.437  10.497  0.6147  0.0691 -0.0522
    1SAPS   H3R   39   0.670   2.361  10.563  2.0396  1.3520  2.5362
    1SAPS   H3S   40   0.799   2.392  10.438  0.4937  1.1632 -1.0717
    1SAPS   C24   41   0.599   2.488  10.412  0.7861  0.2496  0.8121
    1SAPS   H4R   42   0.516   2.513  10.481  1.3578  3.1806  0.5085
    1SAPS   H4S   43   0.570   2.395  10.359 -1.3876  1.0311  0.5712
    1SAPS   C25   44   0.608   2.602  10.311  0.5418 -0.5985  0.4234
    1SAPS   H5R   45   0.568   2.698  10.347 -0.9931 -1.1411  0.2154
    1SAPS   C26   46   0.621   2.597  10.177  0.5406  0.7579  0.0705
    1SAPS   H6R   47   0.618   2.695  10.127  0.8946 -0.5081 -2.4780
    1SAPS   C27   48   0.633   2.469  10.090 -0.1341 -0.1060 -0.8827
    1SAPS   H7R   49   0.549   2.474  10.017 -1.2302  0.0899  0.3804
    1SAPS   H7S   50   0.609   2.383  10.155  0.3265  1.6858  1.7065
    1SAPS   C28   51   0.768   2.456  10.016  0.1485  0.4010  0.5436
    1SAPS   H8R   52   0.848   2.510  10.067  2.1039 -3.5551  1.8543
    1SAPS   C29   53   0.789   2.406   9.894  0.7835 -0.6732  0.2701
    1SAPS   H9R   54   0.891   2.417   9.855  0.9815 -0.2540  0.9083
    1SAPS  C210   55   0.673   2.354   9.810 -0.1503  0.0188 -0.6382
    1SAPS  H10R   56   0.626   2.431   9.746  2.6376  3.0045  0.7834
    1SAPS  H10S   57   0.601   2.305   9.880 -1.6165 -0.0432 -2.1403
    1SAPS  C211   58   0.722   2.250   9.722  0.5498 -0.1971  0.3474
    1SAPS  H11R   59   0.754   2.159   9.774 -1.4193  0.2112  2.3230
    1SAPS  C212   60   0.742   2.251   9.585 -0.4969  0.3021 -0.4803
    1SAPS  H12R   61   0.768   2.154   9.542 -2.2185 -1.3237  1.9952
    1SAPS  C213   62   0.737   2.368   9.499 -0.5422 -0.0859 -0.5476
    1SAPS  H13R   63   0.761   2.464   9.548 -0.5201  0.4809 -1.6633
    1SAPS  H13S   64   0.638   2.383   9.450  0.1642 -0.9199 -2.2780
    1SAPS  C214   65   0.836   2.339   9.390 -0.0479  0.7076 -0.5224
    1SAPS  H14R   66   0.929   2.294   9.426  0.0613  0.5805 -0.9626
    1SAPS  C215   67   0.833   2.367   9.259  0.0924 -0.1602  0.2721
    1SAPS  H15R   68   0.921   2.336   9.200 -1.0759 -0.5549 -1.3047
    1SAPS  C216   69   0.727   2.449   9.187 -0.3079 -0.5439  0.0682
    1SAPS  H16R   70   0.778   2.510   9.111 -0.8895 -1.0465 -0.7324
    1SAPS  H16S   71   0.685   2.525   9.256 -0.4028 -1.9704  1.6160
    1SAPS  C217   72   0.620   2.376   9.112  0.7152  0.2047 -0.1924
    1SAPS  H17R   73   0.559   2.313   9.181  0.0399 -0.2233 -1.1650
    1SAPS  H17S   74   0.672   2.305   9.044  0.4396  0.1862 -0.3866
    1SAPS  C218   75   0.532   2.473   9.036 -0.0399  0.1960  0.1684
    1SAPS  H18R   76   0.588   2.553   8.982  1.1647 -0.5141  0.3577
    1SAPS  H18S   77   0.464   2.529   9.104 -2.3263  1.0801 -2.6946
    1SAPS  C219   78   0.440   2.407   8.933  0.5404  0.3631  0.0768
    1SAPS  H19R   79   0.469   2.299   8.926  1.1698  0.6529 -2.4025
    1SAPS  H19S   80   0.469   2.443   8.832 -3.3813  0.0577 -1.2105
    1SAPS  C220   81   0.290   2.427   8.954  0.3886  0.8192  0.3646
    1SAPS  H20R   82   0.270   2.421   9.064  1.9477  3.3871  0.8475
    1SAPS  H20S   83   0.228   2.359   8.892 -0.8782  2.6495 -0.4358
    1SAPS  H20T   84   0.268   2.529   8.916  3.0552  1.6120  0.8222
    1SAPS   C33   85   0.780   3.049  10.472  0.2891  0.6650  0.3916
    1SAPS   H3X   86   0.829   2.949  10.472 -1.1437 -0.0586  1.8272
    1SAPS   H3Y   87   0.863   3.114  10.509  1.2204  1.0879 -2.3207
    1SAPS   C34   88   0.720   3.097  10.342  0.0872 -0.7717  0.9518
    1SAPS   H4X   89   0.654   3.187  10.338  0.5689 -0.5013 -1.4183
    1SAPS   H4Y   90   0.655   3.015  10.305 -0.9705  0.3912  0.2026
    1SAPS   C35   91   0.834   3.119  10.231 -0.3888  0.0455  0.4146
    1SAPS   H5X   92   0.882   3.019  10.220 -1.4402 -0.3248 -0.9408
    1SAPS   H5Y   93   0.911   3.191  10.266 -0.8725  1.0379 -0.5193
    1SAPS   C36   94   0.779   3.146  10.091  0.1534  0.5404  0.3558
    1SAPS   H6X   95   0.723   3.241  10.102  1.0143  0.9475  1.3435
    1SAPS   H6Y   96   0.715   3.059  10.064  0.9404 -0.2292  0.9216
    1SAPS   C37   97   0.902   3.175  10.005 -0.2742  0.1341 -0.6692
    1SAPS   H7X   98   0.973   3.092   9.987 -1.2199 -0.3140 -2.4023
    1SAPS   H7Y   99   0.967   3.253  10.051 -0.4506  0.4022 -0.8689
    1SAPS   C38  100   0.856   3.224   9.870  0.5489 -0.1522 -0.0185
    1SAPS   H8X  101   0.787   3.307   9.898  0.6945 -0.3135  0.8260
    1SAPS   H8Y  102   0.802   3.148   9.808 -0.0651  1.0763 -1.0204
    1SAPS   C39  103   0.974   3.276   9.790 -0.8014  0.1826  0.2527
    1SAPS   H9X  104   1.053   3.199   9.781 -1.0525  0.1999 -2.7187
    1SAPS   H9Y  105   1.026   3.353   9.851  1.8081 -1.2120 -0.1734
    1SAPS  C310  106   0.942   3.325   9.643  0.0644  0.1430  0.4959
    1SAPS  H10X  107   0.863   3.403   9.641  1.2131  1.3015 -0.4753
    1SAPS  H10Y  108   0.890   3.239   9.595  0.5932  1.0167 -1.7138
    1SAPS  C311  109   1.069   3.383   9.576  0.1665  0.1240 -0.5294
    1SAPS  H11X  110   1.133   3.295   9.555  1.1190  0.7426 -0.2426
    1SAPS  H11Y  111   1.117   3.451   9.649 -2.0440  0.2630  0.8345
    1SAPS  C312  112   1.038   3.452   9.450 -0.1785 -0.2645 -0.1627
    1SAPS  H12X  113   1.125   3.505   9.404 -0.4307  1.4147  1.2282
    1SAPS  H12Y  114   0.975   3.541   9.473  0.8703  0.0545  1.5804
    1SAPS  C313  115   0.968   3.369   9.350 -0.3346 -0.1868 -0.4242
    1SAPS  H13X  116   0.885   3.319   9.403  0.1436 -1.9957 -1.3215
    1SAPS  H13Y  117   1.030   3.286   9.309 -1.3268 -1.2256  0.1534
    1SAPS  C314  118   0.913   3.452   9.235 -0.7138 -0.0676 -0.4593
    1SAPS  H14X  119   0.849   3.530   9.281  0.2608 -1.1239  2.8682
    1SAPS  H14Y  120   0.843   3.378   9.191 -0.2246 -1.0619  0.4058
    1SAPS  C315  121   1.017   3.503   9.134 -0.0356  0.6803 -1.0616
    1SAPS  H15X  122   1.072   3.413   9.100 -0.3894  0.2239 -0.4180
    1SAPS  H15Y  123   1.089   3.574   9.182  0.8347  1.0258 -2.8131
    1SAPS  C316  124   0.946   3.572   9.012 -0.9526  0.5228 -0.5339
    1SAPS  H16X  125   0.910   3.669   9.052  2.9986  2.1558 -0.7416
    1SAPS  H16Y  126   0.860   3.503   8.996 -1.8406  1.2927  0.7969
    1SAPS  C317  127   1.049   3.591   8.900  0.5590 -0.5406  1.0734
    1SAPS  H17X  128   0.992   3.631   8.814 -1.7931  0.0023  2.8318
    1SAPS  H17Y  129   1.084   3.489   8.873 -0.9945 -1.2368  1.6781
    1SAPS  C318  130   1.158   3.694   8.923  0.1003  0.2889 -0.0600
    1SAPS  H18X  131   1.236   3.694   8.843  0.5431 -0.6971  0.3712
    1SAPS  H18Y  132   1.214   3.674   9.017  0.4052 -1.7158 -0.6561
    1SAPS  H18Z  133   1.123   3.799   8.934 -1.1483 -0.3158  1.7391
    2SAPS     N  134   5.774   3.301  10.701  0.1110 -0.6704  0.0162
    2SAPS   HN1  135   5.767   3.384  10.640  0.5276 -0.9112 -0.3627
    2SAPS   HN2  136   5.877   3.300  10.715  0.4562 -0.8758 -2.3658
    2SAPS   HN3  137   5.766   3.226  10.630  0.1591 -1.5809  0.9641
    2SAPS   C12  138   5.684   3.273  10.816 -0.3842 -0.9972 -0.0807
    2SAPS  H12A  139   5.714   3.341  10.894  0.9014 -0.7598 -0.7567
    2SAPS   C13  140   5.532   3.291  10.786  0.4922 -0.8158 -0.3601
    2SAPS  O13A  141   5.500   3.348  10.677 -0.1529  0.2230  0.4051
    2SAPS  O13B  142   5.450   3.294  10.882  0.1389 -0.3133  0.0679
    2SAPS   C11  143   5.711   3.130  10.857 -0.0117 -0.2758 -0.0729
    2SAPS  H11A  144   5.648   3.124  10.948  1.3524  0.4310  0.9123
    2SAPS  H11B  145   5.818   3.125  10.886  0.0578 -1.0106 -0.4431
    2SAPS     P  146   5.742   2.885  10.769 -0.0260  0.2977 -0.1538
    2SAPS   O13  147   5.779   2.848  10.910  0.2221 -0.4214  0.3618
    2SAPS   O14  148   5.645   2.790  10.702 -0.2989 -0.3309  0.0695
    2SAPS   O12  149   5.674   3.027  10.764  0.5822  0.4439 -0.0743
    2SAPS   O11  150   5.870   2.897  10.669  0.3522 -0.4401 -0.2983
    2SAPS    C1  151   5.999   2.920  10.732  0.6445 -0.8068  0.3176
    2SAPS    HA  152   6.004   3.030  10.722 -1.8277 -0.6851  0.2871
    2SAPS    HB  153   6.006   2.877  10.834  0.7635  0.5686  0.8924
    2SAPS    C2  154   6.113   2.853  10.652  0.3003 -0.4922 -0.2926
    2SAPS    HS  155   6.196   2.846  10.726  1.8835  1.6129 -1.7951
    2SAPS   O21  156   6.145   2.944  10.547  0.1468 -0.0795  0.1274
    2SAPS   C21  157   6.272   2.954  10.516  0.1711 -0.5042 -0.2554
    2SAPS   O22  158   6.367   2.898  10.573 -0.2512 -0.6455 -0.5817
    2SAPS   C22  159   6.273   3.045  10.395  0.1089  0.6591  0.3190
    2SAPS   H2R  160   6.180   3.105  10.390 -1.3313 -1.3666  2.1095
    2SAPS   H2S  161   6.356   3.118  10.412  0.5710  0.3137 -0.4267
    2SAPS    C3  162   6.080   2.710  10.599  0.5540  0.1806 -0.2657
    2SAPS    HX  163   5.997   2.723  10.526  0.6619  1.9000 -0.0878
    2SAPS    HY  164   6.029   2.644  10.673 -2.4898  2.3409 -0.3164
    2SAPS   O31  165   6.189   2.645  10.534 -0.5302 -0.0613  0.1044
    2SAPS   C31  166   6.279   2.585  10.617 -0.3653  0.3467  0.3352
    2SAPS   O32  167   6.271   2.579  10.738  0.2271  0.0765  0.2038
    2SAPS   C32  168   6.385   2.514  10.537 -0.1395  0.4880 -0.5744
    2SAPS   H2X  169   6.364   2.412  10.499  1.8189  1.1344 -3.5608
    2SAPS   H2Y  170   6.474   2.517  10.605  0.0403 -1.3869 -0.7106
    2SAPS   C23  171   6.304   2.968  10.261 -0.2994 -0.1586 -0.3369
    2SAPS   H3R  172   6.383   2.891  10.273 -1.1772 -0.7939  1.6885
    2SAPS   H3S  173   6.326   3.032  10.173  2.0464 -0.7502 -0.2355
    2SAPS   C24  174   6.181   2.881  10.215 -0.0250 -0.5264  0.1573
    2SAPS   H4R  175   6.168   2.804  10.294 -0.8900 -0.6616 -0.1170
    2SAPS   H4S  176   6.216   2.834  10.120  0.0802  2.9969 -1.6481
    2SAPS   C25  177   6.064   2.968  10.183 -0.3168  0.3070  0.6456
    2SAPS   H5R  178   6.026   3.022  10.271 -1.0208 -0.5667  0.8906
    2SAPS   C26  179   6.010   2.988  10.060  0.0893  0.2158 -0.6941
    2SAPS   H6R  180   5.919   3.049  10.050 -0.1602 -0.3945 -2.3225
    2SAPS   C27  181   6.035   2.917   9.926 -0.3065 -0.1213 -0.2557
    2SAPS   H7R  182   5.952   2.852   9.890 -0.7073  0.7354 -0.9017
    2SAPS   H7S  183   6.127   2.854   9.933  0.4391  0.7914 -1.6859
    2SAPS   C28  184   6.053   3.019   9.819 -0.2868 -0.2016  0.0500
    2SAPS   H8R  185   5.988   3.108   9.831 -1.4504 -1.0420  0.0918
    2SAPS   C29  186   6.125   3.005   9.703  0.2198 -0.1465 -0.5539
    2SAPS   H9R  187   6.128   3.087   9.629 -1.6113  0.8367  0.4084
    2SAPS  C210  188   6.205   2.885   9.653  0.9864 -0.2300  0.0326
    2SAPS  H10R  189   6.144   2.814   9.595  0.0156 -1.0542  2.0247
    2SAPS  H10S  190   6.239   2.820   9.736 -3.0593 -0.1426  1.8282
    2SAPS  C211  191   6.318   2.912   9.559  0.1322  0.0349 -0.3670
    2SAPS  H11R  192   6.413   2.868   9.592  0.1632  1.9981  2.3305
    2SAPS  C212  193   6.301   2.959   9.433  0.5494 -0.3384 -0.7825
    2SAPS  H12R  194   6.389   2.960   9.367 -0.0263  0.0502 -1.5402
    2SAPS  C213  195   6.172   3.004   9.361  0.1212  0.4497  0.1112
    2SAPS  H13R  196   6.134   3.103   9.393 -0.0277  0.1522  0.8573
    2SAPS  H13S  197   6.087   2.933   9.375 -0.1479  0.6115 -0.6813
    2SAPS  C214  198   6.185   3.025   9.214 -0.1126 -0.0594 -0.6055
    2SAPS  H14R  199   6.178   3.131   9.187 -0.3871  0.0487 -0.1151
    2SAPS  C215  200   6.195   2.934   9.112 -0.4859  0.5592 -0.2135
    2SAPS  H15R  201   6.227   2.969   9.013  1.6434 -2.2691 -0.6149
    2SAPS  C216  202   6.201   2.783   9.140  0.0331  0.1837  0.5765
    2SAPS  H16R  203   6.216   2.760   9.247 -2.4066 -1.1120  0.6613
    2SAPS  H16S  204   6.289   2.734   9.092  0.3123  0.3646  0.9025
    2SAPS  C217  205   6.069   2.713   9.077 -0.2127  0.4391  0.2476
    2SAPS  H17R  206   6.063   2.758   8.976  0.6657 -1.1610 -0.5338
    2SAPS  H17S  207   5.981   2.748   9.135 -0.6647 -0.0169 -0.1565
    2SAPS  C218  208   6.082   2.557   9.073 -0.4937  0.5603  0.1745
    2SAPS  H18R  209   5.982   2.520   9.040  0.2931 -1.2772 -0.2055
    2SAPS  H18S  210   6.096   2.532   9.180 -1.5677  0.0730  0.2019
    2SAPS  C219  211   6.189   2.485   8.988  0.1443  0.1243  0.6169
    2SAPS  H19R  212   6.290   2.496   9.034  0.5644 -1.3857  0.0687
    2SAPS  H19S  213   6.197   2.522   8.884 -0.4026 -2.0247 -0.2202
    2SAPS  C220  214   6.148   2.341   8.967 -0.2239 -0.7074  0.3715
    2SAPS  H20R  215   6.127   2.303   9.069 -0.3202  1.2315  1.0967
    2SAPS  H20S  216   6.234   2.289   8.922 -0.0902 -0.4155  0.2894
    2SAPS  H20T  217   6.051   2.328   8.914  1.8409  0.1396 -3.8258
    2SAPS   C33  218   6.421   2.608  10.416 -0.1183  0.4751 -0.5831
    2SAPS   H3X  219   6.448   2.706  10.458  1.4116  0.5456 -1.6763
    2SAPS   H3Y  220   6.338   2.630  10.345 -0.5616  0.5074 -0.0522
    2SAPS   C34  221   6.536   2.559  10.337 -0.1986  0.2989 -0.3273
    2SAPS   H4X  222   6.523   2.454  10.304  0.8187  0.6107 -1.7753
    2SAPS   H4Y  223   6.627   2.575  10.400  0.5767 -0.1532 -1.3161
    2SAPS   C35  224   6.553   2.641  10.207  0.1193  0.5093  0.4259
    2SAPS   H5X  225   6.587   2.745  10.226 -0.7006  1.1440 -1.4059
    2SAPS   H5Y  226   6.455   2.654  10.157 -0.8156 -0.2972  2.0234
    2SAPS   C36  227   6.649   2.580  10.105  0.2057 -0.8853 -0.6314
    2SAPS   H6X  228   6.623   2.472  10.097  0.2484 -1.0677  1.3688
    2SAPS   H6Y  229   6.756   2.594  10.131  0.0761  0.5601 -0.8609
    2SAPS   C37  230   6.623   2.623   9.969 -0.0375  0.4333 -1.0609
    2SAPS   H7X  231   6.648   2.729   9.947 -0.2537  0.8034  0.4626
    2SAPS   H7Y  232   6.517   2.604   9.941 -0.8032  2.7887  0.1386
    2SAPS   C38  233   6.697   2.545   9.860 -0.4191 -0.1836 -0.7655
    2SAPS   H8X  234   6.692   2.434   9.870  0.1667 -0.2453 -1.1557
    2SAPS   H8Y  235   6.803   2.578   9.861 -0.2591 -0.6574 -1.4375
    2SAPS   C39  236   6.649   2.586   9.712  0.6365 -0.1841  0.1863
    2SAPS   H9X  237   6.655   2.697   9.711 -0.8104 -0.1040 -0.5286
    2SAPS   H9Y  238   6.548   2.546   9.688  0.3690 -1.0377  2.5761
    2SAPS  C310  239   6.759   2.537   9.615  0.0546 -0.4785 -0.2361
    2SAPS  H10X  240   6.777   2.428   9.633 -0.7435 -0.5304  0.2300
    2SAPS  H10Y  241   6.853   2.591   9.639  0.9628 -1.2440 -1.8748
    2SAPS  C311  242   6.723   2.567   9.469  0.1772  0.0880  0.2748
    2SAPS  H11X  243   6.632   2.505   9.460 -1.3101  2.0405  1.2434
    2SAPS  H11Y  244   6.796   2.517   9.402 -1.1838  0.3780 -1.4487
    2SAPS  C312  245   6.676   2.707   9.433 -0.2621 -0.3301  0.2023
    2SAPS  H12X  246   6.761   2.762   9.480  0.1823  0.8447 -1.9208
    2SAPS  H12Y  247   6.587   2.741   9.491  1.0137 -0.5860  2.4015
    2SAPS  C313  248   6.652   2.730   9.284 -0.0012  0.2883  0.2163
    2SAPS  H13X  249   6.585   2.818   9.275  0.0753  0.2688 -0.5758
    2SAPS  H13Y  250   6.584   2.649   9.251 -0.1505 -0.2635  1.8052
    2SAPS  C314  251   6.785   2.733   9.213 -0.8350 -0.5800  0.5902
    2SAPS  H14X  252   6.831   2.633   9.207 -0.4084 -0.3605  0.1655
    2SAPS  H14Y  253   6.857   2.792   9.273 -0.8657 -0.9426  0.9852
    2SAPS  C315  254   6.776   2.794   9.067 -0.2474  0.3306  0.5667
    2SAPS  H15X  255   6.688   2.748   9.018  0.4874  1.3706 -1.7910
    2SAPS  H15Y  256   6.871   2.771   9.014 -0.3894  1.3318 -0.1260
    2SAPS  C316  257   6.755   2.944   9.060  0.7512  0.4161 -0.2753
    2SAPS  H16X  258   6.843   2.991   9.108  0.7855 -0.3395  0.4163
    2SAPS  H16Y  259   6.665   2.962   9.123  0.9667 -1.8487  0.7443
    2SAPS  C317  260   6.726   3.006   8.926 -0.6967  0.1956 -0.4059
    2SAPS  H17X  261   6.819   3.011   8.865  0.7878 -0.1776  1.7834
    2SAPS  H17Y  262   6.706   3.113   8.945 -1.4789 -0.2522  1.4616
    2SAPS  C318  263   6.614   2.940   8.843  0.1698 -0.0995  0.8504
    2SAPS  H18X  264   6.593   3.004   8.755  1.3642 -1.9986 -0.8498
    2SAPS  H18Y  265   6.524   2.932   8.908 -1.6506  1.0193 -1.4312
    2SAPS  H18Z  266   6.648   2.847   8.793  1.0417 -0.1988  1.6103
    3SAPS     N  267   0.488   4.724  11.238 -0.0548  0.3935 -0.1145
    3SAPS   HN1  268   0.461   4.754  11.142 -0.6317 -0.3394 -0.1874
    3SAPS   HN2  269   0.490   4.796  11.312  1.4751 -1.0644  1.3086
    3SAPS   HN3  270   0.576   4.668  11.230  0.7252  0.9395  3.8207
    3SAPS   C12  271   0.388   4.626  11.291  0.0625 -0.4928  0.2219
    3SAPS  H12A  272   0.435   4.533  11.264  1.3530 -0.5503  2.5046
    3SAPS   C13  273   0.362   4.628  11.446 -0.5820 -0.9028 -0.1234
    3SAPS  O13A  274   0.447   4.682  11.517 -0.3528 -0.7040 -0.3296
    3SAPS  O13B  275   0.283   4.535  11.488 -0.4555  0.0774  0.4566
    3SAPS   C11  276   0.257   4.639  11.218  0.0582 -0.4129  0.0605
    3SAPS  H11A  277   0.207   4.737  11.233  0.7359  0.2898 -2.0349
    3SAPS  H11B  278   0.187   4.563  11.260 -1.3130  0.7596 -0.0739
    3SAPS     P  279   0.269   4.717  10.969  0.2810  0.3747  0.0082
    3SAPS   O13  280   0.378   4.814  11.000  0.2968  0.2260 -0.2130
    3SAPS   O14  281   0.282   4.650  10.841  0.5343  0.0317  0.3967
    3SAPS   O12  282   0.258   4.609  11.078 -0.3401  1.0631 -0.0385
    3SAPS   O11  283   0.122   4.778  10.990  0.1067  0.0635  0.1694
    3SAPS    C1  284   0.009   4.698  10.952  0.0256  0.2896 -0.0785
    3SAPS    HA  285   0.025   4.590  10.975 -0.7670  0.0042 -0.8805
    3SAPS    HB  286  -0.070   4.739  11.019  1.2478 -0.2927  1.7463
    3SAPS    C2  287  -0.036   4.714  10.808  0.1101  0.1907 -0.1187
    3SAPS    HS  288   0.037   4.651  10.752  0.3596  0.2755  0.1098
    3SAPS   O21  289  -0.035   4.853  10.784 -0.3037 -0.3695 -0.2528
    3SAPS   C21  290  -0.013   4.885  10.663 -0.6626 -0.3325  0.2660
    3SAPS   O22  291   0.032   4.812  10.573 -0.2294 -0.1084 -0.2803
    3SAPS   C22  292  -0.055   5.031  10.661 -0.3288  0.5424 -0.8614
    3SAPS   H2R  293  -0.160   5.036  10.697  0.2815 -0.2479  1.0468
    3SAPS   H2S  294   0.013   5.099  10.717 -0.4447 -1.7756  2.2062
    3SAPS    C3  295  -0.179   4.661  10.796  0.5777 -0.3413 -0.5014
    3SAPS    HX  296  -0.248   4.714  10.865  0.2318 -0.3002 -0.8776
    3SAPS    HY  297  -0.178   4.554  10.826  1.1049 -0.2082 -0.0284
    3SAPS   O31  298  -0.232   4.679  10.664  0.6626 -0.2742 -0.1343
    3SAPS   C31  299  -0.323   4.594  10.622 -0.6179 -0.1598 -0.1107
    3SAPS   O32  300  -0.381   4.513  10.689 -0.6784  0.1932 -0.0666
    3SAPS   C32  301  -0.353   4.638  10.483  0.3975 -0.2786  0.6922
    3SAPS   H2X  302  -0.435   4.714  10.486  0.8628  0.2200  0.8548
    3SAPS   H2Y  303  -0.400   4.553  10.428 -2.8912  2.1140 -0.3865
    3SAPS   C23  304  -0.062   5.072  10.506  0.7854 -1.0039  0.5264
    3SAPS   H3R  305  -0.093   4.992  10.435 -2.5629 -1.2234  2.1058
    3SAPS   H3S  306   0.046   5.095  10.492  0.2908 -0.3011 -2.3707
    3SAPS   C24  307  -0.158   5.193  10.483  0.2957 -0.3171  0.1046
    3SAPS   H4R  308  -0.250   5.179  10.544  1.4022  0.5225  1.9921
    3SAPS   H4S  309  -0.190   5.189  10.376  2.6273 -1.0178 -0.5987
    3SAPS   C25  310  -0.081   5.320  10.512  1.0898 -0.9056  0.3817
    3SAPS   H5R  311  -0.082   5.359  10.615 -4.3136 -1.0867  0.5751
    3SAPS   C26  312   0.006   5.377  10.421  0.4215  0.0723  0.0469
    3SAPS   H6R  313   0.077   5.453  10.457 -1.4002  1.3992  0.9978
    3SAPS   C27  314   0.043   5.330  10.284  0.7596  0.2358  0.1881
    3SAPS   H7R  315   0.028   5.409  10.207 -0.3083  1.1730  1.3456
    3SAPS   H7S  316  -0.028   5.251  10.251  0.1791 -0.3038  2.6274
    3SAPS   C28  317   0.189   5.267  10.280  0.1220  0.1903  0.4842
    3SAPS   H8R  318   0.241   5.250  10.375 -0.5665  1.5211  1.1111
    3SAPS   C29  319   0.251   5.240  10.164  0.2550  0.4688 -0.5060
    3SAPS   H9R  320   0.355   5.205  10.160  0.0505 -0.1098 -0.9360
    3SAPS  C210  321   0.193   5.262  10.025  0.5764 -0.2145 -0.0371
    3SAPS  H10R  322   0.260   5.204   9.958 -0.9535 -3.3851  1.1126
    3SAPS  H10S  323   0.186   5.370   9.998  0.2544 -0.2773 -0.2115
    3SAPS  C211  324   0.055   5.206  10.000 -0.4060 -0.1621 -0.4667
    3SAPS  H11R  325   0.031   5.113  10.055 -0.4036  0.2660  0.2709
    3SAPS  C212  326  -0.047   5.243   9.914 -0.5814 -0.4857  0.4273
    3SAPS  H12R  327  -0.122   5.169   9.885 -1.2861  0.5305 -0.3670
    3SAPS  C213  328  -0.059   5.370   9.831  0.1124  0.2707  0.0981
    3SAPS  H13R  329   0.035   5.374   9.770  2.2169 -1.5704  3.0820
    3SAPS  H13S  330  -0.068   5.456   9.900 -1.4817  0.1844  0.0197
    3SAPS  C214  331  -0.174   5.382   9.734 -0.5054  0.2920  0.0569
    3SAPS  H14R  332  -0.150   5.329   9.641 -0.6190  0.9086 -0.3287
    3SAPS  C215  333  -0.292   5.445   9.752  0.3250  0.8324  0.5521
    3SAPS  H15R  334  -0.360   5.458   9.666  1.3865  0.7544 -0.3095
    3SAPS  C216  335  -0.336   5.518   9.871 -0.0697  0.2712 -0.4232
    3SAPS  H16R  336  -0.441   5.544   9.848 -0.2287  0.7864  0.7944
    3SAPS  H16S  337  -0.268   5.606   9.882 -1.9334  1.4397  2.5702
    3SAPS  C217  338  -0.328   5.453  10.008 -0.5473  0.2684  0.1805
    3SAPS  H17R  339  -0.225   5.429  10.041 -0.5797 -0.9214 -0.5473
    3SAPS  H17S  340  -0.386   5.358  10.011 -0.6653  0.3729  1.4101
    3SAPS  C218  341  -0.378   5.544  10.124 -0.2583 -0.2261 -0.4266
    3SAPS  H18R  342  -0.489   5.550  10.126 -0.1716  2.9259 -1.9327
    3SAPS  H18S  343  -0.352   5.647  10.093  0.9915  0.2614  2.0785
    3SAPS  C219  344  -0.331   5.523  10.266  0.4601  0.3546  0.4244
    3SAPS  H19R  345  -0.222   5.531  10.245  0.0154 -0.1377 -2.2628
    3SAPS  H19S  346  -0.360   5.424  10.308  1.9610 -0.0485  0.5484
    3SAPS  C220  347  -0.378   5.625  10.367 -0.4607  0.1439 -0.7684
    3SAPS  H20R  348  -0.312   5.605  10.454  0.1600  0.2232 -1.2189
    3SAPS  H20S  349  -0.484   5.617  10.398  0.2066  0.5238  1.7603
    3SAPS  H20T  350  -0.365   5.731  10.335  1.4690 -0.1240 -0.9633
    3SAPS   C33  351  -0.248   4.699  10.386  0.0622 -0.3988 -0.2357
    3SAPS   H3X  352  -0.155   4.639  10.378  1.2278  1.3880 -0.2546
    3SAPS   H3Y  353  -0.211   4.798  10.421 -1.2091  0.2276 -0.6333
    3SAPS   C34  354  -0.309   4.705  10.240  0.4005 -0.4980 -0.7503
    3SAPS   H4X  355  -0.408   4.755  10.236 -0.7127 -2.6714 -0.9558
    3SAPS   H4Y  356  -0.337   4.608  10.194  2.0498 -1.5166  0.3152
    3SAPS   C35  357  -0.217   4.777  10.139  0.0629  0.7788 -0.4919
    3SAPS   H5X  358  -0.115   4.734  10.140  0.3143  1.2979 -2.6369
    3SAPS   H5Y  359  -0.199   4.876  10.184  0.8309  1.0538 -1.3947
    3SAPS   C36  360  -0.265   4.774   9.988 -0.4360 -0.9242 -0.2416
    3SAPS   H6X  361  -0.369   4.813   9.980 -0.0218  0.3126  0.4195
    3SAPS   H6Y  362  -0.263   4.667   9.957 -1.2330 -0.8403 -0.6092
    3SAPS   C37  363  -0.195   4.863   9.896  0.2135  0.6725  0.4712
    3SAPS   H7X  364  -0.091   4.823   9.895  0.2841  0.8407  0.9031
    3SAPS   H7Y  365  -0.198   4.968   9.932 -0.1161  0.4471  1.0991
    3SAPS   C38  366  -0.246   4.854   9.756  0.7072 -0.1021  0.8403
    3SAPS   H8X  367  -0.351   4.889   9.756  1.1559  1.2717  0.8163
    3SAPS   H8Y  368  -0.251   4.752   9.713  0.9439  0.4412 -0.4917
    3SAPS   C39  369  -0.183   4.953   9.655  0.2456 -0.4099  0.5632
    3SAPS   H9X  370  -0.076   4.928   9.642 -0.3523 -2.1054 -1.4673
    3SAPS   H9Y  371  -0.181   5.061   9.681 -1.0683 -0.3683  0.5300
    3SAPS  C310  372  -0.251   4.953   9.515 -0.3823 -0.2936  0.1640
    3SAPS  H10X  373  -0.355   4.991   9.522 -0.0876  0.8192 -1.2974
    3SAPS  H10Y  374  -0.262   4.850   9.473 -0.7964 -0.6365  1.0947
    3SAPS  C311  375  -0.187   5.062   9.426  0.4097  0.1844  0.5696
    3SAPS  H11X  376  -0.077   5.048   9.431  0.6430  2.2192  1.7672
    3SAPS  H11Y  377  -0.205   5.164   9.467 -1.5695 -0.5837  1.6397
    3SAPS  C312  378  -0.231   5.049   9.278  0.1240  0.7700  0.0568
    3SAPS  H12X  379  -0.341   5.066   9.273  0.0712  0.5835  0.5679
    3SAPS  H12Y  380  -0.214   4.943   9.247 -3.5091  0.2678 -0.4689
    3SAPS  C313  381  -0.159   5.156   9.178  1.1485  0.1314 -0.3942
    3SAPS  H13X  382  -0.050   5.137   9.180  1.0841 -0.2217 -0.1370
    3SAPS  H13Y  383  -0.189   5.246   9.235  2.2677  0.0258  0.3600
    3SAPS  C314  384  -0.227   5.162   9.044  0.1773 -0.8114  0.2700
    3SAPS  H14X  385  -0.204   5.260   8.999 -0.1967 -0.6508  0.4262
    3SAPS  H14Y  386  -0.336   5.140   9.056 -0.1583  0.9477  0.5691
    3SAPS  C315  387  -0.174   5.059   8.945 -0.3217 -0.3408  0.3505
    3SAPS  H15X  388  -0.151   4.974   9.012  0.0027 -0.1889  0.4307
    3SAPS  H15Y  389  -0.078   5.094   8.904  1.3291 -3.5167  1.3380
    3SAPS  C316  390  -0.280   5.030   8.833 -0.4933  0.2667  0.2308
    3SAPS  H16X  391  -0.289   5.125   8.777  0.7730  0.2698  0.0208
    3SAPS  H16Y  392  -0.375   4.996   8.880 -1.3348  0.6733 -1.1567
    3SAPS  C317  393  -0.229   4.923   8.731  0.8020 -0.6770 -0.1480
    3SAPS  H17X  394  -0.205   4.831   8.788 -0.3245 -0.5236  0.5903
    3SAPS  H17Y  395  -0.144   4.967   8.674  1.3048 -1.1504  0.2218
    3SAPS  C318  396  -0.346   4.900   8.632 -0.1598  0.0511  0.2191
    3SAPS  H18X  397  -0.392   4.998   8.607  2.1113  1.1379  0.2148
    3SAPS  H18Y  398  -0.414   4.827   8.682  0.3767 -1.2136 -0.8503
    3SAPS  H18Z  399  -0.298   4.856   8.542  0.6274  2.1023 -0.3791
    4SAPS     N  400   1.924   5.895  10.909  0.0222  0.2145  0.2921
    4SAPS   HN1  401   1.840   5.866  10.856  0.2585 -2.5414  1.3398
    4SAPS   HN2  402   1.900   5.906  11.009  1.8088 -2.7223  1.1028
    4SAPS   HN3  403   1.949   5.986  10.864  0.6222 -1.0085 -1.9298
    4SAPS   C12  404   2.029   5.795  10.917 -0.0274 -0.7442 -0.2870
    4SAPS  H12A  405   2.097   5.824  10.996 -1.4016 -0.0477  0.6423
    4SAPS   C13  406   1.966   5.652  10.958 -0.2627  0.2787 -0.2525
    4SAPS  O13A  407   1.847   5.642  10.995 -0.2638 -0.5421 -0.4806
    4SAPS  O13B  408   2.039   5.551  10.968  0.2891  0.6255  0.1876
    4SAPS   C11  409   2.097   5.780  10.774 -0.0989 -0.0621  0.8070
    4SAPS  H11A  410   2.018   5.746  10.704 -1.3593 -1.1954  2.6984
    4SAPS  H11B  411   2.165   5.692  10.788 -1.6755 -1.5557 -0.6873
    4SAPS     P  412   2.305   5.952  10.774 -0.1619 -0.1256 -0.3236
    4SAPS   O13  413   2.324   6.076  10.689 -0.2880  0.5751 -0.0409
    4SAPS   O14  414   2.313   5.968  10.921  0.1325 -0.4022  0.7405
    4SAPS   O12  415   2.166   5.895  10.734  0.2413 -0.1546  0.7576
    4SAPS   O11  416   2.405   5.836  10.737 -0.4107  0.0212 -0.1487
    4SAPS    C1  417   2.494   5.854  10.624  0.6865  1.0471  0.5022
    4SAPS    HA  418   2.524   5.959  10.602  0.8001  0.7142 -0.9678
    4SAPS    HB  419   2.593   5.814  10.653 -0.2141 -1.2331  0.4943
    4SAPS    C2  420   2.431   5.797  10.492 -0.0543  0.2940  0.8848
    4SAPS    HS  421   2.344   5.866  10.480  0.7407  1.0448 -0.7368
    4SAPS   O21  422   2.387   5.664  10.498 -0.4597  0.0037 -0.7920
    4SAPS   C21  423   2.292   5.636  10.407  0.1284 -1.0088  0.6884
    4SAPS   O22  424   2.239   5.715  10.328  0.0552  0.1886 -0.4230
    4SAPS   C22  425   2.263   5.482  10.419  0.0876 -0.0854  0.2775
    4SAPS   H2R  426   2.356   5.436  10.458  1.1604 -0.5755 -2.6776
    4SAPS   H2S  427   2.179   5.472  10.491 -0.6821  1.5268 -0.3788
    4SAPS    C3  428   2.537   5.827  10.378 -0.2297  0.1793 -0.2604
    4SAPS    HX  429   2.617   5.752  10.395 -0.6428 -0.2495 -0.1935
    4SAPS    HY  430   2.583   5.926  10.397  1.3811 -1.0451  2.6014
    4SAPS   O31  431   2.494   5.822  10.238 -0.9893  0.1672  0.0078
    4SAPS   C31  432   2.405   5.918  10.202 -0.3545  0.1317 -0.2420
    4SAPS   O32  433   2.367   6.010  10.277 -0.0505 -0.0654 -0.0738
    4SAPS   C32  434   2.372   5.901  10.055  0.0638 -0.1023 -0.3908
    4SAPS   H2X  435   2.321   5.804  10.036 -0.4159  0.4183 -1.7836
    4SAPS   H2Y  436   2.467   5.902   9.998 -0.8291  1.4694 -1.8711
    4SAPS   C23  437   2.221   5.424  10.283  0.4900  0.3739  0.2300
    4SAPS   H3R  438   2.154   5.500  10.237 -1.4896 -2.5169 -1.8855
    4SAPS   H3S  439   2.157   5.336  10.306  0.4646  0.8660  2.0594
    4SAPS   C24  440   2.329   5.370  10.184  0.1277 -0.1702  0.3776
    4SAPS   H4R  441   2.268   5.299  10.123 -0.0344  1.0700 -0.9207
    4SAPS   H4S  442   2.395   5.300  10.240  0.4258  1.6714  2.3529
    4SAPS   C25  443   2.408   5.470  10.112 -0.4432  0.2247  0.6405
    4SAPS   H5R  444   2.451   5.551  10.173 -1.1247  0.4615  0.8160
    4SAPS   C26  445   2.409   5.476   9.975 -0.2336 -0.1437  0.4478
    4SAPS   H6R  446   2.481   5.549   9.935  0.8495 -1.3551  0.1678
    4SAPS   C27  447   2.341   5.390   9.875 -0.5891  0.5536  0.1521
    4SAPS   H7R  448   2.293   5.452   9.796  1.1812 -1.0335 -2.2543
    4SAPS   H7S  449   2.253   5.340   9.921 -0.2552  0.9537  1.2435
    4SAPS   C28  450   2.420   5.274   9.825 -0.0710  1.5433  0.3384
    4SAPS   H8R  451   2.444   5.201   9.903  1.6668  1.0278 -0.6600
    4SAPS   C29  452   2.455   5.248   9.696 -0.3100 -0.1904 -0.3008
    4SAPS   H9R  453   2.502   5.156   9.660 -0.5490 -0.9063  1.1531
    4SAPS  C210  454   2.413   5.330   9.576 -0.3561  0.4660 -0.0963
    4SAPS  H10R  455   2.497   5.337   9.505  0.2759  0.1798  0.6215
    4SAPS  H10S  456   2.384   5.432   9.610 -2.6262  0.6371 -2.4162
    4SAPS  C211  457   2.301   5.262   9.498  0.2737 -0.2022  0.7136
    4SAPS  H11R  458   2.222   5.217   9.561 -0.4097 -1.3519 -0.9338
    4SAPS  C212  459   2.292   5.247   9.365 -0.2367  0.0570  0.7331
    4SAPS  H12R  460   2.214   5.177   9.332 -1.3748  1.9076 -0.5884
    4SAPS  C213  461   2.380   5.286   9.244 -0.3360  0.0595 -0.3905
    4SAPS  H13R  462   2.490   5.289   9.261 -0.2271  1.2466 -1.2842
    4SAPS  H13S  463   2.351   5.389   9.215  1.9387  0.7621 -0.2910
    4SAPS  C214  464   2.361   5.195   9.123  0.1508  0.2272 -0.5768
    4SAPS  H14R  465   2.347   5.090   9.152  0.2053 -0.3136 -2.4806
    4SAPS  C215  466   2.325   5.226   8.993 -0.4402 -0.4099 -0.1513
    4SAPS  H15R  467   2.317   5.142   8.922 -2.1153 -0.0473 -0.4238
    4SAPS  C216  468   2.323   5.366   8.938  0.3989  0.6170  1.2577
    4SAPS  H16R  469   2.407   5.377   8.866 -0.2303 -0.9328  0.2581
    4SAPS  H16S  470   2.330   5.444   9.017  1.0971  2.3977 -0.4868
    4SAPS  C217  471   2.195   5.398   8.858  0.2513 -0.2200 -0.3851
    4SAPS  H17R  472   2.190   5.504   8.826 -0.5721  0.4549  1.8742
    4SAPS  H17S  473   2.106   5.379   8.922 -1.7109 -1.0501 -3.2395
    4SAPS  C218  474   2.178   5.308   8.733 -0.2185 -0.0461 -0.3726
    4SAPS  H18R  475   2.168   5.202   8.766 -0.9080 -0.3434 -1.5257
    4SAPS  H18S  476   2.256   5.329   8.657  1.9708 -2.4908  1.1120
    4SAPS  C219  477   2.043   5.342   8.662  0.2392  0.1970 -0.3304
    4SAPS  H19R  478   2.064   5.429   8.596  0.8024 -0.9733 -1.7519
    4SAPS  H19S  479   1.976   5.354   8.749  0.6853  1.3414 -0.1481
    4SAPS  C220  480   2.000   5.225   8.567  0.3357 -0.1188 -0.3483
    4SAPS  H20R  481   2.078   5.206   8.490  2.5686 -2.2074  2.3402
    4SAPS  H20S  482   1.899   5.231   8.521  0.2399  1.7523  0.0570
    4SAPS  H20T  483   2.000   5.134   8.631 -1.2247  0.3168  0.2836
    4SAPS   C33  484   2.266   6.003   9.996 -0.8449 -0.3714  0.2254
    4SAPS   H3X  485   2.316   6.101  10.016  1.0900 -1.3010  0.0860
    4SAPS   H3Y  486   2.165   5.995  10.042  0.6589  0.4303  3.8637
    4SAPS   C34  487   2.257   5.995   9.842  0.3253  0.1569  0.7489
    4SAPS   H4X  488   2.365   5.998   9.813  0.1397 -1.2009 -0.1528
    4SAPS   H4Y  489   2.211   6.079   9.787 -1.0134 -1.7657 -1.1555
    4SAPS   C35  490   2.182   5.868   9.797 -0.6064  0.0866 -0.3453
    4SAPS   H5X  491   2.077   5.897   9.776  0.2651  2.5706 -1.3570
    4SAPS   H5Y  492   2.179   5.797   9.883  1.8277  1.2624  0.7634
    4SAPS   C36  493   2.254   5.790   9.692 -0.0397 -0.5886 -0.6305
    4SAPS   H6X  494   2.212   5.687   9.700 -0.1645 -0.5178 -0.3688
    4SAPS   H6Y  495   2.362   5.782   9.720 -0.4566  0.3639  1.3708
    4SAPS   C37  496   2.225   5.844   9.554  0.1172  0.4349 -0.2078
    4SAPS   H7X  497   2.297   5.922   9.521  0.2994  0.3927  0.0876
    4SAPS   H7Y  498   2.124   5.890   9.558  1.7870  4.1037  2.9714
    4SAPS   C38  499   2.248   5.732   9.449  0.0780  0.0796 -0.8937
    4SAPS   H8X  500   2.166   5.658   9.459  0.8606 -0.6150  0.5675
    4SAPS   H8Y  501   2.345   5.692   9.486 -1.1910 -1.9276  0.3766
    4SAPS   C39  502   2.266   5.781   9.310 -0.3061  0.0842 -0.0286
    4SAPS   H9X  503   2.324   5.876   9.299  0.0972 -0.0820  0.6526
    4SAPS   H9Y  504   2.170   5.806   9.260 -0.4220 -1.4185 -0.5669
    4SAPS  C310  505   2.334   5.676   9.226  0.3194  1.0182  0.5042
    4SAPS  H10X  506   2.250   5.603   9.224  1.7622 -0.6397 -2.6637
    4SAPS  H10Y  507   2.426   5.640   9.277  1.9052  3.5240 -0.5367
    4SAPS  C311  508   2.369   5.730   9.090  0.0006  0.2685  0.0647
    4SAPS  H11X  509   2.425   5.649   9.039  1.9650  0.9125  1.1504
    4SAPS  H11Y  510   2.425   5.826   9.097 -0.2933  0.2886  2.4876
    4SAPS  C312  511   2.248   5.770   9.004 -0.1949  0.6274  0.4699
    4SAPS  H12X  512   2.185   5.850   9.048 -0.6464 -0.8424  2.5309
    4SAPS  H12Y  513   2.174   5.688   8.989 -0.0828  1.0187 -2.4430
    4SAPS  C313  514   2.298   5.813   8.862 -0.1500  0.2799  0.3089
    4SAPS  H13X  515   2.362   5.733   8.819 -0.9473 -0.3166  0.2391
    4SAPS  H13Y  516   2.354   5.908   8.875  0.3629 -0.2460  1.9794
    4SAPS  C314  517   2.180   5.842   8.765  0.5574 -1.0476  0.0167
    4SAPS  H14X  518   2.109   5.917   8.808  1.5048  0.0663 -0.3296
    4SAPS  H14Y  519   2.126   5.745   8.758 -1.2824  0.0986 -2.6583
    4SAPS  C315  520   2.223   5.892   8.624  0.6268  0.4368  0.7754
    4SAPS  H15X  521   2.125   5.899   8.573  2.2226  2.1723 -2.1469
    4SAPS  H15Y  522   2.285   5.811   8.580 -0.0950  0.6572 -0.6672
    4SAPS  C316  523   2.280   6.035   8.613  0.2443 -0.4008 -0.4671
    4SAPS  H16X  524   2.301   6.055   8.505  0.4615  0.4885 -0.2662
    4SAPS  H16Y  525   2.378   6.044   8.665 -2.0949  3.1891  3.5856
    4SAPS  C317  526   2.190   6.154   8.658  0.2128 -0.3192 -0.5888
    4SAPS  H17X  527   2.172   6.137   8.766 -1.2964 -0.9630 -0.9305
    4SAPS  H17Y  528   2.085   6.157   8.622  0.8843  1.6382 -2.5165
    4SAPS  C318  529   2.235   6.291   8.636  0.2325 -0.3778  0.2808
    4SAPS  H18X  530   2.232   6.314   8.528 -0.3203 -4.9912 -0.7760
    4SAPS  H18Y  531   2.331   6.321   8.682 -0.5013  0.4382  1.3144
    4SAPS  H18Z  532   2.162   6.355   8.691  1.1159  0.1017  0.9102
    5SAPS     N  533   6.160   4.815  11.183  0.3267 -0.2724  0.3992
    5SAPS   HN1  534   6.180   4.782  11.280  0.8524 -0.0024  0.3795
    5SAPS   HN2  535   6.063   4.781  11.166  0.9560 -1.7411 -0.3043
    5SAPS   HN3  536   6.208   4.757  11.112  1.5439 -0.8036  1.6283
    5SAPS   C12  537   6.169   4.963  11.148 -0.2292  0.1053 -0.3416
    5SAPS  H12A  538   6.103   5.018  11.214 -2.5522 -2.6021 -0.3313
    5SAPS   C13  539   6.311   5.029  11.173  0.3568  0.7127 -0.5330
    5SAPS  O13A  540   6.402   4.963  11.231 -0.7175  0.3886 -0.0486
    5SAPS  O13B  541   6.333   5.152  11.155 -0.2711  0.7832 -0.0712
    5SAPS   C11  542   6.121   4.984  11.000 -0.2490  0.0090 -0.0310
    5SAPS  H11A  543   6.189   4.929  10.931  0.7890  0.5135  0.5818
    5SAPS  H11B  544   6.120   5.092  10.973  1.3355 -0.3682 -1.7686
    5SAPS     P  545   5.862   4.996  10.951  0.4823  0.2223  0.0858
    5SAPS   O13  546   5.754   4.903  10.935  0.7422  0.4744 -0.1861
    5SAPS   O14  547   5.840   5.093  11.058 -0.2633  0.6780 -0.1978
    5SAPS   O12  548   5.997   4.921  10.983 -0.5055 -0.3601 -0.4231
    5SAPS   O11  549   5.883   5.077  10.821 -0.4635  0.0618  0.0427
    5SAPS    C1  550   5.891   5.015  10.694 -0.5656 -0.0659  0.8844
    5SAPS    HA  551   5.887   4.904  10.702  0.8389 -0.2329 -0.5758
    5SAPS    HB  552   5.803   5.045  10.634  1.6280  2.0285 -1.4056
    5SAPS    C2  553   6.016   5.062  10.615 -0.3716  0.0938 -0.3593
    5SAPS    HS  554   6.106   5.035  10.674  1.2838  2.2027 -1.8273
    5SAPS   O21  555   6.004   5.205  10.596  0.7549 -0.9797  0.2406
    5SAPS   C21  556   6.113   5.278  10.611  0.4590  0.9217 -0.2628
    5SAPS   O22  557   6.224   5.237  10.650 -0.1895  0.3510  0.1964
    5SAPS   C22  558   6.090   5.422  10.573 -0.3066  0.4822  0.5083
    5SAPS   H2R  559   5.984   5.448  10.596  0.0409  1.3910  1.0958
    5SAPS   H2S  560   6.158   5.489  10.630  0.0221  0.2591  0.3809
    5SAPS    C3  561   6.030   4.992  10.473  0.1216  0.2159 -0.3246
    5SAPS    HX  562   5.927   4.998  10.431  1.3958  0.5726 -3.5265
    5SAPS    HY  563   6.060   4.886  10.489  0.8099  0.5115  0.4135
    5SAPS   O31  564   6.116   5.073  10.386  0.0154  0.7442 -0.1761
    5SAPS   C31  565   6.245   5.048  10.416  0.3697  0.8398  0.1582
    5SAPS   O32  566   6.292   4.953  10.481  0.2048  0.2236 -0.0878
    5SAPS   C32  567   6.321   5.138  10.326 -0.3819  0.3946 -0.4389
    5SAPS   H2X  568   6.414   5.166  10.381 -1.9998  2.8142  1.1488
    5SAPS   H2Y  569   6.268   5.234  10.310  0.5480  1.7062  3.6330
    5SAPS   C23  570   6.122   5.446  10.422 -0.5260 -0.6029 -0.4914
    5SAPS   H3R  571   6.058   5.375  10.365 -0.4229 -0.3169 -0.9603
    5SAPS   H3S  572   6.227   5.412  10.409  0.0619  1.3798 -0.9456
    5SAPS   C24  573   6.080   5.580  10.358 -0.3883  0.2733  0.3274
    5SAPS   H4R  574   6.103   5.570  10.250  0.1201  1.4050  0.3188
    5SAPS   H4S  575   6.138   5.666  10.399 -0.6676 -0.4012  2.1660
    5SAPS   C25  576   5.935   5.605  10.389 -0.6560  0.2737 -0.8627
    5SAPS   H5R  577   5.901   5.615  10.493  0.5395  1.0560 -0.5418
    5SAPS   C26  578   5.839   5.614  10.298 -0.1491  0.5194 -0.3294
    5SAPS   H6R  579   5.733   5.623  10.326 -0.0413  0.2494  0.1815
    5SAPS   C27  580   5.859   5.593  10.147  0.5057  0.2712 -0.5250
    5SAPS   H7R  581   5.789   5.522  10.098  1.3827  0.7639 -2.5374
    5SAPS   H7S  582   5.941   5.519  10.131  0.6346 -0.4272  2.9404
    5SAPS   C28  583   5.866   5.717  10.058 -0.4707  0.3101  0.2265
    5SAPS   H8R  584   5.847   5.816  10.104  2.0630 -0.0795  2.2228
    5SAPS   C29  585   5.891   5.722   9.925  0.0595  0.3550  0.9993
    5SAPS   H9R  586   5.896   5.817   9.870  0.2217  0.5912  1.4144
    5SAPS  C210  587   5.914   5.605   9.839  0.2352  0.3936  0.3156
    5SAPS  H10R  588   5.828   5.598   9.768 -0.8496 -2.3762  1.8249
    5SAPS  H10S  589   5.908   5.512   9.898 -0.7720  0.4474  0.3195
    5SAPS  C211  590   6.046   5.600   9.760  0.4431  0.1453  0.2496
    5SAPS  H11R  591   6.131   5.604   9.830  0.2303 -0.9578  0.5735
    5SAPS  C212  592   6.057   5.614   9.627 -0.1435  0.1698  0.1202
    5SAPS  H12R  593   6.159   5.627   9.590 -0.5883  2.6732 -0.2946
    5SAPS  C213  594   5.946   5.633   9.527 -0.5958  0.2864 -0.2772
    5SAPS  H13R  595   5.972   5.723   9.467  2.3958  0.3235  0.9803
    5SAPS  H13S  596   5.847   5.655   9.572 -0.3006  2.4984 -0.6777
    5SAPS  C214  597   5.927   5.507   9.437 -0.3936 -0.6261  0.1732
    5SAPS  H14R  598   5.942   5.409   9.484 -1.2072 -0.4147  0.9045
    5SAPS  C215  599   5.891   5.500   9.306  0.4562 -0.6003  0.0039
    5SAPS  H15R  600   5.888   5.403   9.254 -1.1654 -0.9151  0.6601
    5SAPS  C216  601   5.861   5.613   9.217 -0.3724  0.0368  0.1492
    5SAPS  H16R  602   5.873   5.572   9.114  2.7116  0.7355  0.1872
    5SAPS  H16S  603   5.935   5.690   9.246 -0.7721 -0.1628  1.7568
    5SAPS  C217  604   5.724   5.680   9.230 -0.6484 -0.1287  0.3654
    5SAPS  H17R  605   5.723   5.777   9.176  2.4696  0.8328  1.9522
    5SAPS  H17S  606   5.715   5.712   9.336 -1.6422  1.5747 -0.2213
    5SAPS  C218  607   5.597   5.595   9.202 -0.4918  0.2326  0.0297
    5SAPS  H18R  608   5.596   5.565   9.095  0.6671 -0.5035  0.2159
    5SAPS  H18S  609   5.612   5.510   9.273  3.0915  0.9333  0.1779
    5SAPS  C219  610   5.462   5.656   9.237 -0.1013  0.2058  0.0797
    5SAPS  H19R  611   5.444   5.744   9.172 -2.7606 -0.2055  0.2236
    5SAPS  H19S  612   5.472   5.711   9.333  0.7692  1.5646 -0.7855
    5SAPS  C220  613   5.346   5.559   9.252  0.0995 -0.1585  0.0311
    5SAPS  H20R  614   5.322   5.532   9.146  0.7461  3.9344 -1.2651
    5SAPS  H20S  615   5.261   5.608   9.304  0.1195 -0.9810  0.8355
    5SAPS  H20T  616   5.376   5.464   9.301 -1.4243 -1.1824 -0.9399
    5SAPS   C33  617   6.357   5.071  10.190  0.2054 -0.7372  0.4882
    5SAPS   H3X  618   6.352   4.960  10.188  1.4116 -0.8079  0.8116
    5SAPS   H3Y  619   6.464   5.084  10.165  0.2443 -0.6280  0.7074
    5SAPS   C34  620   6.269   5.136  10.078  0.4493  0.0809 -0.3541
    5SAPS   H4X  621   6.269   5.244  10.106  1.0809 -0.1786  0.6858
    5SAPS   H4Y  622   6.168   5.097  10.101  0.1129  0.1462 -1.6764
    5SAPS   C35  623   6.310   5.107   9.932  0.2018 -0.0271 -0.1424
    5SAPS   H5X  624   6.317   4.998   9.917 -1.3431 -0.4716  2.1442
    5SAPS   H5Y  625   6.417   5.137   9.930  0.3985 -0.6535  0.8034
    5SAPS   C36  626   6.243   5.192   9.831 -0.3187 -0.1959  0.2919
    5SAPS   H6X  627   6.268   5.299   9.848  2.8536 -0.7435 -0.5342
    5SAPS   H6Y  628   6.132   5.185   9.835 -0.2947 -0.2699  0.9733
    5SAPS   C37  629   6.283   5.147   9.689 -0.4057  0.1438  0.3559
    5SAPS   H7X  630   6.283   5.037   9.675 -1.1125  0.4484 -2.3476
    5SAPS   H7Y  631   6.386   5.183   9.668 -1.1272  1.3211 -1.2449
    5SAPS   C38  632   6.202   5.213   9.576 -0.4273  0.1984  0.2404
    5SAPS   H8X  633   6.205   5.319   9.609  3.4418 -0.1792  1.3223
    5SAPS   H8Y  634   6.095   5.184   9.576 -0.0716 -1.1307 -0.4702
    5SAPS   C39  635   6.272   5.204   9.438 -0.2266  0.0575 -0.8182
    5SAPS   H9X  636   6.261   5.102   9.395 -0.1549 -1.1709  1.9509
    5SAPS   H9Y  637   6.380   5.226   9.440 -0.4520  1.1564  2.9715
    5SAPS  C310  638   6.209   5.305   9.349  0.2122  0.1776  0.5903
    5SAPS  H10X  639   6.218   5.406   9.395  1.7261  0.3858 -0.1353
    5SAPS  H10Y  640   6.098   5.300   9.341  0.2787  0.8581 -0.9483
    5SAPS  C311  641   6.257   5.292   9.197 -0.4904 -0.8429 -0.4616
    5SAPS  H11X  642   6.207   5.200   9.160 -1.2825 -1.1314  1.2969
    5SAPS  H11Y  643   6.368   5.287   9.199 -0.3269  1.0472 -2.4808
    5SAPS  C312  644   6.218   5.419   9.123  0.3132  0.3286 -0.6924
    5SAPS  H12X  645   6.238   5.513   9.178  3.5166 -1.2033  0.8810
    5SAPS  H12Y  646   6.107   5.412   9.118  0.4334 -1.4120 -1.4909
    5SAPS  C313  647   6.277   5.420   8.987  0.2378 -0.3731  0.6602
    5SAPS  H13X  648   6.234   5.334   8.931 -0.9924  0.5261  0.1994
    5SAPS  H13Y  649   6.385   5.397   8.986  0.4381  0.5630  0.5988
    5SAPS  C314  650   6.255   5.557   8.922  0.3865 -0.3396 -0.0517
    5SAPS  H14X  651   6.305   5.635   8.983  1.8998 -1.3327  0.0197
    5SAPS  H14Y  652   6.151   5.593   8.914  0.5634 -0.0431 -1.0987
    5SAPS  C315  653   6.292   5.556   8.775  0.8045  0.3768  0.1721
    5SAPS  H15X  654   6.224   5.485   8.724  1.3309  0.2799 -0.4109
    5SAPS  H15Y  655   6.392   5.507   8.768  0.4066 -0.2724 -1.2217
    5SAPS  C316  656   6.295   5.699   8.715  1.0102 -0.9349  0.4408
    5SAPS  H16X  657   6.380   5.754   8.762 -0.2803 -0.3629  2.1384
    5SAPS  H16Y  658   6.206   5.750   8.756  2.0169  1.3838 -0.2048
    5SAPS  C317  659   6.294   5.706   8.559 -0.2747  0.0253 -0.2279
    5SAPS  H17X  660   6.393   5.664   8.530 -0.7646 -3.0387  2.2432
    5SAPS  H17Y  661   6.286   5.813   8.532 -0.3302 -0.3568 -1.7373
    5SAPS  C318  662   6.195   5.613   8.487  0.2692  0.4674 -0.4875
    5SAPS  H18X  663   6.090   5.638   8.515  0.2235 -0.4628  0.1768
    5SAPS  H18Y  664   6.206   5.503   8.494 -0.8931  0.2321 -1.9128
    5SAPS  H18Z  665   6.201   5.628   8.377  1.2007  0.8304 -0.3863
    6SAPS     N  666   5.782   4.641  10.927 -0.2570  0.5528  0.0312
    6SAPS   HN1  667   5.742   4.632  10.831 -1.8903 -0.0209  0.7472
    6SAPS   HN2  668   5.712   4.626  11.003 -0.2396  2.6197  0.4556
    6SAPS   HN3  669   5.814   4.739  10.935 -1.6801  1.0076  0.3058
    6SAPS   C12  670   5.888   4.537  10.958 -0.5810 -0.5058 -0.1583
    6SAPS  H12A  671   5.968   4.547  10.887 -1.3465  1.2492 -0.7922
    6SAPS   C13  672   5.957   4.567  11.096  0.3627  0.4116 -0.1669
    6SAPS  O13A  673   5.936   4.675  11.159  0.1240  0.1491  0.8594
    6SAPS  O13B  674   6.045   4.492  11.131  0.1976  0.1857  0.4694
    6SAPS   C11  675   5.829   4.395  10.934  0.1936  0.3896 -0.0462
    6SAPS  H11A  676   5.725   4.378  10.972  0.5391 -0.9606  0.3200
    6SAPS  H11B  677   5.889   4.322  10.992  0.3945  0.5373 -0.0690
    6SAPS     P  678   5.719   4.378  10.689 -0.1455 -0.1011  0.2016
    6SAPS   O13  679   5.585   4.331  10.734 -0.3280  0.0177  0.9060
    6SAPS   O14  680   5.721   4.529  10.664 -0.6355  0.1921 -0.0505
    6SAPS   O12  681   5.832   4.351  10.799  0.2654 -0.0440 -0.1112
    6SAPS   O11  682   5.769   4.299  10.563 -0.2695 -0.3669  0.6379
    6SAPS    C1  683   5.682   4.226  10.476 -0.8114  0.1023 -0.6409
    6SAPS    HA  684   5.744   4.147  10.428  1.4259  0.5914  1.3482
    6SAPS    HB  685   5.598   4.176  10.529 -0.9075 -0.7952 -1.6113
    6SAPS    C2  686   5.627   4.324  10.368  0.0648  0.6121  0.3375
    6SAPS    HS  687   5.607   4.270  10.274 -0.0804  0.8582  0.2273
    6SAPS   O21  688   5.717   4.432  10.328  0.1008  0.2280  0.0054
    6SAPS   C21  689   5.833   4.390  10.274 -0.1426 -0.1180  0.4059
    6SAPS   O22  690   5.869   4.270  10.272  0.3927 -0.6630  0.2897
    6SAPS   C22  691   5.922   4.511  10.249  0.4965 -0.6259  0.2133
    6SAPS   H2R  692   5.860   4.597  10.284 -0.1009 -1.5709  1.5483
    6SAPS   H2S  693   6.015   4.503  10.309  2.3262  3.7035 -1.8343
    6SAPS    C3  694   5.496   4.386  10.416 -0.3348 -0.1937 -0.2680
    6SAPS    HX  695   5.468   4.463  10.341 -0.9328 -0.1359  0.0090
    6SAPS    HY  696   5.503   4.427  10.519  2.3583 -2.2987  0.4459
    6SAPS   O31  697   5.394   4.284  10.406 -0.1225  0.6105 -0.0155
    6SAPS   C31  698   5.314   4.269  10.509  0.5571  0.3654  0.6011
    6SAPS   O32  699   5.315   4.335  10.612 -0.4568 -0.3023  0.0322
    6SAPS   C32  700   5.213   4.158  10.474 -0.0149  0.2773  0.4300
    6SAPS   H2X  701   5.219   4.094  10.565 -2.6924 -0.1637  0.3435
    6SAPS   H2Y  702   5.245   4.100  10.385  0.5051  1.7742 -0.3828
    6SAPS   C23  703   5.961   4.542  10.104  0.5055  0.1511  0.3391
    6SAPS   H3R  704   5.867   4.562  10.049  0.5555 -1.1186 -0.2234
    6SAPS   H3S  705   5.996   4.447  10.059 -4.2410 -0.6306 -1.9578
    6SAPS   C24  706   6.069   4.654  10.090  0.1695 -0.5764  0.2607
    6SAPS   H4R  707   6.096   4.656   9.983 -0.7640 -0.5820  0.0196
    6SAPS   H4S  708   6.154   4.623  10.155 -0.3743 -0.3612  1.0859
    6SAPS   C25  709   6.016   4.784  10.147  0.1168 -0.0635  0.2477
    6SAPS   H5R  710   6.000   4.786  10.256 -0.8326 -3.0165  0.2086
    6SAPS   C26  711   5.989   4.894  10.078 -0.5342 -0.1698  0.0135
    6SAPS   H6R  712   5.954   4.987  10.126 -1.3011 -0.8193  0.7404
    6SAPS   C27  713   6.004   4.907   9.930  0.2575 -0.0500 -0.3792
    6SAPS   H7R  714   6.100   4.861   9.898  0.9252  1.3819 -0.4751
    6SAPS   H7S  715   6.012   5.013   9.895 -0.2916 -0.0554 -0.5234
    6SAPS   C28  716   5.894   4.831   9.855 -0.6226 -1.1581 -0.7848
    6SAPS   H8R  717   5.801   4.823   9.914  0.5994 -1.1812  1.1920
    6SAPS   C29  718   5.901   4.773   9.732  0.4395  0.0430  0.6350
    6SAPS   H9R  719   5.808   4.745   9.681  1.0071 -0.0417 -0.3700
    6SAPS  C210  720   6.021   4.765   9.636 -0.0174 -0.7511  0.3737
    6SAPS  H10R  721   6.022   4.665   9.587 -1.3137 -0.5988  0.0171
    6SAPS  H10S  722   6.120   4.775   9.683  1.8199 -0.0091 -3.4179
    6SAPS  C211  723   6.015   4.869   9.524  0.0502 -0.3741  0.0811
    6SAPS  H11R  724   5.958   4.961   9.544  2.2115  0.6241  1.8884
    6SAPS  C212  725   6.078   4.856   9.403 -0.3875  0.2159  0.1503
    6SAPS  H12R  726   6.078   4.948   9.342 -0.2981 -0.6495 -1.1918
    6SAPS  C213  727   6.163   4.736   9.354  0.6681  0.5850 -0.2570
    6SAPS  H13R  728   6.099   4.672   9.290 -0.8147  0.8111  0.9830
    6SAPS  H13S  729   6.180   4.676   9.446 -0.6080 -0.2915 -0.5849
    6SAPS  C214  730   6.296   4.765   9.285  0.7784  0.2764 -0.6551
    6SAPS  H14R  731   6.380   4.785   9.353  1.6293 -0.9511 -1.3157
    6SAPS  C215  732   6.317   4.792   9.157 -0.3240 -0.3060 -0.4346
    6SAPS  H15R  733   6.419   4.813   9.122  0.1105 -1.0133  0.3799
    6SAPS  C216  734   6.209   4.789   9.058  0.1869 -0.2636 -0.3326
    6SAPS  H16R  735   6.217   4.882   8.998 -0.6658 -0.4563 -0.7491
    6SAPS  H16S  736   6.103   4.787   9.091 -0.3546 -0.4033 -2.0119
    6SAPS  C217  737   6.210   4.667   8.958  0.3235 -0.0476  0.3936
    6SAPS  H17R  738   6.210   4.572   9.016  1.8134  1.0920  2.3111
    6SAPS  H17S  739   6.308   4.679   8.906 -0.0857  2.0216  0.0803
    6SAPS  C218  740   6.111   4.665   8.848  0.0773  0.2159  0.0123
    6SAPS  H18R  741   6.117   4.751   8.777 -0.4300  1.1643  1.0919
    6SAPS  H18S  742   6.012   4.668   8.898  1.2050  0.0792  2.2732
    6SAPS  C219  743   6.136   4.539   8.760  0.3890 -0.3917  0.2863
    6SAPS  H19R  744   6.056   4.528   8.684  1.0034 -2.1382 -0.1287
    6SAPS  H19S  745   6.136   4.446   8.820 -1.1626 -0.0314  0.8703
    6SAPS  C220  746   6.265   4.550   8.688  0.4414 -0.6668 -0.3826
    6SAPS  H20R  747   6.286   4.459   8.629  0.1137  0.2059 -1.8798
    6SAPS  H20S  748   6.354   4.559   8.753 -0.2617  2.4371  0.2392
    6SAPS  H20T  749   6.273   4.639   8.622  1.4465  1.0227  1.9369
    6SAPS   C33  750   5.070   4.210  10.476  0.2792  0.5321 -0.0494
    6SAPS   H3X  751   5.058   4.285  10.557 -0.7575  2.0215 -1.5276
    6SAPS   H3Y  752   4.993   4.134  10.498  0.5686  0.0548 -0.6818
    6SAPS   C34  753   5.025   4.272  10.345 -0.1635 -0.4588  0.3500
    6SAPS   H4X  754   5.078   4.367  10.325  3.1898 -2.7122 -1.9933
    6SAPS   H4Y  755   4.920   4.307  10.360 -0.0071 -0.3835  1.3090
    6SAPS   C35  756   5.027   4.167  10.228  0.3129  0.0349  0.2932
    6SAPS   H5X  757   5.130   4.133  10.205  0.3152  1.0936 -1.3320
    6SAPS   H5Y  758   4.993   4.225  10.140  1.1793 -1.2610 -0.9045
    6SAPS   C36  759   4.918   4.060  10.242 -0.7123 -0.5175  0.4777
    6SAPS   H6X  760   4.822   4.108  10.271 -1.7387 -1.2029 -1.7044
    6SAPS   H6Y  761   4.938   3.979  10.314 -2.1936  0.7523  2.3758
    6SAPS   C37  762   4.892   3.987  10.109  0.3917 -0.2569  0.0424
    6SAPS   H7X  763   4.903   4.064  10.030 -1.7794  0.3159  0.2791
    6SAPS   H7Y  764   4.787   3.953  10.117  0.4408 -0.3604  0.2283
    6SAPS   C38  765   4.982   3.864  10.088 -0.4948 -0.3508 -0.6206
    6SAPS   H8X  766   4.979   3.795  10.175  1.9045 -2.1741 -1.9258
    6SAPS   H8Y  767   5.084   3.906  10.100 -1.1415  1.6911 -1.8561
    6SAPS   C39  768   4.973   3.795   9.953 -0.2431 -0.5077 -0.1594
    6SAPS   H9X  769   4.867   3.762   9.941 -0.2968 -0.7170  0.8601
    6SAPS   H9Y  770   5.041   3.709   9.965 -0.1150 -0.1679  1.6004
    6SAPS  C310  771   5.018   3.891   9.843  0.6468 -0.5282 -0.9835
    6SAPS  H10X  772   5.113   3.946   9.860  1.3233 -1.0964 -2.8091
    6SAPS  H10Y  773   4.951   3.978   9.829  0.3616 -0.7748 -1.1625
    6SAPS  C311  774   5.035   3.813   9.713  0.1615 -0.4778  0.5607
    6SAPS  H11X  775   4.940   3.758   9.692 -0.0780 -0.2639  1.0868
    6SAPS  H11Y  776   5.114   3.737   9.731  1.1114  1.0489  3.1317
    6SAPS  C312  777   5.063   3.902   9.591 -0.3779  0.0122 -0.1713
    6SAPS  H12X  778   5.167   3.927   9.620 -0.6321  1.2201 -0.2796
    6SAPS  H12Y  779   4.994   3.989   9.591  0.2152  0.4922  0.6074
    6SAPS  C313  780   5.054   3.845   9.452  0.2943  0.1293 -0.1821
    6SAPS  H13X  781   4.951   3.806   9.435  1.0616 -2.1305  0.1061
    6SAPS  H13Y  782   5.125   3.760   9.440  2.0594  1.2772  1.7460
    6SAPS  C314  783   5.081   3.965   9.362 -0.4663 -0.1515 -0.4776
    6SAPS  H14X  784   5.183   4.009   9.373 -0.5859  0.0026  0.0687
    6SAPS  H14Y  785   5.020   4.056   9.381 -0.2703 -0.1483  0.1611
    6SAPS  C315  786   5.071   3.937   9.212 -0.5689 -0.0816  0.5067
    6SAPS  H15X  787   4.969   3.900   9.186 -0.8019  1.5322 -0.9498
    6SAPS  H15Y  788   5.146   3.860   9.182 -1.0689 -1.0706  1.7423
    6SAPS  C316  789   5.096   4.056   9.117 -0.2968  0.3936  0.1302
    6SAPS  H16X  790   5.199   4.096   9.127  0.4156 -1.3735 -0.1015
    6SAPS  H16Y  791   5.022   4.133   9.150  0.5444  0.6522  1.4922
    6SAPS  C317  792   5.070   4.036   8.968  0.1179  0.1868 -0.2792
    6SAPS  H17X  793   4.963   4.009   8.952 -0.0219  2.1907 -3.2239
    6SAPS  H17Y  794   5.125   3.948   8.930  1.4672  0.2168  1.5373
    6SAPS  C318  795   5.117   4.156   8.886  0.5482 -0.1314 -0.2668
    6SAPS  H18X  796   5.228   4.160   8.894  0.5328  1.0989 -0.6583
    6SAPS  H18Y  797   5.066   4.246   8.925  1.2855 -0.5222  1.6561
    6SAPS  H18Z  798   5.094   4.141   8.779  3.2377 -0.5212 -0.8199
    7SAPS     N  799   0.747   5.174  11.063 -0.4964 -0.0514  0.4692
    7SAPS   HN1  800   0.675   5.127  11.006 -2.2360  0.3397  2.2854
    7SAPS   HN2  801   0.829   5.110  11.063 -0.0865  0.4611  0.5734
    7SAPS   HN3  802   0.708   5.184  11.159 -1.6860 -1.6193  0.1555
    7SAPS   C12  803   0.765   5.313  11.008 -0.4286 -1.2596 -0.2898
    7SAPS  H12A  804   0.672   5.358  10.976 -0.4631 -1.7260 -0.8630
    7SAPS   C13  805   0.833   5.414  11.111  0.4635 -0.0008 -0.0915
    7SAPS  O13A  806   0.859   5.384  11.231 -0.3916  0.5033 -0.2812
    7SAPS  O13B  807   0.855   5.525  11.068  0.0499  0.4287  0.2716
    7SAPS   C11  808   0.859   5.305  10.882  0.1817  0.0125  0.3199
    7SAPS  H11A  809   0.951   5.252  10.917  0.4144 -1.1693 -1.9763
    7SAPS  H11B  810   0.882   5.411  10.858 -1.5512  0.2930 -0.1924
    7SAPS     P  811   0.698   5.311  10.674  0.0011  0.5501 -0.2505
    7SAPS   O13  812   0.566   5.298  10.731  0.5261 -0.2099 -0.2777
    7SAPS   O14  813   0.746   5.452  10.651  0.1284 -0.0865 -0.4157
    7SAPS   O12  814   0.796   5.239  10.766 -0.0429  0.1937 -0.1042
    7SAPS   O11  815   0.704   5.225  10.546  0.8333 -0.1108 -0.4027
    7SAPS    C1  816   0.831   5.197  10.474 -0.1827  0.6399  0.7198
    7SAPS    HA  817   0.916   5.259  10.511  0.4353  0.8910 -1.0471
    7SAPS    HB  818   0.853   5.088  10.477 -0.9995  0.4598  0.1794
    7SAPS    C2  819   0.807   5.246  10.327  0.4548 -0.0138  0.6227
    7SAPS    HS  820   0.893   5.201  10.272  1.0381  0.8952  0.7765
    7SAPS   O21  821   0.798   5.390  10.312 -0.7661 -0.4155 -0.7341
    7SAPS   C21  822   0.919   5.450  10.286 -0.5227  0.2476 -0.7587
    7SAPS   O22  823   1.021   5.391  10.256 -0.1088  0.2682 -0.1290
    7SAPS   C22  824   0.889   5.599  10.281 -0.3171  0.3457 -0.4623
    7SAPS   H2R  825   0.810   5.614  10.204  1.0923  0.3938 -1.9177
    7SAPS   H2S  826   0.852   5.641  10.377 -0.0007 -1.1218  0.3160
    7SAPS    C3  827   0.677   5.175  10.280 -0.2979 -0.2827  0.0149
    7SAPS    HX  828   0.591   5.218  10.335  1.1043 -0.5859  2.5262
    7SAPS    HY  829   0.674   5.068  10.311  1.5280 -0.1200  0.7990
    7SAPS   O31  830   0.657   5.184  10.142 -0.8855 -0.1304  0.7832
    7SAPS   C31  831   0.621   5.289  10.084 -0.9034  0.0382 -0.5316
    7SAPS   O32  832   0.573   5.384  10.141 -0.4401  0.4235  0.7402
    7SAPS   C32  833   0.613   5.263   9.938  0.1503  0.4819  0.7112
    7SAPS   H2X  834   0.567   5.162   9.933  3.3616 -1.1182  1.9409
    7SAPS   H2Y  835   0.714   5.259   9.892  1.6020 -3.1162  3.8974
    7SAPS   C23  836   1.010   5.678  10.239  0.7175  0.8633  0.6966
    7SAPS   H3R  837   1.036   5.665  10.132  0.0462  1.8018  0.4118
    7SAPS   H3S  838   1.106   5.639  10.278  1.1925  1.8309  0.5198
    7SAPS   C24  839   0.988   5.830  10.269  0.6406  0.6464  0.2732
    7SAPS   H4R  840   0.970   5.845  10.377  4.6142  0.4229  1.0398
    7SAPS   H4S  841   0.900   5.859  10.207  0.7394  0.4047  0.0240
    7SAPS   C25  842   1.116   5.905  10.241 -0.1703 -0.7778  0.2865
    7SAPS   H5R  843   1.176   5.921  10.332 -1.1395  0.1939  0.7681
    7SAPS   C26  844   1.146   5.962  10.122  0.4308 -0.1704 -0.1360
    7SAPS   H6R  845   1.240   6.020  10.121 -0.7409  1.9523  3.4155
    7SAPS   C27  846   1.060   5.963   9.997  0.1672 -0.1480 -0.9342
    7SAPS   H7R  847   0.951   5.950  10.012  0.3675 -0.6227  0.2066
    7SAPS   H7S  848   1.098   5.883   9.931  0.9205  0.5837 -1.4067
    7SAPS   C28  849   1.076   6.089   9.913 -0.5151 -0.0941  0.9856
    7SAPS   H8R  850   0.994   6.159   9.935 -2.4840 -1.4591 -1.8097
    7SAPS   C29  851   1.170   6.117   9.823 -0.1986 -0.3280  0.2919
    7SAPS   H9R  852   1.173   6.217   9.777  0.2831 -0.1963  0.6004
    7SAPS  C210  853   1.289   6.032   9.782 -0.5929  0.0070  0.3916
    7SAPS  H10R  854   1.282   5.938   9.840  1.2684  0.5289  1.5001
    7SAPS  H10S  855   1.383   6.073   9.825 -0.5423 -0.5696  0.8367
    7SAPS  C211  856   1.302   6.000   9.638  0.2781 -0.1553 -0.3469
    7SAPS  H11R  857   1.376   6.055   9.578 -0.3119  1.2744  0.2149
    7SAPS  C212  858   1.239   5.898   9.572 -0.9257 -0.6899  0.3110
    7SAPS  H12R  859   1.263   5.896   9.465 -0.4338 -0.2493  0.4085
    7SAPS  C213  860   1.128   5.811   9.626  0.1891 -0.5343 -1.4288
    7SAPS  H13R  861   1.081   5.856   9.715 -0.3199  0.2742 -2.1023
    7SAPS  H13S  862   1.177   5.717   9.661 -0.8514  0.5473  3.3258
    7SAPS  C214  863   1.014   5.783   9.526  0.0990  0.0660 -1.1690
    7SAPS  H14R  864   1.022   5.691   9.466 -0.4355 -1.1983  0.6592
    7SAPS  C215  865   0.919   5.883   9.497  0.3804  0.2715 -0.0738
    7SAPS  H15R  866   0.848   5.853   9.418 -0.8716 -0.4422  1.2851
    7SAPS  C216  867   0.898   6.018   9.550  0.6535  0.5547 -1.0839
    7SAPS  H16R  868   0.924   6.028   9.657 -0.0263  1.8544 -1.0349
    7SAPS  H16S  869   0.789   6.038   9.544  0.1378 -2.0406 -1.0286
    7SAPS  C217  870   0.967   6.127   9.462  0.6656  0.3321 -0.1243
    7SAPS  H17R  871   1.077   6.118   9.477  0.6642  0.0790 -0.2689
    7SAPS  H17S  872   0.938   6.227   9.501  0.5002 -0.0121  0.6280
    7SAPS  C218  873   0.940   6.119   9.310 -0.1325 -0.0680  0.0617
    7SAPS  H18R  874   1.013   6.044   9.274 -0.8364  0.0679 -1.6712
    7SAPS  H18S  875   0.961   6.214   9.256 -0.2786 -0.4314 -0.6289
    7SAPS  C219  876   0.794   6.088   9.260  0.7669  0.2465 -0.5429
    7SAPS  H19R  877   0.722   6.154   9.312  0.3101 -0.4616 -0.2777
    7SAPS  H19S  878   0.758   5.985   9.279  0.0761  0.7592  1.0227
    7SAPS  C220  879   0.769   6.119   9.111  0.6598 -0.1203 -0.0317
    7SAPS  H20R  880   0.662   6.109   9.083  0.7743 -1.1562 -0.0966
    7SAPS  H20S  881   0.834   6.050   9.053  0.5394  0.4029 -0.8015
    7SAPS  H20T  882   0.793   6.225   9.087  2.0048 -0.2941  0.5463
    7SAPS   C33  883   0.515   5.357   9.869  0.1213 -0.0358 -0.3836
    7SAPS   H3X  884   0.543   5.464   9.879 -3.0803  1.0605 -2.3277
    7SAPS   H3Y  885   0.417   5.337   9.918  1.7260 -3.6476  1.5339
    7SAPS   C34  886   0.495   5.333   9.719  0.3951  0.2141  0.2307
    7SAPS   H4X  887   0.477   5.226   9.698 -0.1997  0.6898 -1.7275
    7SAPS   H4Y  888   0.589   5.362   9.668 -1.3286  1.1667 -2.5017
    7SAPS   C35  889   0.379   5.412   9.659  0.3761  0.1339  0.3714
    7SAPS   H5X  890   0.398   5.522   9.664  0.3138  0.1791 -0.3421
    7SAPS   H5Y  891   0.281   5.396   9.708 -0.5540  0.1169 -1.4443
    7SAPS   C36  892   0.345   5.372   9.513 -1.1867 -0.2601  0.4891
    7SAPS   H6X  893   0.254   5.433   9.493 -1.8413 -1.2621  0.3710
    7SAPS   H6Y  894   0.310   5.266   9.513  2.0415 -1.3812  1.6807
    7SAPS   C37  895   0.451   5.391   9.409  0.1377  1.2635 -0.1750
    7SAPS   H7X  896   0.522   5.312   9.444 -0.6609  1.3654  1.7556
    7SAPS   H7Y  897   0.502   5.489   9.425 -2.5128  2.7631 -0.6141
    7SAPS   C38  898   0.401   5.385   9.263 -0.4098  0.0326 -0.2634
    7SAPS   H8X  899   0.489   5.389   9.195 -0.4102  0.8006 -0.2271
    7SAPS   H8Y  900   0.337   5.474   9.245 -0.1920  0.9882  3.3306
    7SAPS   C39  901   0.329   5.258   9.228 -0.3794 -0.4186 -0.4610
    7SAPS   H9X  902   0.233   5.255   9.283  0.0367  3.2191  0.6086
    7SAPS   H9Y  903   0.399   5.179   9.264  1.5291  1.8229  0.9045
    7SAPS  C310  904   0.313   5.241   9.075  0.7414 -0.0992 -0.0291
    7SAPS  H10X  905   0.283   5.136   9.056 -0.9543  0.5167 -0.8450
    7SAPS  H10Y  906   0.409   5.258   9.022  1.8443 -1.5089  1.4854
    7SAPS  C311  907   0.207   5.333   9.021 -0.2253 -0.5041 -0.3104
    7SAPS  H11X  908   0.216   5.440   9.049  1.2837 -1.6278  3.8006
    7SAPS  H11Y  909   0.107   5.304   9.061 -0.3082  1.4276  0.8977
    7SAPS  C312  910   0.195   5.319   8.861  0.7341 -0.1800  0.3025
    7SAPS  H12X  911   0.169   5.217   8.825  2.5779 -0.3632 -0.5533
    7SAPS  H12Y  912   0.294   5.346   8.819  1.0516  0.8190  1.6449
    7SAPS  C313  913   0.084   5.415   8.802 -0.1877  0.2669 -0.5851
    7SAPS  H13X  914   0.110   5.520   8.826  0.6940 -0.1837  0.5009
    7SAPS  H13Y  915  -0.005   5.395   8.865 -0.6107 -0.6316 -1.4566
    7SAPS  C314  916   0.054   5.392   8.662 -0.9517  0.0503  0.9972
    7SAPS  H14X  917   0.072   5.290   8.622  2.0536  1.2834 -0.9962
    7SAPS  H14Y  918   0.120   5.451   8.595  0.7438 -2.5911  0.2555
    7SAPS  C315  919  -0.094   5.421   8.640 -0.0751  0.0171  0.0885
    7SAPS  H15X  920  -0.117   5.528   8.657 -0.2858  0.1555 -1.0644
    7SAPS  H15Y  921  -0.145   5.356   8.715  1.1992 -0.7489  0.3122
    7SAPS  C316  922  -0.139   5.382   8.496 -0.4486 -0.9519  0.2635
    7SAPS  H16X  923  -0.078   5.429   8.417  0.1684  0.2176  1.4333
    7SAPS  H16Y  924  -0.240   5.427   8.481 -0.1868  0.2122  1.9222
    7SAPS  C317  925  -0.141   5.229   8.474  0.2828  0.1250 -1.1150
    7SAPS  H17X  926  -0.185   5.179   8.563  2.1985  1.2558  0.4984
    7SAPS  H17Y  927  -0.039   5.188   8.460 -0.3585 -1.7337 -0.5380
    7SAPS  C318  928  -0.218   5.182   8.354  0.4491 -0.6221 -0.1706
    7SAPS  H18X  929  -0.212   5.072   8.336 -2.4912 -0.7919 -0.3694
    7SAPS  H18Y  930  -0.189   5.236   8.261  3.5395  0.1817  1.1996
    7SAPS  H18Z  931  -0.324   5.211   8.373  0.7290  0.8257 -0.7538
    8SAPS     N  932   5.541   6.230  11.352 -0.5927  0.5132  0.3545
    8SAPS   HN1  933   5.621   6.277  11.400 -0.8574 -2.9126  4.5183
    8SAPS   HN2  934   5.555   6.241  11.250  1.7577  1.7868  0.7791
    8SAPS   HN3  935   5.464   6.289  11.387 -0.7148  0.0157  0.9439
    8SAPS   C12  936   5.511   6.091  11.389 -0.0936 -0.0457  0.5987
    8SAPS  H12A  937   5.576   6.017  11.347 -1.4892 -2.5478  2.7053
    8SAPS   C13  938   5.511   6.072  11.544 -0.4879 -0.2064 -0.3138
    8SAPS  O13A  939   5.531   6.171  11.617  0.2169 -0.5219 -0.8651
    8SAPS  O13B  940   5.481   5.961  11.595 -0.0814 -0.4307  0.1645
    8SAPS   C11  941   5.363   6.059  11.340  0.4563  0.3870 -0.8466
    8SAPS  H11A  942   5.307   6.148  11.375  1.0451  0.3673  0.1713
    8SAPS  H11B  943   5.341   5.960  11.386  0.0753  0.6598 -0.4366
    8SAPS     P  944   5.197   6.038  11.145  0.3632  0.2550 -0.0896
    8SAPS   O13  945   5.164   5.895  11.150 -0.0948 -0.0562 -1.1894
    8SAPS   O14  946   5.107   6.129  11.224  0.5990  0.1908 -0.3534
    8SAPS   O12  947   5.349   6.053  11.198  0.2936 -0.9462 -0.5048
    8SAPS   O11  948   5.201   6.090  10.997 -0.0592 -0.8980 -0.4767
    8SAPS    C1  949   5.285   6.190  10.943 -1.0681  0.1851 -0.5774
    8SAPS    HA  950   5.317   6.263  11.021  1.0799 -1.0770 -0.2377
    8SAPS    HB  951   5.369   6.147  10.885  0.1313  0.0361  1.2217
    8SAPS    C2  952   5.222   6.271  10.828 -0.1524 -0.3844 -0.3583
    8SAPS    HS  953   5.143   6.327  10.882  0.0407 -0.0353 -0.4399
    8SAPS   O21  954   5.176   6.192  10.722 -0.7148 -0.2872 -0.2434
    8SAPS   C21  955   5.045   6.194  10.696 -0.1300 -0.2095  0.2690
    8SAPS   O22  956   4.963   6.269  10.749 -0.2081  0.2249 -0.3427
    8SAPS   C22  957   5.013   6.110  10.574 -0.2265 -0.4308  0.2994
    8SAPS   H2R  958   5.110   6.088  10.526  0.1524 -0.2564  0.9766
    8SAPS   H2S  959   4.961   6.019  10.611  0.2567  0.0371  2.1967
    8SAPS    C3  960   5.316   6.380  10.774  0.2372 -0.3979  0.1351
    8SAPS    HX  961   5.404   6.334  10.726  0.9270  0.5787  0.4569
    8SAPS    HY  962   5.353   6.448  10.854  2.2111 -0.8214 -0.4068
    8SAPS   O31  963   5.258   6.460  10.670  0.0876 -0.0184  0.7644
    8SAPS   C31  964   5.166   6.549  10.705  0.1981  0.1074  0.2244
    8SAPS   O32  965   5.128   6.572  10.818  0.4811  0.3065  0.5416
    8SAPS   C32  966   5.119   6.627  10.579 -0.2203  0.8494 -0.8810
    8SAPS   H2X  967   5.169   6.582  10.491 -0.6013 -0.9130 -0.2076
    8SAPS   H2Y  968   5.166   6.727  10.595  0.3756  0.3551  0.5775
    8SAPS   C23  969   4.941   6.202  10.468  0.1694  0.3521 -0.4402
    8SAPS   H3R  970   5.019   6.273  10.433 -0.0398 -0.2049 -2.0531
    8SAPS   H3S  971   4.859   6.261  10.513  0.2716  0.7503 -0.7767
    8SAPS   C24  972   4.886   6.133  10.342 -0.3453 -0.8705  0.4556
    8SAPS   H4R  973   4.781   6.101  10.358 -1.4540  1.5623 -1.5564
    8SAPS   H4S  974   4.950   6.043  10.331 -1.1288 -1.2161 -1.6308
    8SAPS   C25  975   4.897   6.229  10.221 -0.0900  0.5305 -0.1812
    8SAPS   H5R  976   4.860   6.331  10.237  0.4437  0.6117  0.5806
    8SAPS   C26  977   4.944   6.194  10.098 -0.3699  0.2982  0.1324
    8SAPS   H6R  978   4.953   6.275  10.025 -1.0435  0.2901  0.0394
    8SAPS   C27  979   4.983   6.058  10.050  0.8864 -0.3387 -0.3954
    8SAPS   H7R  980   4.957   5.977  10.121 -0.4218 -0.6576 -1.2232
    8SAPS   H7S  981   5.093   6.062  10.033  1.0490  0.4320  0.7533
    8SAPS   C28  982   4.907   6.024   9.923 -0.1139  0.5442  0.2614
    8SAPS   H8R  983   4.798   6.022   9.936 -0.1127 -1.1557  0.1677
    8SAPS   C29  984   4.956   5.989   9.808 -0.0248  0.1297  0.8177
    8SAPS   H9R  985   4.885   5.968   9.727  2.4662  1.6248 -1.8837
    8SAPS  C210  986   5.106   5.978   9.783 -0.5108  0.7137 -0.0257
    8SAPS  H10R  987   5.157   5.901   9.845  0.9306  1.2555 -0.4971
    8SAPS  H10S  988   5.156   6.073   9.812  1.1991 -0.3273  0.5248
    8SAPS  C211  989   5.150   5.958   9.641 -0.8172  0.2870  0.2693
    8SAPS  H11R  990   5.089   6.018   9.572  1.6028  2.9728  0.4016
    8SAPS  C212  991   5.259   5.886   9.596 -0.2493 -0.0328  0.8316
    8SAPS  H12R  992   5.265   5.881   9.486  1.6759  0.7261  0.8835
    8SAPS  C213  993   5.361   5.807   9.668  0.1884  0.6534  0.3583
    8SAPS  H13R  994   5.378   5.846   9.771 -0.6384  2.7965 -0.2765
    8SAPS  H13S  995   5.461   5.825   9.621  0.2927 -1.9276 -0.4837
    8SAPS  C214  996   5.339   5.657   9.665 -0.3057  0.4420  0.3770
    8SAPS  H14R  997   5.282   5.619   9.579  0.3831 -1.6850  0.8297
    8SAPS  C215  998   5.400   5.572   9.748 -0.4634 -0.7035 -0.0819
    8SAPS  H15R  999   5.389   5.468   9.715  0.1038  0.0909 -2.9227
    8SAPS  C216 1000   5.504   5.598   9.849 -0.0740  0.2373 -0.4159
    8SAPS  H16R 1001   5.541   5.701   9.833  1.6875 -0.1123  1.2984
    8SAPS  H16S 1002   5.585   5.524   9.836  0.5068  0.4291  1.8551
    8SAPS  C217 1003   5.465   5.571   9.997  0.2070 -0.1151 -0.6209
    8SAPS  H17R 1004   5.560   5.578  10.055 -0.3680  0.3112  0.2926
    8SAPS  H17S 1005   5.431   5.466  10.009  1.5598 -0.3162  1.7257
    8SAPS  C218 1006   5.363   5.666  10.057  0.3481  0.3584 -0.0808
    8SAPS  H18R 1007   5.313   5.626  10.148 -1.5115 -1.8372 -2.0067
    8SAPS  H18S 1008   5.287   5.685   9.979  2.5250  0.1862 -2.3013
    8SAPS  C219 1009   5.420   5.795  10.105  0.2088  0.1337  0.2825
    8SAPS  H19R 1010   5.452   5.853  10.015 -0.4662  0.0414 -0.0193
    8SAPS  H19S 1011   5.506   5.792  10.175  1.0415 -0.7646 -0.7696
    8SAPS  C220 1012   5.304   5.877  10.154 -0.0694  0.0016 -1.0542
    8SAPS  H20R 1013   5.327   5.985  10.163  0.0536 -0.0966 -0.1371
    8SAPS  H20S 1014   5.265   5.834  10.249 -0.8477 -1.0246 -1.8290
    8SAPS  H20T 1015   5.212   5.872  10.093 -0.1489  2.4628 -1.1773
    8SAPS   C33 1016   4.964   6.649  10.567  0.4165  0.0529 -0.3966
    8SAPS   H3X 1017   4.941   6.729  10.641 -0.6493 -1.6575  1.1833
    8SAPS   H3Y 1018   4.910   6.555  10.595 -2.8658  1.7442 -0.7579
    8SAPS   C34 1019   4.916   6.697  10.427  0.3726  0.7436  0.2863
    8SAPS   H4X 1020   4.975   6.633  10.358 -0.6296 -0.3457  0.4224
    8SAPS   H4Y 1021   4.945   6.804  10.419  1.7805  0.2694 -1.1551
    8SAPS   C35 1022   4.767   6.670  10.410 -0.0396  0.0495  0.3815
    8SAPS   H5X 1023   4.697   6.705  10.488  1.5875 -0.1445  1.9393
    8SAPS   H5Y 1024   4.752   6.560  10.398  1.3193 -0.0343 -0.5979
    8SAPS   C36 1025   4.696   6.737  10.288 -0.3591 -0.1326 -1.0084
    8SAPS   H6X 1026   4.723   6.681  10.195  1.2320  3.8608 -3.0765
    8SAPS   H6Y 1027   4.740   6.838  10.281  0.9751 -0.5868  0.6051
    8SAPS   C37 1028   4.545   6.763  10.304  0.0079 -0.2394  0.3558
    8SAPS   H7X 1029   4.542   6.803  10.407  0.6518  3.3681 -0.9427
    8SAPS   H7Y 1030   4.482   6.671  10.299  2.0090 -1.6283 -0.2242
    8SAPS   C38 1031   4.500   6.845  10.183 -0.2532 -0.2018 -0.0134
    8SAPS   H8X 1032   4.569   6.929  10.161  0.2677 -0.0213  2.1829
    8SAPS   H8Y 1033   4.400   6.890  10.202 -0.8938 -1.9408  0.8690
    8SAPS   C39 1034   4.478   6.759  10.052  0.1670 -0.4381  0.1602
    8SAPS   H9X 1035   4.409   6.676  10.079 -1.9119  1.4925  0.9661
    8SAPS   H9Y 1036   4.580   6.725  10.025  0.1793 -0.6121  0.4323
    8SAPS  C310 1037   4.421   6.842   9.933 -0.5280  0.1362 -1.0326
    8SAPS  H10X 1038   4.491   6.928   9.934 -2.7288  1.9705 -0.3155
    8SAPS  H10Y 1039   4.320   6.883   9.955  0.2493  2.0805 -0.9727
    8SAPS  C311 1040   4.432   6.764   9.801 -0.3039 -0.2375 -0.5382
    8SAPS  H11X 1041   4.363   6.677   9.802 -0.1787 -0.3452  1.0034
    8SAPS  H11Y 1042   4.537   6.730   9.786 -0.9797 -2.4330 -0.3083
    8SAPS  C312 1043   4.406   6.864   9.678  0.5398  0.3573 -0.6086
    8SAPS  H12X 1044   4.497   6.926   9.663  0.8732  0.3952  1.4191
    8SAPS  H12Y 1045   4.324   6.932   9.708 -1.5607 -2.2983 -0.1520
    8SAPS  C313 1046   4.359   6.789   9.549  0.5955 -0.6318 -0.2058
    8SAPS  H13X 1047   4.316   6.870   9.486 -0.4926  0.6662  2.1657
    8SAPS  H13Y 1048   4.268   6.735   9.580  0.2995  1.3242  2.4940
    8SAPS  C314 1049   4.462   6.709   9.476 -0.6586 -0.5820 -0.0815
    8SAPS  H14X 1050   4.491   6.633   9.551 -4.9812 -2.0197  0.2611
    8SAPS  H14Y 1051   4.549   6.770   9.441 -0.1355 -1.8975 -1.1011
    8SAPS  C315 1052   4.401   6.643   9.360  0.0172 -0.3865  0.6290
    8SAPS  H15X 1053   4.299   6.606   9.386  0.9458 -2.5604  1.2950
    8SAPS  H15Y 1054   4.461   6.550   9.350  0.8269  0.2667 -0.6927
    8SAPS  C316 1055   4.412   6.709   9.226 -0.1772 -0.3898  0.2217
    8SAPS  H16X 1056   4.514   6.744   9.196 -0.1799  1.0853  1.8677
    8SAPS  H16Y 1057   4.348   6.800   9.225 -0.1218 -0.2462  4.2034
    8SAPS  C317 1058   4.357   6.634   9.111  0.2420 -0.0339  0.3386
    8SAPS  H17X 1059   4.251   6.601   9.123 -0.2075  1.1259 -0.3904
    8SAPS  H17Y 1060   4.425   6.546   9.111 -0.9810 -0.9935 -0.2504
    8SAPS  C318 1061   4.364   6.696   8.972 -0.5682 -0.2779  1.3189
    8SAPS  H18X 1062   4.330   6.626   8.892  2.2147  2.0037 -2.0185
    8SAPS  H18Y 1063   4.464   6.725   8.935 -1.0338  1.3079  1.2613
    8SAPS  H18Z 1064   4.307   6.791   8.971 -1.4610 -0.8080  0.9760
    9SAPS     N 1065   0.344   2.367   6.511 -0.3718 -0.0263  0.7464
    9SAPS   HN1 1066   0.257   2.318   6.542 -0.8556  0.3676  0.0357
    9SAPS   HN2 1067   0.398   2.404   6.591 -1.2009  1.2009  0.7428
    9SAPS   HN3 1068   0.314   2.446   6.451 -2.1026 -0.8553  0.4646
    9SAPS   C12 1069   0.440   2.267   6.435  0.0487 -0.3448 -0.1152
    9SAPS  H12A 1070   0.474   2.208   6.518  0.6258 -1.3203 -1.0399
    9SAPS   C13 1071   0.372   2.171   6.335  0.4415 -0.2793 -0.9785
    9SAPS  O13A 1072   0.250   2.180   6.324 -0.4590 -0.0825  0.2568
    9SAPS  O13B 1073   0.449   2.078   6.287  0.7947  0.2672  0.3408
    9SAPS   C11 1074   0.550   2.342   6.360 -0.9128  0.4367  0.2709
    9SAPS  H11A 1075   0.502   2.389   6.271 -1.3261 -1.0555 -0.2966
    9SAPS  H11B 1076   0.635   2.280   6.323 -1.1519 -0.3351  1.0065
    9SAPS     P 1077   0.743   2.523   6.401 -0.1512 -0.1385 -0.3927
    9SAPS   O13 1078   0.747   2.516   6.257 -0.1877  0.0956  0.6608
    9SAPS   O14 1079   0.742   2.656   6.456 -0.5925 -0.1303 -0.7962
    9SAPS   O12 1080   0.609   2.446   6.445 -0.1604 -0.1861  0.3637
    9SAPS   O11 1081   0.859   2.436   6.475 -0.2267  0.2688 -0.2628
    9SAPS    C1 1082   0.844   2.353   6.590 -0.0158 -0.2126 -0.1554
    9SAPS    HA 1083   0.748   2.298   6.598  0.2325 -0.4487  1.4748
    9SAPS    HB 1084   0.923   2.275   6.599 -0.7523 -0.7403  2.0658
    9SAPS    C2 1085   0.865   2.443   6.713  0.1066  0.2087  0.0430
    9SAPS    HS 1086   0.803   2.536   6.708  1.0420  1.1265  3.9732
    9SAPS   O21 1087   1.009   2.468   6.705 -0.3893  0.1258  0.1855
    9SAPS   C21 1088   1.041   2.585   6.750 -0.3025 -1.2275 -0.7146
    9SAPS   O22 1089   0.958   2.671   6.786  0.4581  0.3282 -0.5780
    9SAPS   C22 1090   1.189   2.602   6.760  0.4157 -0.3127 -0.3471
    9SAPS   H2R 1091   1.239   2.533   6.689  0.5683  0.9121 -1.4497
    9SAPS   H2S 1092   1.219   2.705   6.729  0.8490  0.3890  2.2719
    9SAPS    C3 1093   0.825   2.369   6.841 -0.0275 -0.1972  0.6723
    9SAPS    HX 1094   0.878   2.271   6.846  1.7069  0.6844 -0.3670
    9SAPS    HY 1095   0.719   2.335   6.843 -0.0720 -0.3066 -1.6739
    9SAPS   O31 1096   0.857   2.456   6.956  0.0541 -0.7212  0.5192
    9SAPS   C31 1097   0.762   2.532   6.993 -0.4041 -1.0772 -0.6561
    9SAPS   O32 1098   0.646   2.523   6.953 -0.2870 -0.3078  0.0263
    9SAPS   C32 1099   0.809   2.639   7.089  0.3454 -0.0911  1.3855
    9SAPS   H2X 1100   0.914   2.670   7.068 -0.2752  1.8518  1.0454
    9SAPS   H2Y 1101   0.808   2.590   7.189  0.3440  0.0414  1.4517
    9SAPS   C23 1102   1.237   2.595   6.904  0.3491  0.1157  0.4581
    9SAPS   H3R 1103   1.175   2.665   6.963 -0.6909 -1.5225  1.3211
    9SAPS   H3S 1104   1.342   2.631   6.906 -0.5875  2.8930  0.9869
    9SAPS   C24 1105   1.228   2.444   6.954  0.3306 -0.0982  0.0325
    9SAPS   H4R 1106   1.293   2.383   6.888  1.3697 -0.0481  0.9874
    9SAPS   H4S 1107   1.125   2.402   6.951 -0.4667  1.9314 -2.3654
    9SAPS   C25 1108   1.290   2.448   7.086 -0.2791 -0.1809 -0.3994
    9SAPS   H5R 1109   1.395   2.415   7.086 -0.2174 -0.0037  0.3802
    9SAPS   C26 1110   1.227   2.478   7.203  0.2319 -0.2227 -0.9375
    9SAPS   H6R 1111   1.288   2.473   7.294 -0.0942  1.8678 -0.5921
    9SAPS   C27 1112   1.081   2.502   7.218  0.2020 -0.4171  0.8706
    9SAPS   H7R 1113   1.024   2.484   7.124 -0.1129 -0.5450  1.0856
    9SAPS   H7S 1114   1.072   2.609   7.246 -1.3988 -0.5321  0.8130
    9SAPS   C28 1115   1.010   2.428   7.330  0.4076  0.1587  0.2618
    9SAPS   H8R 1116   0.957   2.336   7.303  1.1685  0.2791 -1.7675
    9SAPS   C29 1117   1.012   2.462   7.464 -0.8014  0.6170  1.0385
    9SAPS   H9R 1118   0.950   2.400   7.531 -1.9639  1.3945  0.6851
    9SAPS  C210 1119   1.086   2.577   7.520  0.4241 -0.1592  0.5218
    9SAPS  H10R 1120   1.049   2.676   7.486 -0.6948 -0.2715  1.3628
    9SAPS  H10S 1121   1.194   2.562   7.501  0.3684 -0.9496  0.8127
    9SAPS  C211 1122   1.070   2.586   7.671  0.3878 -0.0960 -0.0740
    9SAPS  H11R 1123   0.996   2.663   7.699 -1.5440 -1.9649  0.1468
    9SAPS  C212 1124   1.128   2.508   7.763 -0.1532 -0.8252  0.1567
    9SAPS  H12R 1125   1.100   2.513   7.870 -0.4186 -1.7016  0.1364
    9SAPS  C213 1126   1.211   2.387   7.733 -0.7364  0.2910 -0.8565
    9SAPS  H13R 1127   1.315   2.426   7.730 -0.7131  0.3371  0.2477
    9SAPS  H13S 1128   1.199   2.356   7.627  2.0354 -0.3147 -1.0576
    9SAPS  C214 1129   1.194   2.269   7.830 -0.1818  0.3773  0.1804
    9SAPS  H14R 1130   1.119   2.275   7.910 -1.3153  4.5532 -1.0344
    9SAPS  C215 1131   1.262   2.153   7.803  1.0062 -1.0126 -0.3441
    9SAPS  H15R 1132   1.223   2.060   7.849  1.2526 -0.9280  0.0401
    9SAPS  C216 1133   1.363   2.131   7.689 -0.5060 -0.0149 -0.7426
    9SAPS  H16R 1134   1.336   2.194   7.601 -0.3073  1.1974  0.0558
    9SAPS  H16S 1135   1.356   2.026   7.654  2.6918 -0.3320 -0.5252
    9SAPS  C217 1136   1.507   2.141   7.728 -0.0612  0.6351  0.8825
    9SAPS  H17R 1137   1.521   2.079   7.820 -1.4416 -1.4306 -0.2630
    9SAPS  H17S 1138   1.541   2.244   7.752 -1.1026  0.8173  1.6396
    9SAPS  C218 1139   1.614   2.098   7.629  0.0363 -0.1183 -0.4377
    9SAPS  H18R 1140   1.603   1.988   7.619 -1.9413 -0.1460  1.7333
    9SAPS  H18S 1141   1.714   2.105   7.677 -0.1186  0.5607 -0.2009
    9SAPS  C219 1142   1.619   2.168   7.498 -0.3350 -0.2127  0.6531
    9SAPS  H19R 1143   1.686   2.256   7.513  2.1087 -1.6689 -1.1695
    9SAPS  H19S 1144   1.516   2.204   7.479 -0.7978 -1.6650  0.4020
    9SAPS  C220 1145   1.665   2.079   7.381  0.1449  0.1174  0.0053
    9SAPS  H20R 1146   1.684   2.130   7.284 -0.5424  1.0786  0.3726
    9SAPS  H20S 1147   1.610   1.985   7.355 -0.4944 -0.0899  2.0685
    9SAPS  H20T 1148   1.766   2.054   7.420  0.3177  0.5081 -0.1901
    9SAPS   C33 1149   0.708   2.765   7.090 -0.6339  0.5404 -0.3502
    9SAPS   H3X 1150   0.604   2.724   7.088 -0.5648  0.3533 -0.1118
    9SAPS   H3Y 1151   0.701   2.818   6.993  1.1106  0.9796 -0.2440
    9SAPS   C34 1152   0.728   2.859   7.203  0.6367 -0.2633 -0.3646
    9SAPS   H4X 1153   0.634   2.918   7.208  0.0416 -1.2578  0.4354
    9SAPS   H4Y 1154   0.792   2.948   7.186 -0.6791  1.1326  1.7736
    9SAPS   C35 1155   0.770   2.802   7.340  0.3800  0.9542  0.0421
    9SAPS   H5X 1156   0.875   2.770   7.321  0.6008  0.9963  1.1602
    9SAPS   H5Y 1157   0.706   2.711   7.345  0.8494  0.7050  1.7336
    9SAPS   C36 1158   0.759   2.897   7.464 -0.1202 -0.5051  0.1662
    9SAPS   H6X 1159   0.660   2.946   7.459  0.9491  1.5881 -1.4476
    9SAPS   H6Y 1160   0.835   2.978   7.461 -0.5185 -0.1154  0.5861
    9SAPS   C37 1161   0.761   2.822   7.595  0.1815  0.3744 -0.0405
    9SAPS   H7X 1162   0.863   2.780   7.604 -1.2859 -3.8786 -1.7782
    9SAPS   H7Y 1163   0.695   2.732   7.592 -1.3157  1.3808  1.3735
    9SAPS   C38 1164   0.720   2.894   7.734 -0.6836 -0.0349 -0.6969
    9SAPS   H8X 1165   0.611   2.917   7.732 -1.1905 -2.3561 -1.0136
    9SAPS   H8Y 1166   0.778   2.989   7.730  0.6182 -0.8522 -1.9153
    9SAPS   C39 1167   0.777   2.830   7.860 -0.6045  0.2443 -0.1728
    9SAPS   H9X 1168   0.888   2.821   7.867 -0.5307  1.5251  0.4695
    9SAPS   H9Y 1169   0.740   2.725   7.854 -3.0820  1.1200 -0.4183
    9SAPS  C310 1170   0.726   2.894   7.988  0.4065 -0.4755  0.2892
    9SAPS  H10X 1171   0.615   2.895   7.981  0.4343  0.8427 -0.0428
    9SAPS  H10Y 1172   0.742   3.003   7.987 -0.6899 -0.3070 -1.9409
    9SAPS  C311 1173   0.771   2.831   8.117  0.7398  0.7930 -0.2923
    9SAPS  H11X 1174   0.874   2.793   8.102  0.3279 -0.4926  0.0447
    9SAPS  H11Y 1175   0.700   2.747   8.134  1.2833  0.6765  1.3733
    9SAPS  C312 1176   0.767   2.912   8.247  0.4054  0.6859 -0.0335
    9SAPS  H12X 1177   0.671   2.966   8.257  0.2340  0.1397  1.5144
    9SAPS  H12Y 1178   0.842   2.992   8.258  1.9212 -0.8005  0.7815
    9SAPS  C313 1179   0.791   2.827   8.372  0.7689  0.0145  0.2141
    9SAPS  H13X 1180   0.856   2.740   8.351 -0.2017 -0.6564 -0.0383
    9SAPS  H13Y 1181   0.693   2.778   8.388  1.1333 -1.4014 -1.7889
    9SAPS  C314 1182   0.846   2.894   8.492 -0.9830  0.2811 -0.7321
    9SAPS  H14X 1183   0.942   2.948   8.475 -0.4555 -1.1290 -2.3845
    9SAPS  H14Y 1184   0.876   2.813   8.562 -0.5932  1.8533  0.9499
    9SAPS  C315 1185   0.749   2.977   8.563  0.2555 -0.2104  0.1033
    9SAPS  H15X 1186   0.780   2.985   8.670 -1.9732 -0.6938  0.8084
    9SAPS  H15Y 1187   0.646   2.941   8.545 -0.7087  2.4811  0.0371
    9SAPS  C316 1188   0.743   3.122   8.508  0.2114 -0.2897  0.0146
    9SAPS  H16X 1189   0.729   3.114   8.398  0.6578  0.4151 -0.0999
    9SAPS  H16Y 1190   0.841   3.170   8.533  1.0068 -1.4354 -0.8297
    9SAPS  C317 1191   0.624   3.199   8.564 -0.1019 -0.8188 -0.0468
    9SAPS  H17X 1192   0.535   3.133   8.577  0.4520 -0.9891  3.2285
    9SAPS  H17Y 1193   0.594   3.269   8.483  2.1302  2.2635  1.6959
    9SAPS  C318 1194   0.654   3.283   8.687 -0.0946  0.3825  0.2575
    9SAPS  H18X 1195   0.683   3.212   8.768 -0.0151  0.6696  0.4817
    9SAPS  H18Y 1196   0.568   3.343   8.722  0.9396  1.9124  0.2534
    9SAPS  H18Z 1197   0.736   3.358   8.683 -0.1898  0.4591 -0.2863
   10SAPS     N 1198   0.782   1.631   6.276 -0.0577 -0.2534 -0.6022
   10SAPS   HN1 1199   0.796   1.669   6.180  1.4047 -0.4098 -0.4723
   10SAPS   HN2 1200   0.691   1.667   6.311 -0.8606 -1.7233 -1.1667
   10SAPS   HN3 1201   0.864   1.665   6.332 -0.8461  0.8436 -0.0924
   10SAPS   C12 1202   0.799   1.484   6.269 -0.0197  0.2226 -0.5140
   10SAPS  H12A 1203   0.722   1.442   6.206 -0.6290 -0.4641  0.6677
   10SAPS   C13 1204   0.943   1.425   6.219  0.1822 -0.1569  0.1830
   10SAPS  O13A 1205   1.032   1.506   6.184 -0.5382 -0.5122 -0.7800
   10SAPS  O13B 1206   0.955   1.303   6.232  0.2953 -0.1918 -0.2539
   10SAPS   C11 1207   0.787   1.426   6.415  0.5564 -0.0182 -0.2137
   10SAPS  H11A 1208   0.868   1.468   6.478  1.8966 -2.0412 -0.5247
   10SAPS  H11B 1209   0.815   1.319   6.402  0.5588 -0.0655  0.1680
   10SAPS     P 1210   0.604   1.543   6.566 -0.1035  0.2107  0.0449
   10SAPS   O13 1211   0.619   1.674   6.498 -0.7054  0.8231  0.6404
   10SAPS   O14 1212   0.472   1.502   6.621  0.4153 -0.1652  0.8822
   10SAPS   O12 1213   0.649   1.425   6.464 -0.4648  0.4486  0.4007
   10SAPS   O11 1214   0.720   1.520   6.672  0.8096  0.9428 -0.2106
   10SAPS    C1 1215   0.719   1.575   6.806  0.2494 -0.6685  0.3730
   10SAPS    HA 1216   0.755   1.679   6.793 -0.1466 -0.4268  1.1804
   10SAPS    HB 1217   0.618   1.581   6.852  0.2622  2.0411  0.1497
   10SAPS    C2 1218   0.810   1.510   6.904 -0.4320  0.5950 -0.0812
   10SAPS    HS 1219   0.773   1.406   6.919  0.7165  0.0317 -1.0851
   10SAPS   O21 1220   0.833   1.590   7.024  0.3126  0.2720 -0.3127
   10SAPS   C21 1221   0.857   1.513   7.131 -0.9427  0.3871 -0.2273
   10SAPS   O22 1222   0.848   1.391   7.133 -0.6750 -0.4956 -0.2638
   10SAPS   C22 1223   0.891   1.602   7.251  0.2970  0.1761  0.4613
   10SAPS   H2R 1224   0.990   1.646   7.229 -0.4262  1.9221  0.6249
   10SAPS   H2S 1225   0.806   1.673   7.258 -1.2744 -1.5631 -0.4983
   10SAPS    C3 1226   0.951   1.477   6.836 -0.3260 -0.1281  0.2395
   10SAPS    HX 1227   0.932   1.417   6.744  0.4321 -0.0477  0.0204
   10SAPS    HY 1228   1.010   1.409   6.901 -1.5589 -1.2742  0.1760
   10SAPS   O31 1229   1.024   1.594   6.799  0.1402 -0.2246  0.1516
   10SAPS   C31 1230   1.094   1.656   6.892 -0.6113 -0.8383 -0.0661
   10SAPS   O32 1231   1.110   1.617   7.008 -0.3013 -0.2757 -0.1645
   10SAPS   C32 1232   1.157   1.785   6.826 -0.1016  0.3808  0.6878
   10SAPS   H2X 1233   1.076   1.819   6.759 -0.6122 -4.1223 -1.1899
   10SAPS   H2Y 1234   1.233   1.743   6.756 -0.2747 -1.6337  1.6598
   10SAPS   C23 1235   0.921   1.518   7.376 -0.8690 -0.6986 -0.1288
   10SAPS   H3R 1236   1.012   1.458   7.352  0.4202  1.5339 -0.9341
   10SAPS   H3S 1237   0.839   1.446   7.398  0.0765 -1.4095  1.1529
   10SAPS   C24 1238   0.956   1.616   7.486 -0.9288 -0.1768 -1.1557
   10SAPS   H4R 1239   0.877   1.692   7.505 -0.7836 -0.6985  1.6117
   10SAPS   H4S 1240   1.045   1.673   7.450 -0.3162 -1.7897 -2.2255
   10SAPS   C25 1241   0.992   1.551   7.614 -0.3426 -0.1606  0.1673
   10SAPS   H5R 1242   1.046   1.456   7.601  0.9714  0.2988  2.0340
   10SAPS   C26 1243   0.954   1.580   7.739 -0.0668 -0.2138 -0.5883
   10SAPS   H6R 1244   0.992   1.511   7.816  1.5484 -0.1142 -1.2590
   10SAPS   C27 1245   0.870   1.699   7.792 -0.2984 -0.1097 -0.2721
   10SAPS   H7R 1246   0.820   1.660   7.883  1.2246 -2.0100 -0.2120
   10SAPS   H7S 1247   0.793   1.728   7.718  1.7830 -0.6843 -2.7673
   10SAPS   C28 1248   0.959   1.818   7.827  0.7049 -0.1040 -0.3839
   10SAPS   H8R 1249   1.025   1.858   7.749  4.1083  1.2250  3.0406
   10SAPS   C29 1250   0.969   1.870   7.949 -0.0698  0.2314  0.4385
   10SAPS   H9R 1251   1.042   1.951   7.960  0.2103  0.0820 -0.2844
   10SAPS  C210 1252   0.907   1.825   8.083 -0.5215 -0.4693  0.4528
   10SAPS  H10R 1253   0.799   1.839   8.060 -0.3322  2.4519  1.0662
   10SAPS  H10S 1254   0.930   1.904   8.158  1.1258 -2.5253  2.1470
   10SAPS  C211 1255   0.951   1.696   8.145  0.1974 -0.6547  0.0110
   10SAPS  H11R 1256   1.030   1.640   8.092  0.0233 -1.7719  0.9214
   10SAPS  C212 1257   0.912   1.651   8.263  0.3215 -0.5697  0.3860
   10SAPS  H12R 1258   0.935   1.547   8.289 -0.5882 -0.9287 -0.2449
   10SAPS  C213 1259   0.818   1.708   8.363  0.6871 -0.9569 -0.1290
   10SAPS  H13R 1260   0.735   1.635   8.374 -0.0092 -0.0164  0.9821
   10SAPS  H13S 1261   0.767   1.796   8.317 -1.0360 -0.5731  2.4197
   10SAPS  C214 1262   0.886   1.751   8.493 -0.0648 -0.5495 -0.1278
   10SAPS  H14R 1263   0.995   1.766   8.483 -0.2960  0.9336 -0.5830
   10SAPS  C215 1264   0.822   1.776   8.619 -0.1675  0.3223  0.1927
   10SAPS  H15R 1265   0.878   1.804   8.709 -0.3306  0.8873  0.1220
   10SAPS  C216 1266   0.676   1.755   8.636  0.1268 -0.2331 -0.1632
   10SAPS  H16R 1267   0.643   1.735   8.741 -1.0216  3.1140  0.1711
   10SAPS  H16S 1268   0.648   1.659   8.587 -1.8764 -0.4287  1.3076
   10SAPS  C217 1269   0.575   1.842   8.561  0.4469 -0.3551 -0.3428
   10SAPS  H17R 1270   0.476   1.793   8.550  0.1546  0.4434 -1.4828
   10SAPS  H17S 1271   0.601   1.856   8.454 -0.6270 -1.1682 -0.7143
   10SAPS  C218 1272   0.559   1.974   8.629  0.1402 -0.1524 -0.1217
   10SAPS  H18R 1273   0.651   2.035   8.638 -1.4538  2.1824  0.8394
   10SAPS  H18S 1274   0.526   1.957   8.734 -1.8367 -1.8729 -0.9884
   10SAPS  C219 1275   0.451   2.055   8.551 -0.5396 -0.3680  0.0222
   10SAPS  H19R 1276   0.360   1.993   8.538  0.4951 -1.8122 -0.5184
   10SAPS  H19S 1277   0.491   2.066   8.448  0.5658  4.1304  0.8429
   10SAPS  C220 1278   0.423   2.192   8.621  0.5561 -1.0263  0.2482
   10SAPS  H20R 1279   0.366   2.257   8.552  3.8624 -0.5825 -2.2395
   10SAPS  H20S 1280   0.517   2.246   8.646  0.4659  0.3788 -2.2348
   10SAPS  H20T 1281   0.377   2.176   8.720 -0.1666 -1.9221 -0.2215
   10SAPS   C33 1282   1.208   1.890   6.923  0.1012  0.1074 -0.1102
   10SAPS   H3X 1283   1.274   1.958   6.865  0.9765 -1.3190 -0.8025
   10SAPS   H3Y 1284   1.282   1.841   6.990  0.7521 -0.9141 -1.5515
   10SAPS   C34 1285   1.094   1.980   6.979  0.2523 -1.0129 -0.4530
   10SAPS   H4X 1286   1.003   1.922   7.006 -1.2531  0.8324 -1.4111
   10SAPS   H4Y 1287   1.059   2.061   6.911 -1.4251 -1.3338  0.0096
   10SAPS   C35 1288   1.130   2.052   7.111  0.2254  0.2971  0.2034
   10SAPS   H5X 1289   1.038   2.110   7.133 -1.3368 -1.0747 -2.4725
   10SAPS   H5Y 1290   1.200   2.134   7.085 -0.7000  0.4173 -2.0246
   10SAPS   C36 1291   1.190   1.960   7.213  0.3104  0.0904  0.1286
   10SAPS   H6X 1292   1.295   1.938   7.185 -0.0935  1.8482 -2.9936
   10SAPS   H6Y 1293   1.141   1.861   7.210 -0.0407  0.2855 -0.6448
   10SAPS   C37 1294   1.185   2.015   7.356 -0.5292  0.6618 -0.4728
   10SAPS   H7X 1295   1.236   2.113   7.374 -1.0661  0.5247  2.0975
   10SAPS   H7Y 1296   1.228   1.948   7.434 -1.2904  0.0786 -0.5500
   10SAPS   C38 1297   1.036   2.034   7.401 -0.2544 -0.1580 -0.9225
   10SAPS   H8X 1298   0.979   1.938   7.395  0.4311 -0.6299 -0.0536
   10SAPS   H8Y 1299   0.984   2.102   7.331  3.4834  2.6030 -1.2029
   10SAPS   C39 1300   1.028   2.097   7.541  0.4344  0.5643  0.3565
   10SAPS   H9X 1301   1.057   2.203   7.525  0.0021  0.9838  2.2654
   10SAPS   H9Y 1302   1.100   2.044   7.607 -0.3584 -0.4132  0.4415
   10SAPS  C310 1303   0.879   2.083   7.593 -1.1830 -1.0487 -0.1711
   10SAPS  H10X 1304   0.863   1.976   7.614 -0.5977 -1.5445 -2.1888
   10SAPS  H10Y 1305   0.811   2.117   7.512  0.5515  0.7387 -0.9402
   10SAPS  C311 1306   0.874   2.163   7.724 -0.0692  0.5767  0.4293
   10SAPS  H11X 1307   0.882   2.273   7.709 -1.2446  0.6097  0.0309
   10SAPS  H11Y 1308   0.957   2.125   7.788  0.0697  1.2548  0.6601
   10SAPS  C312 1309   0.735   2.142   7.790  1.1095  0.1478 -0.2310
   10SAPS  H12X 1310   0.721   2.036   7.818 -0.2988  0.5668  0.7027
   10SAPS  H12Y 1311   0.668   2.159   7.704  0.0937  0.5177  0.6246
   10SAPS  C313 1312   0.692   2.229   7.906 -0.3183 -0.3180  0.2797
   10SAPS  H13X 1313   0.583   2.216   7.921 -0.7418  2.7334  0.1985
   10SAPS  H13Y 1314   0.705   2.335   7.875  0.6215 -0.1689  1.1632
   10SAPS  C314 1315   0.774   2.203   8.023 -0.0998 -0.3530  0.3043
   10SAPS  H14X 1316   0.878   2.234   7.996 -0.7084 -0.1385 -1.8662
   10SAPS  H14Y 1317   0.762   2.098   8.054  0.5857 -0.9948 -1.5253
   10SAPS  C315 1318   0.723   2.293   8.142 -0.1420  0.1019 -0.1525
   10SAPS  H15X 1319   0.615   2.268   8.151 -0.3396  0.3599 -1.6716
   10SAPS  H15Y 1320   0.723   2.402   8.119 -0.8060 -0.1408 -1.3782
   10SAPS  C316 1321   0.797   2.261   8.266  0.3500  0.0152 -0.3448
   10SAPS  H16X 1322   0.898   2.306   8.263  0.4708  0.1395  3.4419
   10SAPS  H16Y 1323   0.801   2.150   8.269 -0.9370 -0.0358  0.0579
   10SAPS  C317 1324   0.742   2.317   8.394  0.0595  0.0897  0.5370
   10SAPS  H17X 1325   0.799   2.265   8.474 -1.3169 -1.4308  0.5773
   10SAPS  H17Y 1326   0.635   2.294   8.413  0.2175 -0.6559  0.5383
   10SAPS  C318 1327   0.762   2.465   8.398 -0.1744  0.0904  0.0412
   10SAPS  H18X 1328   0.758   2.502   8.502 -0.5353  1.6263 -0.5047
   10SAPS  H18Y 1329   0.690   2.514   8.328  0.1114  1.2639  0.5588
   10SAPS  H18Z 1330   0.862   2.495   8.360  0.3655  0.4379  1.7264
   11SAPS     N 1331   3.068   4.648   5.825  0.0742  0.0173  0.1560
   11SAPS   HN1 1332   3.128   4.716   5.876 -1.1088  0.3581  1.1061
   11SAPS   HN2 1333   3.064   4.564   5.886  1.1794  1.0796  1.7351
   11SAPS   HN3 1334   3.108   4.627   5.731 -0.1026  0.6423 -0.0591
   11SAPS   C12 1335   2.935   4.704   5.814 -0.1630  0.3858 -0.1268
   11SAPS  H12A 1336   2.943   4.811   5.806  1.3496  0.0987 -3.1767
   11SAPS   C13 1337   2.846   4.662   5.689 -0.3349  0.4097 -0.2440
   11SAPS  O13A 1338   2.908   4.603   5.595  0.4607  0.1939 -0.1979
   11SAPS  O13B 1339   2.757   4.743   5.662 -0.3719 -0.3534 -0.0262
   11SAPS   C11 1340   2.863   4.663   5.950 -0.1624 -0.7647  0.7192
   11SAPS  H11A 1341   2.861   4.552   5.956  1.0480 -0.8063  0.5413
   11SAPS  H11B 1342   2.763   4.711   5.941 -0.2150 -0.6898  1.6905
   11SAPS     P 1343   2.919   4.856   6.132 -0.1202  0.0067  0.1694
   11SAPS   O13 1344   2.907   4.963   6.030 -0.1740  0.3291 -0.0146
   11SAPS   O14 1345   2.800   4.836   6.216  0.3108  0.2749  0.4669
   11SAPS   O12 1346   2.945   4.718   6.054 -0.4665  0.6712  0.5189
   11SAPS   O11 1347   3.045   4.880   6.230 -0.8789 -0.4938 -0.2666
   11SAPS    C1 1348   3.152   4.778   6.238 -0.0873  0.4883  0.5218
   11SAPS    HA 1349   3.206   4.754   6.143 -0.8860 -2.3784  0.7473
   11SAPS    HB 1350   3.240   4.818   6.293  0.4213 -1.1172  0.8832
   11SAPS    C2 1351   3.106   4.647   6.292  0.1982 -0.9160 -0.7821
   11SAPS    HS 1352   3.031   4.599   6.224 -1.8107 -1.7875  1.9638
   11SAPS   O21 1353   3.042   4.679   6.421 -0.0146  0.7615 -0.0959
   11SAPS   C21 1354   2.958   4.587   6.467 -0.4491  0.4483  0.1578
   11SAPS   O22 1355   2.913   4.487   6.411  0.2796  0.5928 -0.5558
   11SAPS   C22 1356   2.909   4.630   6.605  0.3979  0.0250  0.0620
   11SAPS   H2R 1357   2.949   4.732   6.624  2.5271 -1.2706  2.8171
   11SAPS   H2S 1358   2.798   4.634   6.607  0.3941 -0.5911  3.0963
   11SAPS    C3 1359   3.220   4.549   6.323 -0.2980 -0.3818 -0.0337
   11SAPS    HX 1360   3.254   4.501   6.228 -0.9450  3.0162 -2.0891
   11SAPS    HY 1361   3.172   4.467   6.380  1.6149 -0.4483  1.5423
   11SAPS   O31 1362   3.324   4.617   6.384  0.5898  0.4012 -0.6127
   11SAPS   C31 1363   3.356   4.604   6.507  0.1730  1.6280 -0.7404
   11SAPS   O32 1364   3.309   4.514   6.580 -0.1963  0.2639 -0.2231
   11SAPS   C32 1365   3.467   4.700   6.547 -0.6718 -0.5431  0.0958
   11SAPS   H2X 1366   3.462   4.785   6.476  0.2288 -0.1697  0.4779
   11SAPS   H2Y 1367   3.566   4.651   6.540  0.0458  0.7580  0.9608
   11SAPS   C23 1368   2.964   4.530   6.716 -0.4053  0.3644  0.1855
   11SAPS   H3R 1369   3.068   4.509   6.681 -0.0860  1.2351  0.6098
   11SAPS   H3S 1370   2.911   4.433   6.723  0.7477 -0.5977 -3.1252
   11SAPS   C24 1371   2.977   4.593   6.856  0.1538  0.7419 -0.6504
   11SAPS   H4R 1372   3.039   4.685   6.850 -0.4596  1.0511 -2.5681
   11SAPS   H4S 1373   3.039   4.520   6.911  2.0711  2.1722 -0.8608
   11SAPS   C25 1374   2.849   4.621   6.937 -0.6206  1.0119 -1.0508
   11SAPS   H5R 1375   2.770   4.660   6.871 -3.5077 -2.2669  0.2970
   11SAPS   C26 1376   2.820   4.566   7.061 -0.5350 -0.0274  0.8223
   11SAPS   H6R 1377   2.722   4.589   7.105  0.7078  2.5331  2.3421
   11SAPS   C27 1378   2.907   4.493   7.155 -0.5786  0.9684 -0.2851
   11SAPS   H7R 1379   2.969   4.415   7.104  0.5079 -1.5248  4.5463
   11SAPS   H7S 1380   2.850   4.434   7.230 -0.3505  2.0630  0.7680
   11SAPS   C28 1381   2.993   4.588   7.236  0.8930  0.2592  0.0567
   11SAPS   H8R 1382   3.092   4.610   7.193  0.8927 -0.0355 -0.1028
   11SAPS   C29 1383   2.971   4.632   7.364 -0.3957 -0.2338  0.4917
   11SAPS   H9R 1384   3.040   4.710   7.400 -2.9622  3.4658 -2.2825
   11SAPS  C210 1385   2.848   4.605   7.457  0.0336  0.5108 -0.1389
   11SAPS  H10R 1386   2.778   4.547   7.394  1.5335  0.2858 -1.6257
   11SAPS  H10S 1387   2.795   4.701   7.471 -1.3887 -0.4936  1.5191
   11SAPS  C211 1388   2.878   4.522   7.581 -0.4620 -1.1407 -0.4683
   11SAPS  H11R 1389   2.883   4.413   7.565 -0.4317 -1.0228 -1.2960
   11SAPS  C212 1390   2.923   4.574   7.697  0.5114  0.2918 -0.0781
   11SAPS  H12R 1391   2.949   4.510   7.784  0.7363  0.9571  0.3460
   11SAPS  C213 1392   2.940   4.725   7.724  0.0259  0.7925  0.6572
   11SAPS  H13R 1393   2.847   4.765   7.770 -0.6965  1.2043 -1.1292
   11SAPS  H13S 1394   2.952   4.781   7.629  0.4541  1.5348  1.1456
   11SAPS  C214 1395   3.056   4.747   7.820  0.7496 -0.6244 -0.2676
   11SAPS  H14R 1396   3.150   4.742   7.764 -0.6398 -1.7705 -2.6190
   11SAPS  C215 1397   3.059   4.765   7.950  0.3920 -0.0500  0.2519
   11SAPS  H15R 1398   3.157   4.784   7.996  0.0719  1.2937  0.3998
   11SAPS  C216 1399   2.937   4.767   8.047  0.5455 -0.0350 -0.2697
   11SAPS  H16R 1400   2.965   4.763   8.155 -0.4153 -1.3224 -0.0557
   11SAPS  H16S 1401   2.870   4.680   8.034  2.0170 -1.5533  1.9868
   11SAPS  C217 1402   2.850   4.889   8.038  0.4817  0.1987 -0.0442
   11SAPS  H17R 1403   2.753   4.856   8.080 -0.1442  2.2993  0.2366
   11SAPS  H17S 1404   2.835   4.915   7.932  1.3503 -1.9041 -0.7051
   11SAPS  C218 1405   2.894   5.013   8.126  0.0291  0.3608 -0.5806
   11SAPS  H18R 1406   2.810   5.086   8.119  0.8976  1.5885  1.5068
   11SAPS  H18S 1407   2.991   5.042   8.081  2.0807 -1.8954  2.2137
   11SAPS  C219 1408   2.921   4.992   8.283  1.1530  0.1113  0.1418
   11SAPS  H19R 1409   3.030   4.974   8.286  0.9264 -1.7936 -2.0990
   11SAPS  H19S 1410   2.868   4.901   8.319 -1.1129  0.6733 -1.6453
   11SAPS  C220 1411   2.876   5.117   8.359 -0.1482  0.4744  0.3934
   11SAPS  H20R 1412   2.951   5.199   8.350  0.5274 -0.0417  1.2954
   11SAPS  H20S 1413   2.875   5.095   8.468  1.9228 -0.2292  0.2967
   11SAPS  H20T 1414   2.783   5.166   8.323  0.1319  0.6783 -0.0673
   11SAPS   C33 1415   3.443   4.761   6.686 -0.0223 -0.1684 -0.2205
   11SAPS   H3X 1416   3.535   4.820   6.707  0.7809 -1.1995 -0.8037
   11SAPS   H3Y 1417   3.436   4.675   6.756 -1.9947 -1.3487 -1.8022
   11SAPS   C34 1418   3.328   4.864   6.693 -0.4845 -0.4087  0.0103
   11SAPS   H4X 1419   3.225   4.821   6.688 -0.0239 -1.3207 -1.9171
   11SAPS   H4Y 1420   3.331   4.924   6.600  0.5039  2.1160  1.6229
   11SAPS   C35 1421   3.336   4.961   6.817  0.2040  0.4381  0.0636
   11SAPS   H5X 1422   3.254   5.033   6.795  1.6544  1.5266 -1.9961
   11SAPS   H5Y 1423   3.427   5.021   6.792 -0.0762  0.4640 -0.9271
   11SAPS   C36 1424   3.319   4.891   6.955  0.1345 -0.5961  0.2497
   11SAPS   H6X 1425   3.407   4.831   6.984 -0.0262 -1.3594 -0.8097
   11SAPS   H6Y 1426   3.224   4.833   6.954  0.9078 -1.8946  1.1926
   11SAPS   C37 1427   3.293   4.994   7.067  0.0343 -0.2075 -0.5721
   11SAPS   H7X 1428   3.197   5.046   7.047 -0.0587  0.4682  1.4728
   11SAPS   H7Y 1429   3.369   5.076   7.063 -2.1530  2.0360  1.9906
   11SAPS   C38 1430   3.296   4.926   7.205  0.3705 -0.1357  0.0929
   11SAPS   H8X 1431   3.401   4.898   7.230 -0.0137  0.3696  2.3979
   11SAPS   H8Y 1432   3.226   4.841   7.218 -0.4722  0.6806  1.0131
   11SAPS   C39 1433   3.261   5.028   7.315  0.3566  0.5201  0.1152
   11SAPS   H9X 1434   3.172   5.086   7.280 -0.7912 -0.1563  1.8392
   11SAPS   H9Y 1435   3.343   5.101   7.332  0.6335  0.1957  0.1684
   11SAPS  C310 1436   3.238   4.962   7.458  0.3049  0.7461 -0.0401
   11SAPS  H10X 1437   3.145   4.902   7.457  1.4959 -1.1460  0.9129
   11SAPS  H10Y 1438   3.223   5.052   7.521 -1.2446  2.0798 -2.2254
   11SAPS  C311 1439   3.362   4.887   7.503 -0.4877 -0.3749  0.0950
   11SAPS  H11X 1440   3.386   4.806   7.431  1.1786  0.0189  0.1904
   11SAPS  H11Y 1441   3.333   4.843   7.601  1.7201  0.5878  1.2146
   11SAPS  C312 1442   3.494   4.971   7.514  0.7236  0.6768 -0.0128
   11SAPS  H12X 1443   3.463   5.077   7.506  1.1799  0.7527 -0.8358
   11SAPS  H12Y 1444   3.554   4.963   7.420  0.8076 -0.8034  0.1550
   11SAPS  C313 1445   3.592   4.949   7.631  0.5728  0.2265  0.4299
   11SAPS  H13X 1446   3.696   4.986   7.615  0.8068 -1.4856 -2.3769
   11SAPS  H13Y 1447   3.612   4.840   7.644 -2.4491 -0.1585  2.3384
   11SAPS  C314 1448   3.535   5.006   7.758 -0.1011  0.1868 -0.2713
   11SAPS  H14X 1449   3.425   4.994   7.775  0.1913 -0.2392  1.5032
   11SAPS  H14Y 1450   3.567   5.112   7.770  1.0307 -0.0100 -1.5423
   11SAPS  C315 1451   3.599   4.929   7.874  0.4348 -0.9185 -0.2135
   11SAPS  H15X 1452   3.710   4.940   7.874  0.5636 -2.1038 -0.0909
   11SAPS  H15Y 1453   3.584   4.823   7.844 -1.0264 -0.1041 -2.4489
   11SAPS  C316 1454   3.546   4.967   8.010 -0.9588 -0.0837  1.1810
   11SAPS  H16X 1455   3.551   5.077   8.026  0.8058 -0.1038  0.9125
   11SAPS  H16Y 1456   3.625   4.924   8.076 -0.7835  0.7850  1.5491
   11SAPS  C317 1457   3.401   4.915   8.035 -0.0283 -0.5287 -0.1448
   11SAPS  H17X 1458   3.415   4.822   8.094 -0.4994 -0.9930 -0.7668
   11SAPS  H17Y 1459   3.352   4.895   7.938  2.4472 -1.5998 -1.2182
   11SAPS  C318 1460   3.302   5.013   8.105  0.4560 -0.3695 -0.0321
   11SAPS  H18X 1461   3.318   5.115   8.064 -0.0886 -1.4485 -3.0550
   11SAPS  H18Y 1462   3.312   5.006   8.215 -0.0724 -1.5153 -0.0513
   11SAPS  H18Z 1463   3.201   4.987   8.068 -0.3468  0.6589  1.4004
   12SAPS     N 1464   2.454   5.880   6.081 -0.5470 -0.1406  0.1327
   12SAPS   HN1 1465   2.398   5.836   6.157  0.0498 -1.0013  0.0799
   12SAPS   HN2 1466   2.400   5.876   5.991 -0.2957  3.0634 -0.2169
   12SAPS   HN3 1467   2.543   5.828   6.068 -0.2499  0.2624  0.5406
   12SAPS   C12 1468   2.484   6.021   6.130  0.3546 -0.1681 -0.0770
   12SAPS  H12A 1469   2.494   6.091   6.048 -0.1620  1.1942  1.0147
   12SAPS   C13 1470   2.361   6.073   6.218  0.0586 -0.2981 -0.3985
   12SAPS  O13A 1471   2.297   5.979   6.282 -0.1030  0.3139  0.0474
   12SAPS  O13B 1472   2.348   6.191   6.252  0.4391  0.1337 -0.6910
   12SAPS   C11 1473   2.609   6.032   6.221 -0.1476 -0.8707 -0.0370
   12SAPS  H11A 1474   2.601   5.955   6.301  2.2385 -1.2844 -0.1802
   12SAPS  H11B 1475   2.618   6.131   6.270  2.4207 -1.0052 -0.1622
   12SAPS     P 1476   2.867   5.989   6.181  0.2978 -0.2568 -0.1849
   12SAPS   O13 1477   2.906   5.850   6.212 -0.1496  0.1875  0.0342
   12SAPS   O14 1478   2.956   6.054   6.079  0.8808  0.2700 -0.2603
   12SAPS   O12 1479   2.717   6.006   6.137 -0.4950  0.5906 -0.5576
   12SAPS   O11 1480   2.877   6.080   6.304  0.2979 -0.7729  0.0499
   12SAPS    C1 1481   2.995   6.120   6.372 -0.0797  0.1289  0.3783
   12SAPS    HA 1482   3.086   6.078   6.322 -0.1994  3.2159 -2.6082
   12SAPS    HB 1483   3.012   6.229   6.382  1.4448 -0.3713  4.0197
   12SAPS    C2 1484   2.992   6.086   6.527 -0.6450  0.2543 -0.3349
   12SAPS    HS 1485   3.073   6.141   6.578 -1.3096 -0.1934  1.2691
   12SAPS   O21 1486   3.008   5.944   6.549 -0.1735 -0.1900  0.0037
   12SAPS   C21 1487   3.140   5.908   6.536 -0.7638 -0.1081 -0.6159
   12SAPS   O22 1488   3.231   5.990   6.518 -0.4526 -0.0439  0.0917
   12SAPS   C22 1489   3.165   5.754   6.549  0.4195 -0.7248 -0.4166
   12SAPS   H2R 1490   3.078   5.692   6.517 -0.2587  0.4726 -0.9096
   12SAPS   H2S 1491   3.247   5.739   6.475 -0.0565  0.6341 -1.2357
   12SAPS    C3 1492   2.851   6.131   6.572  0.0702  0.0398 -0.6478
   12SAPS    HX 1493   2.778   6.079   6.506 -1.5062 -0.2746  1.3000
   12SAPS    HY 1494   2.835   6.239   6.552  0.0697  0.2034  0.2389
   12SAPS   O31 1495   2.812   6.095   6.708 -0.9616 -0.3248  0.3046
   12SAPS   C31 1496   2.886   6.163   6.794  0.2222  0.0347 -0.2723
   12SAPS   O32 1497   2.957   6.256   6.764  0.2390 -0.2537 -0.3533
   12SAPS   C32 1498   2.858   6.115   6.937 -1.1775 -0.0694 -0.6591
   12SAPS   H2X 1499   2.885   6.009   6.953 -1.2303 -0.2604 -1.7670
   12SAPS   H2Y 1500   2.748   6.120   6.950 -1.4294 -0.2187 -2.4887
   12SAPS   C23 1501   3.198   5.728   6.698  0.6422 -0.0158  0.1017
   12SAPS   H3R 1502   3.290   5.787   6.714 -0.4178  1.9177 -0.8359
   12SAPS   H3S 1503   3.236   5.624   6.704 -0.1407 -0.3061  0.1278
   12SAPS   C24 1504   3.085   5.771   6.798  0.2636 -0.0057 -0.2835
   12SAPS   H4R 1505   3.041   5.867   6.763  0.3972  0.4972  0.9146
   12SAPS   H4S 1506   3.134   5.790   6.896  0.8827 -0.5086 -0.4929
   12SAPS   C25 1507   2.973   5.671   6.803  0.0988  0.6721 -0.4022
   12SAPS   H5R 1508   2.950   5.619   6.709 -0.6773  1.2105 -0.5144
   12SAPS   C26 1509   2.892   5.650   6.912  0.5511 -0.3682  0.3087
   12SAPS   H6R 1510   2.808   5.579   6.903 -0.6670  0.9914  0.7007
   12SAPS   C27 1511   2.893   5.726   7.045 -0.8869  0.0515 -0.5074
   12SAPS   H7R 1512   2.829   5.814   7.022 -1.5493 -1.0639 -3.1142
   12SAPS   H7S 1513   2.994   5.757   7.081 -1.6338  1.0912  0.7304
   12SAPS   C28 1514   2.827   5.642   7.152  0.3947  0.0392  0.5143
   12SAPS   H8R 1515   2.767   5.554   7.123 -2.3241  1.7217  0.9124
   12SAPS   C29 1516   2.828   5.669   7.286  0.1354 -0.5988  0.4054
   12SAPS   H9R 1517   2.795   5.600   7.365  0.7465  0.6216  1.7343
   12SAPS  C210 1518   2.893   5.791   7.341 -0.7667 -0.6932  0.3509
   12SAPS  H10R 1519   2.822   5.872   7.315  0.6428  0.4745  0.1263
   12SAPS  H10S 1520   2.993   5.802   7.296 -1.0597 -0.0432 -0.1409
   12SAPS  C211 1521   2.909   5.796   7.491  0.6299 -0.1239 -0.4552
   12SAPS  H11R 1522   2.816   5.791   7.548  0.1649 -1.9602 -1.3357
   12SAPS  C212 1523   3.028   5.813   7.560  0.0729  0.0876 -0.7697
   12SAPS  H12R 1524   3.022   5.809   7.670  0.7507 -0.6704 -0.7585
   12SAPS  C213 1525   3.167   5.838   7.507  0.4171 -0.2024 -0.8388
   12SAPS  H13R 1526   3.164   5.851   7.397  0.2580 -1.9806 -1.0446
   12SAPS  H13S 1527   3.226   5.749   7.535  0.7545  0.1263 -0.5085
   12SAPS  C214 1528   3.215   5.967   7.574 -1.1350  0.5404 -0.1096
   12SAPS  H14R 1529   3.195   6.054   7.511 -1.3260 -1.6693 -3.2017
   12SAPS  C215 1530   3.280   5.975   7.693  0.1309 -0.2919  0.4380
   12SAPS  H15R 1531   3.302   6.076   7.733 -0.9561 -0.1118  0.6008
   12SAPS  C216 1532   3.325   5.870   7.791 -0.4942  0.4313  0.6298
   12SAPS  H16R 1533   3.292   5.771   7.756  0.8768  0.7392 -1.6477
   12SAPS  H16S 1534   3.284   5.886   7.893 -0.3708  0.5375  0.6629
   12SAPS  C217 1535   3.480   5.852   7.805 -0.9644 -0.5627 -0.3346
   12SAPS  H17R 1536   3.516   5.850   7.700 -0.0077 -0.9119  0.0032
   12SAPS  H17S 1537   3.520   5.757   7.846  0.2789  0.3172  0.5092
   12SAPS  C218 1538   3.542   5.973   7.868 -1.0255 -0.0183 -0.5404
   12SAPS  H18R 1539   3.513   5.968   7.975 -0.6867 -3.4852 -0.5536
   12SAPS  H18S 1540   3.498   6.062   7.818  0.8197 -0.1351 -2.4037
   12SAPS  C219 1541   3.695   5.985   7.846  0.0424 -0.2850 -0.7193
   12SAPS  H19R 1542   3.713   6.028   7.746  0.5977  1.2941  0.0470
   12SAPS  H19S 1543   3.743   5.885   7.860  0.9982 -0.1051 -2.5567
   12SAPS  C220 1544   3.772   6.077   7.946 -0.1556  0.3103  0.1441
   12SAPS  H20R 1545   3.739   6.180   7.924 -0.9163 -0.2086 -1.2036
   12SAPS  H20S 1546   3.882   6.063   7.954 -0.1389  1.0336  1.2954
   12SAPS  H20T 1547   3.743   6.050   8.050  0.2427 -0.6459  0.0150
   12SAPS   C33 1548   2.911   6.206   7.043  0.5009  0.4318  0.3268
   12SAPS   H3X 1549   2.845   6.295   7.038 -1.0327 -0.6568  0.5397
   12SAPS   H3Y 1550   3.018   6.225   7.024  1.0791 -0.4416  2.4969
   12SAPS   C34 1551   2.887   6.128   7.174 -0.3424  0.0044 -0.0415
   12SAPS   H4X 1552   2.962   6.045   7.170 -2.2080 -1.6682 -1.3215
   12SAPS   H4Y 1553   2.787   6.080   7.178 -0.7411  0.8069 -0.4652
   12SAPS   C35 1554   2.913   6.201   7.306  0.2496 -0.6090  0.1852
   12SAPS   H5X 1555   2.994   6.277   7.312 -2.1999  1.9393  2.4251
   12SAPS   H5Y 1556   2.943   6.127   7.383 -1.3184  0.5822  1.9681
   12SAPS   C36 1557   2.804   6.278   7.367  0.7941 -0.5526 -0.0610
   12SAPS   H6X 1558   2.719   6.218   7.406 -1.3371  0.8445 -2.3573
   12SAPS   H6Y 1559   2.759   6.340   7.286 -3.0657  2.3095  4.0144
   12SAPS   C37 1560   2.850   6.364   7.488  0.6088 -0.3763  0.3394
   12SAPS   H7X 1561   2.900   6.458   7.456 -2.6830  1.0805 -0.7470
   12SAPS   H7Y 1562   2.917   6.302   7.551  2.3406  1.5056  0.3945
   12SAPS   C38 1563   2.742   6.403   7.593  0.3677  0.8060  0.4164
   12SAPS   H8X 1564   2.665   6.324   7.603  1.2136 -0.1299 -0.3767
   12SAPS   H8Y 1565   2.698   6.498   7.555  0.8296  1.6978  2.1048
   12SAPS   C39 1566   2.803   6.441   7.724  0.2356  0.8154 -0.7275
   12SAPS   H9X 1567   2.871   6.527   7.704 -0.5403  1.7027  0.4102
   12SAPS   H9Y 1568   2.879   6.367   7.757 -0.2987  0.4034 -0.4283
   12SAPS  C310 1569   2.701   6.485   7.834 -0.0492 -0.3670 -0.3819
   12SAPS  H10X 1570   2.621   6.409   7.847 -1.0134  0.9929  1.9956
   12SAPS  H10Y 1571   2.645   6.573   7.795  1.8399  1.1539  0.2382
   12SAPS  C311 1572   2.759   6.501   7.968 -0.2000  0.6594  0.0972
   12SAPS  H11X 1573   2.844   6.573   7.960 -0.7972  1.1457 -1.9324
   12SAPS  H11Y 1574   2.804   6.407   8.007 -0.5217  0.6574  0.4715
   12SAPS  C312 1575   2.648   6.532   8.060  0.7088 -0.2768  0.3710
   12SAPS  H12X 1576   2.586   6.442   8.078 -0.5865  0.8543  1.6537
   12SAPS  H12Y 1577   2.590   6.617   8.018 -0.3347 -0.5604  1.2292
   12SAPS  C313 1578   2.685   6.559   8.205  0.4887  0.0142  0.2740
   12SAPS  H13X 1579   2.763   6.637   8.191 -0.9413  1.3653 -0.2753
   12SAPS  H13Y 1580   2.730   6.467   8.249  1.1240  1.6201  3.0970
   12SAPS  C314 1581   2.566   6.611   8.280  0.1362 -0.5859  0.2703
   12SAPS  H14X 1582   2.484   6.536   8.271  0.5288 -0.7955 -1.7807
   12SAPS  H14Y 1583   2.532   6.697   8.218 -0.6493 -0.4712  0.8428
   12SAPS  C315 1584   2.597   6.642   8.423 -0.0039  0.4025 -0.7506
   12SAPS  H15X 1585   2.697   6.691   8.427  1.1469 -1.8566 -1.1582
   12SAPS  H15Y 1586   2.602   6.554   8.490  1.0350 -0.8380 -2.4212
   12SAPS  C316 1587   2.507   6.746   8.491 -0.0662 -0.4794 -1.3227
   12SAPS  H16X 1588   2.519   6.841   8.436 -1.9047  0.6118  0.1121
   12SAPS  H16Y 1589   2.543   6.779   8.591 -1.8782  1.5569 -1.3134
   12SAPS  C317 1590   2.362   6.698   8.483  0.1686 -0.7438 -0.4988
   12SAPS  H17X 1591   2.370   6.607   8.545 -2.6403 -1.5535 -1.2413
   12SAPS  H17Y 1592   2.343   6.683   8.374  1.1752 -0.1852 -0.7557
   12SAPS  C318 1593   2.250   6.782   8.546  0.6951 -0.0979 -0.4805
   12SAPS  H18X 1594   2.248   6.883   8.499 -1.8725 -0.7119 -1.7319
   12SAPS  H18Y 1595   2.261   6.795   8.656 -1.9075  3.0207 -0.5164
   12SAPS  H18Z 1596   2.150   6.744   8.518  0.1439  1.0361 -0.0913
   13SAPS     N 1597   4.018   2.718   5.844 -0.0624 -0.5251  0.3966
   13SAPS   HN1 1598   4.072   2.630   5.851 -0.5630 -0.8446  0.1914
   13SAPS   HN2 1599   4.057   2.759   5.757  2.4342  0.3998  1.8645
   13SAPS   HN3 1600   4.029   2.774   5.932 -0.4437  0.8725 -0.4202
   13SAPS   C12 1601   3.869   2.691   5.829  0.4145  0.1526 -0.1788
   13SAPS  H12A 1602   3.812   2.782   5.841 -0.6854 -0.7117  1.3848
   13SAPS   C13 1603   3.828   2.640   5.690 -0.0010 -0.6457  0.2275
   13SAPS  O13A 1604   3.921   2.644   5.603 -0.3893  0.5470  0.1028
   13SAPS  O13B 1605   3.711   2.602   5.664 -0.1803 -0.4054 -0.2165
   13SAPS   C11 1606   3.827   2.597   5.945 -0.0424  0.2969 -0.0504
   13SAPS  H11A 1607   3.897   2.510   5.946 -0.4957 -0.0651  0.5016
   13SAPS  H11B 1608   3.726   2.558   5.920  0.5003  0.2739 -2.3423
   13SAPS     P 1609   3.716   2.768   6.113 -0.2459  0.5609  0.3863
   13SAPS   O13 1610   3.686   2.872   6.011  0.3146  0.4115  0.0883
   13SAPS   O14 1611   3.598   2.687   6.153  0.0552 -0.0239  0.7228
   13SAPS   O12 1612   3.836   2.679   6.059  0.1970 -0.4459  0.5861
   13SAPS   O11 1613   3.776   2.833   6.236  0.0276  0.5476 -0.3724
   13SAPS    C1 1614   3.839   2.752   6.338  0.7524  0.3869  0.5232
   13SAPS    HA 1615   3.836   2.647   6.303  0.2368  0.3385  0.7079
   13SAPS    HB 1616   3.948   2.771   6.349  0.8288 -0.7509  1.8610
   13SAPS    C2 1617   3.792   2.762   6.486 -0.1260 -0.2649  1.1428
   13SAPS    HS 1618   3.693   2.711   6.489 -0.4905  0.1560 -2.2270
   13SAPS   O21 1619   3.778   2.905   6.521  0.4319 -0.6206  1.0983
   13SAPS   C21 1620   3.665   2.962   6.481  0.1760  0.2557  0.9238
   13SAPS   O22 1621   3.561   2.908   6.442 -0.7275 -0.3990 -0.0362
   13SAPS   C22 1622   3.688   3.119   6.483  0.4069 -0.2104 -0.3044
   13SAPS   H2R 1623   3.791   3.125   6.524  0.2602 -2.7539  0.5131
   13SAPS   H2S 1624   3.674   3.150   6.377 -0.8897 -2.1544 -0.7288
   13SAPS    C3 1625   3.897   2.699   6.579 -0.0603  0.1524 -0.7432
   13SAPS    HX 1626   3.994   2.748   6.557 -0.0116  0.6635  0.5812
   13SAPS    HY 1627   3.900   2.591   6.554 -0.8504 -0.3261  1.1442
   13SAPS   O31 1628   3.856   2.707   6.718  0.7751  0.6732  0.2108
   13SAPS   C31 1629   3.950   2.665   6.807  0.2157  0.3261  0.6485
   13SAPS   O32 1630   4.047   2.601   6.778  0.1424 -0.8140 -0.1100
   13SAPS   C32 1631   3.912   2.699   6.955  0.4568 -0.1665 -0.1770
   13SAPS   H2X 1632   3.810   2.737   6.976  0.6792  1.6316 -2.2623
   13SAPS   H2Y 1633   3.980   2.784   6.976  0.3168 -0.2983  0.8166
   13SAPS   C23 1634   3.603   3.182   6.590 -0.2939 -1.1406  0.2584
   13SAPS   H3R 1635   3.499   3.160   6.557 -1.2221 -0.1027  2.4139
   13SAPS   H3S 1636   3.624   3.291   6.587 -0.6694 -1.0469  0.9217
   13SAPS   C24 1637   3.636   3.142   6.741  1.0531 -0.2818  0.1330
   13SAPS   H4R 1638   3.745   3.135   6.761  1.6001  1.2757 -2.0799
   13SAPS   H4S 1639   3.591   3.041   6.747  0.5357 -0.0643 -0.0378
   13SAPS   C25 1640   3.574   3.231   6.847  0.3027  0.7705 -0.0369
   13SAPS   H5R 1641   3.472   3.269   6.830  0.3393  1.2474  0.7813
   13SAPS   C26 1642   3.617   3.257   6.971  0.3278  0.0801 -0.0887
   13SAPS   H6R 1643   3.564   3.336   7.027  0.6718 -1.2445  2.1725
   13SAPS   C27 1644   3.743   3.201   7.030 -0.3069 -0.6772  1.1553
   13SAPS   H7R 1645   3.784   3.122   6.964 -1.2685  1.1263 -1.6593
   13SAPS   H7S 1646   3.719   3.138   7.119  1.5216 -1.4908  1.0901
   13SAPS   C28 1647   3.859   3.295   7.057 -0.5135 -0.1832 -0.1151
   13SAPS   H8R 1648   3.942   3.284   6.986 -0.4132 -2.3606  0.2981
   13SAPS   C29 1649   3.876   3.365   7.171 -0.2657  0.1176 -0.0055
   13SAPS   H9R 1650   3.960   3.436   7.175 -1.8659  2.0632 -0.4550
   13SAPS  C210 1651   3.779   3.370   7.288 -0.0312  0.2536  0.3732
   13SAPS  H10R 1652   3.675   3.381   7.250  0.0264 -1.8562 -0.4810
   13SAPS  H10S 1653   3.796   3.466   7.341 -1.5075  0.2974  0.7768
   13SAPS  C211 1654   3.778   3.261   7.389  0.2228 -0.4839 -0.1866
   13SAPS  H11R 1655   3.851   3.180   7.373 -0.4497 -1.4720  1.6687
   13SAPS  C212 1656   3.687   3.258   7.490 -0.2955 -0.2997 -0.3986
   13SAPS  H12R 1657   3.686   3.183   7.571 -2.0678 -0.7091 -0.7774
   13SAPS  C213 1658   3.587   3.370   7.504  0.0209  0.6940 -0.0634
   13SAPS  H13R 1659   3.490   3.325   7.536 -0.4846  1.5170 -0.4102
   13SAPS  H13S 1660   3.555   3.417   7.408 -1.9595  1.5405  0.9728
   13SAPS  C214 1661   3.637   3.459   7.611  0.4541 -0.7859  0.2623
   13SAPS  H14R 1662   3.726   3.517   7.582 -0.8536  1.5067  0.7558
   13SAPS  C215 1663   3.579   3.457   7.738 -0.1839  0.7213  0.4986
   13SAPS  H15R 1664   3.628   3.517   7.817 -0.6785 -0.7023  1.9151
   13SAPS  C216 1665   3.457   3.390   7.797 -0.5653 -0.3841 -0.1201
   13SAPS  H16R 1666   3.416   3.319   7.722 -1.8211 -1.0915  1.2097
   13SAPS  H16S 1667   3.377   3.458   7.833  1.8451  1.7714  1.3257
   13SAPS  C217 1668   3.503   3.301   7.920  0.2698 -0.1836  0.0518
   13SAPS  H17R 1669   3.571   3.226   7.875 -0.7882 -0.2854 -1.4080
   13SAPS  H17S 1670   3.409   3.248   7.948  0.7139 -2.3016 -2.2661
   13SAPS  C218 1671   3.556   3.373   8.038 -0.0775  0.4701  0.2017
   13SAPS  H18R 1672   3.640   3.434   7.996 -1.2758  3.1083  1.5095
   13SAPS  H18S 1673   3.609   3.316   8.118  1.3713  2.0400  0.4082
   13SAPS  C219 1674   3.454   3.462   8.108  0.3882  0.2672  0.1840
   13SAPS  H19R 1675   3.397   3.402   8.183  2.3982 -0.8054  0.8720
   13SAPS  H19S 1676   3.379   3.500   8.035  0.9327 -2.7779 -2.0967
   13SAPS  C220 1677   3.524   3.582   8.165  0.4445  0.0000  0.5407
   13SAPS  H20R 1678   3.469   3.633   8.246  1.1711 -0.4816  1.3393
   13SAPS  H20S 1679   3.566   3.646   8.084 -1.3029  0.2253 -0.2107
   13SAPS  H20T 1680   3.617   3.562   8.222  0.5152 -0.3364  0.3091
   13SAPS   C33 1681   3.966   2.598   7.055  0.6979  0.6938  0.0966
   13SAPS   H3X 1682   4.063   2.550   7.029 -0.0961 -1.1103  0.3605
   13SAPS   H3Y 1683   3.887   2.521   7.073  0.2969  1.2768  0.8436
   13SAPS   C34 1684   3.996   2.658   7.197  0.1164 -0.3238  0.3449
   13SAPS   H4X 1685   4.060   2.747   7.180  2.1149 -1.8544 -0.3713
   13SAPS   H4Y 1686   4.068   2.592   7.251  0.6020 -0.7977 -0.8672
   13SAPS   C35 1687   3.869   2.686   7.288  0.2981  0.1639  0.1668
   13SAPS   H5X 1688   3.805   2.595   7.288  0.5212 -0.0072  1.2964
   13SAPS   H5Y 1689   3.804   2.765   7.244  1.4467  0.9343 -0.1477
   13SAPS   C36 1690   3.910   2.719   7.427 -0.5550 -0.5321  0.1759
   13SAPS   H6X 1691   3.970   2.812   7.433 -0.6020 -0.4478 -0.6866
   13SAPS   H6Y 1692   3.992   2.653   7.464  0.3191 -0.0447 -0.8774
   13SAPS   C37 1693   3.803   2.710   7.537  0.0775  0.4587  0.0412
   13SAPS   H7X 1694   3.772   2.604   7.547 -0.3175  0.5704  0.0082
   13SAPS   H7Y 1695   3.709   2.768   7.520 -0.9257 -1.5873 -1.5893
   13SAPS   C38 1696   3.875   2.741   7.672  0.8071  0.3191  0.1908
   13SAPS   H8X 1697   3.889   2.851   7.663 -3.8208  1.0940  1.3408
   13SAPS   H8Y 1698   3.972   2.686   7.676  1.1907  1.0924  2.0011
   13SAPS   C39 1699   3.793   2.705   7.795 -0.5405 -0.6450  0.3488
   13SAPS   H9X 1700   3.692   2.747   7.776  0.7278  2.3832 -0.0360
   13SAPS   H9Y 1701   3.839   2.762   7.879  0.3274 -0.4971 -0.2165
   13SAPS  C310 1702   3.781   2.557   7.844 -0.1228  0.2234  0.6571
   13SAPS  H10X 1703   3.871   2.523   7.899  1.7132 -1.0062 -3.0045
   13SAPS  H10Y 1704   3.783   2.494   7.753 -0.8221  0.3581  0.5415
   13SAPS  C311 1705   3.649   2.522   7.921  0.0595 -0.0020 -0.9883
   13SAPS  H11X 1706   3.577   2.587   7.866  0.0797  0.1628 -0.8211
   13SAPS  H11Y 1707   3.670   2.558   8.024 -1.1235 -3.1193  0.4050
   13SAPS  C312 1708   3.616   2.372   7.917  0.0833  0.5036  0.3799
   13SAPS  H12X 1709   3.704   2.318   7.956 -1.3785  0.3445  3.6697
   13SAPS  H12Y 1710   3.591   2.343   7.813  0.8462  0.5420  0.1872
   13SAPS  C313 1711   3.509   2.319   8.011  0.6480  0.1881 -0.0040
   13SAPS  H13X 1712   3.555   2.308   8.112  0.6038 -0.4525 -0.0492
   13SAPS  H13Y 1713   3.497   2.213   7.980 -2.2324  0.4518  0.0776
   13SAPS  C314 1714   3.385   2.401   8.003  0.8551  0.8736 -0.4016
   13SAPS  H14X 1715   3.352   2.401   7.897 -1.1785  0.9821  0.2012
   13SAPS  H14Y 1716   3.409   2.505   8.034  1.3687  0.0507  2.0926
   13SAPS  C315 1717   3.263   2.350   8.100 -0.0146 -0.1903  0.2977
   13SAPS  H15X 1718   3.283   2.383   8.204 -0.3393 -1.4165  0.7624
   13SAPS  H15Y 1719   3.271   2.239   8.101 -1.7349 -0.3174  2.5378
   13SAPS  C316 1720   3.130   2.404   8.042 -0.2021  0.2747  0.0434
   13SAPS  H16X 1721   3.131   2.371   7.936 -2.4121 -5.2985  1.5267
   13SAPS  H16Y 1722   3.113   2.513   8.050 -1.7162 -0.0258  1.2137
   13SAPS  C317 1723   3.017   2.340   8.116 -0.0376  0.4035  0.1704
   13SAPS  H17X 1724   3.019   2.390   8.215 -0.9794 -0.1635  0.4862
   13SAPS  H17Y 1725   3.025   2.229   8.128 -1.9523  0.4748  2.3618
   13SAPS  C318 1726   2.873   2.361   8.064 -0.5205  0.2322  0.4637
   13SAPS  H18X 1727   2.856   2.303   7.971 -1.3086 -0.7378  1.1952
   13SAPS  H18Y 1728   2.846   2.466   8.041 -3.1169 -0.6752 -0.8118
   13SAPS  H18Z 1729   2.798   2.312   8.130 -2.2680  2.1827 -0.0416
   14SAPS     N 1730   3.107   5.714   5.713  0.0211  0.1928  0.1730
   14SAPS   HN1 1731   3.119   5.618   5.676  1.5809 -0.0995  1.3880
   14SAPS   HN2 1732   3.051   5.719   5.801  0.0593  1.6885  0.1221
   14SAPS   HN3 1733   3.047   5.767   5.647  0.6260  0.4719 -0.1493
   14SAPS   C12 1734   3.240   5.774   5.746  0.0320 -0.4677  0.2241
   14SAPS  H12A 1735   3.294   5.743   5.658  1.3638  0.2511  0.7591
   14SAPS   C13 1736   3.249   5.934   5.762  0.2166 -0.3688  0.6232
   14SAPS  O13A 1737   3.144   6.001   5.771 -0.4047  0.1191  0.5098
   14SAPS  O13B 1738   3.360   5.982   5.759  0.3150  0.4217  0.2812
   14SAPS   C11 1739   3.300   5.699   5.868  0.4430  0.3834 -0.2918
   14SAPS  H11A 1740   3.230   5.731   5.948 -0.3196  2.4665 -1.7355
   14SAPS  H11B 1741   3.401   5.738   5.895  1.0142  0.7397 -2.8174
   14SAPS     P 1742   3.406   5.477   5.938  0.0131 -0.6532 -0.2980
   14SAPS   O13 1743   3.336   5.351   5.963 -0.2243 -0.1428  0.1070
   14SAPS   O14 1744   3.545   5.475   5.886 -0.2294 -0.2280 -0.2427
   14SAPS   O12 1745   3.308   5.561   5.844  0.4292 -0.3013 -0.2596
   14SAPS   O11 1746   3.421   5.550   6.083  0.1281  0.5396  0.1315
   14SAPS    C1 1747   3.326   5.562   6.180  0.9712  0.1752 -0.4852
   14SAPS    HA 1748   3.297   5.669   6.192 -1.8297 -0.6516  0.4867
   14SAPS    HB 1749   3.234   5.508   6.151  1.3085 -0.7277  0.0922
   14SAPS    C2 1750   3.364   5.504   6.326 -1.2239 -0.0659  0.6773
   14SAPS    HS 1751   3.287   5.539   6.398 -0.3940  0.8324  1.1458
   14SAPS   O21 1752   3.497   5.527   6.371 -0.3550 -0.3182  0.2536
   14SAPS   C21 1753   3.522   5.656   6.397  0.7449  0.3975  0.0705
   14SAPS   O22 1754   3.446   5.749   6.387  0.2613 -0.3945 -0.0174
   14SAPS   C22 1755   3.663   5.661   6.459 -1.0503  0.9026 -0.6630
   14SAPS   H2R 1756   3.739   5.628   6.385 -0.4324  0.8811 -0.0366
   14SAPS   H2S 1757   3.685   5.766   6.486  0.6498  0.6721 -1.0824
   14SAPS    C3 1758   3.339   5.343   6.321 -0.5500 -0.1361  0.0689
   14SAPS    HX 1759   3.420   5.307   6.254 -0.5516 -0.7693  0.3948
   14SAPS    HY 1760   3.241   5.330   6.271  0.5840  0.1142 -2.2975
   14SAPS   O31 1761   3.353   5.284   6.451 -0.2522  0.7596 -0.1339
   14SAPS   C31 1762   3.253   5.314   6.536 -0.5049  0.0721 -0.5179
   14SAPS   O32 1763   3.139   5.351   6.502  0.2266 -0.6207  0.2441
   14SAPS   C32 1764   3.315   5.317   6.680  0.0336  0.5904 -0.3447
   14SAPS   H2X 1765   3.411   5.371   6.671  0.0479  0.6748  0.2729
   14SAPS   H2Y 1766   3.356   5.215   6.693  0.5482  0.8361 -0.0211
   14SAPS   C23 1767   3.663   5.573   6.586  0.1897  0.8618 -0.5012
   14SAPS   H3R 1768   3.769   5.546   6.604  0.0720  0.1349 -0.8725
   14SAPS   H3S 1769   3.623   5.475   6.551 -0.5058  0.3829  1.5364
   14SAPS   C24 1770   3.570   5.607   6.708 -0.5375 -0.0796 -0.5558
   14SAPS   H4R 1771   3.562   5.524   6.781 -2.0268  0.8786  0.3801
   14SAPS   H4S 1772   3.465   5.619   6.676 -0.2743  2.0401 -0.6856
   14SAPS   C25 1773   3.602   5.727   6.797  0.9394  0.3117 -0.3821
   14SAPS   H5R 1774   3.645   5.806   6.734 -0.7854  1.7601  0.2367
   14SAPS   C26 1775   3.567   5.752   6.927  0.9942 -0.2596 -0.7656
   14SAPS   H6R 1776   3.592   5.851   6.968  0.7174 -0.4527 -0.1310
   14SAPS   C27 1777   3.482   5.672   7.020  0.0412 -0.4713  0.1125
   14SAPS   H7R 1778   3.542   5.585   7.054  0.5068  0.4639  1.7941
   14SAPS   H7S 1779   3.401   5.638   6.952 -0.8889  1.0411  0.4056
   14SAPS   C28 1780   3.404   5.732   7.138  0.6217  0.0737  0.0050
   14SAPS   H8R 1781   3.307   5.685   7.162  0.3668  0.4643 -0.2619
   14SAPS   C29 1782   3.455   5.820   7.228 -0.1153  0.4568  0.2619
   14SAPS   H9R 1783   3.389   5.873   7.298 -1.5990  1.9725 -2.1903
   14SAPS  C210 1784   3.592   5.884   7.233  0.6357  0.9791 -0.1434
   14SAPS  H10R 1785   3.591   5.967   7.159  0.5824  0.7927 -0.3505
   14SAPS  H10S 1786   3.668   5.817   7.188  2.0194  2.9517 -0.8091
   14SAPS  C211 1787   3.645   5.936   7.361  0.1347  0.0060 -0.2707
   14SAPS  H11R 1788   3.613   5.882   7.452 -1.4885 -0.2325 -0.9666
   14SAPS  C212 1789   3.725   6.047   7.384 -0.4392 -0.5624 -0.1344
   14SAPS  H12R 1790   3.765   6.065   7.485 -0.4755  1.2156 -0.4227
   14SAPS  C213 1791   3.765   6.134   7.269 -0.6021 -0.0262  0.5693
   14SAPS  H13R 1792   3.709   6.230   7.258  0.3902  0.4441 -0.5202
   14SAPS  H13S 1793   3.745   6.077   7.176 -3.2650  0.1057  1.0334
   14SAPS  C214 1794   3.912   6.155   7.268  0.0338 -0.0004  0.7512
   14SAPS  H14R 1795   3.971   6.066   7.245  0.4083  0.1889  0.9745
   14SAPS  C215 1796   3.973   6.277   7.288  0.1550  0.3761  1.4102
   14SAPS  H15R 1797   4.082   6.283   7.285  0.1607  0.0271 -3.9743
   14SAPS  C216 1798   3.904   6.411   7.311 -0.2043  0.1106  0.6445
   14SAPS  H16R 1799   3.803   6.406   7.264  0.2684  1.5578 -0.5831
   14SAPS  H16S 1800   3.967   6.489   7.263 -1.3330  1.1317  0.7799
   14SAPS  C217 1801   3.897   6.447   7.452  0.2629 -0.3433 -0.2117
   14SAPS  H17R 1802   3.873   6.553   7.476  0.3378 -0.6661  1.3457
   14SAPS  H17S 1803   3.996   6.443   7.504 -0.4263 -0.8578  1.0779
   14SAPS  C218 1804   3.812   6.358   7.545 -0.0944  0.1092  0.2283
   14SAPS  H18R 1805   3.860   6.259   7.561  2.1101  1.4535  2.4131
   14SAPS  H18S 1806   3.723   6.331   7.484  0.8137  1.8737 -1.9513
   14SAPS  C219 1807   3.774   6.414   7.678 -0.4316  0.5050  0.3184
   14SAPS  H19R 1808   3.705   6.352   7.740 -0.6073  0.2524 -0.1277
   14SAPS  H19S 1809   3.723   6.505   7.639 -1.2573 -0.2437 -0.3648
   14SAPS  C220 1810   3.898   6.442   7.766  0.5992 -0.2913  0.0463
   14SAPS  H20R 1811   3.960   6.524   7.724 -1.5145  1.5706  0.4866
   14SAPS  H20S 1812   3.958   6.349   7.775 -0.6876 -1.2007 -0.7400
   14SAPS  H20T 1813   3.862   6.474   7.867 -0.3744  0.3683 -0.5041
   14SAPS   C33 1814   3.216   5.358   6.791 -0.2506  0.2232 -0.0746
   14SAPS   H3X 1815   3.147   5.272   6.799  1.8618 -1.4197  1.0032
   14SAPS   H3Y 1816   3.162   5.453   6.770  1.5546  0.8804 -1.8479
   14SAPS   C34 1817   3.286   5.371   6.930 -0.2796  0.5334  0.3403
   14SAPS   H4X 1818   3.380   5.428   6.912  0.1852 -1.3401 -3.7805
   14SAPS   H4Y 1819   3.320   5.268   6.958 -0.5152 -0.5344 -3.0000
   14SAPS   C35 1820   3.194   5.420   7.045  0.4529  0.1686  0.4099
   14SAPS   H5X 1821   3.098   5.364   7.040 -0.3500  1.3301  2.3447
   14SAPS   H5Y 1822   3.156   5.523   7.027  0.0011 -0.1717 -0.6854
   14SAPS   C36 1823   3.258   5.391   7.178 -0.2131  0.1286 -0.1389
   14SAPS   H6X 1824   3.347   5.459   7.183 -0.4084  0.4278 -0.7468
   14SAPS   H6Y 1825   3.292   5.286   7.183 -3.4623 -1.0200 -1.2360
   14SAPS   C37 1826   3.166   5.415   7.296  0.1013 -0.4640  0.7698
   14SAPS   H7X 1827   3.077   5.349   7.286  0.2758 -1.0233  2.6214
   14SAPS   H7Y 1828   3.119   5.515   7.285 -0.7438 -1.0351 -0.9797
   14SAPS   C38 1829   3.248   5.415   7.424  1.4324 -0.2641  0.3065
   14SAPS   H8X 1830   3.321   5.498   7.409  0.6883 -0.1988 -3.3033
   14SAPS   H8Y 1831   3.309   5.323   7.423 -0.4177 -1.5158 -0.0168
   14SAPS   C39 1832   3.169   5.435   7.548 -0.3169 -0.0560  0.5183
   14SAPS   H9X 1833   3.120   5.337   7.564 -1.2890 -0.0661 -2.1771
   14SAPS   H9Y 1834   3.085   5.507   7.531 -1.9378 -2.0363 -0.0022
   14SAPS  C310 1835   3.255   5.483   7.669  0.0862 -0.6594  0.3308
   14SAPS  H10X 1836   3.186   5.517   7.750  0.3723  0.2998  0.1700
   14SAPS  H10Y 1837   3.324   5.565   7.642 -0.5315 -0.8402 -1.8854
   14SAPS  C311 1838   3.348   5.365   7.721  0.3730 -0.0899 -0.2400
   14SAPS  H11X 1839   3.397   5.311   7.638  0.6009 -2.1800  1.2245
   14SAPS  H11Y 1840   3.285   5.292   7.776  0.3640 -1.3749 -1.9114
   14SAPS  C312 1841   3.450   5.409   7.823  0.1637 -0.4292 -0.2573
   14SAPS  H12X 1842   3.525   5.472   7.769 -0.3545  1.4814  1.1794
   14SAPS  H12Y 1843   3.495   5.318   7.868 -1.9257 -1.4568 -0.2312
   14SAPS  C313 1844   3.400   5.504   7.925 -0.0399 -0.0177 -0.1046
   14SAPS  H13X 1845   3.310   5.456   7.969 -0.7786  1.1868 -0.3041
   14SAPS  H13Y 1846   3.362   5.604   7.894  1.3353  0.5843  0.0984
   14SAPS  C314 1847   3.510   5.524   8.034 -0.4896  0.1857 -0.1319
   14SAPS  H14X 1848   3.600   5.562   7.982 -1.5253  1.6549 -0.8727
   14SAPS  H14Y 1849   3.535   5.423   8.074 -3.9083 -0.5271  0.3878
   14SAPS  C315 1850   3.459   5.623   8.137  0.9368 -0.1269  0.1269
   14SAPS  H15X 1851   3.376   5.575   8.193  0.5345  1.1068  0.5935
   14SAPS  H15Y 1852   3.407   5.706   8.085 -0.3552 -0.0683  1.4898
   14SAPS  C316 1853   3.568   5.672   8.222  0.9931  0.7379  0.6155
   14SAPS  H16X 1854   3.636   5.737   8.164 -1.2044  0.4320 -2.3864
   14SAPS  H16Y 1855   3.618   5.580   8.262  2.3730 -0.0618 -2.8071
   14SAPS  C317 1856   3.519   5.742   8.350 -0.8457  0.6240  0.2461
   14SAPS  H17X 1857   3.446   5.679   8.405  0.8037 -1.4102  0.1917
   14SAPS  H17Y 1858   3.465   5.824   8.298 -0.7923  2.1754  2.5442
   14SAPS  C318 1859   3.627   5.810   8.442 -0.1478 -0.0704 -0.2286
   14SAPS  H18X 1860   3.690   5.734   8.492 -1.6621 -0.0081  1.8399
   14SAPS  H18Y 1861   3.580   5.868   8.525  1.5375  1.8764 -0.5988
   14SAPS  H18Z 1862   3.683   5.887   8.384 -1.3791  0.6443 -0.4947
   15SAPS     N 1863   4.240   5.018   5.998  0.6386 -0.5683 -0.5002
   15SAPS   HN1 1864   4.156   5.066   5.961  0.3594  2.2539  3.4891
   15SAPS   HN2 1865   4.216   4.968   6.086 -2.0232  0.3825 -0.6562
   15SAPS   HN3 1866   4.314   5.087   6.021  0.4982 -0.1175 -1.3927
   15SAPS   C12 1867   4.290   4.919   5.899 -0.2014  0.2799 -0.4472
   15SAPS  H12A 1868   4.302   4.963   5.801  1.2443 -1.1010 -0.9233
   15SAPS   C13 1869   4.431   4.867   5.940  0.5086 -0.5641  1.4587
   15SAPS  O13A 1870   4.495   4.930   6.030 -0.0039 -0.3370 -0.3256
   15SAPS  O13B 1871   4.483   4.770   5.877 -0.6143  0.4306  0.4849
   15SAPS   C11 1872   4.202   4.788   5.914 -0.0721 -0.5015 -0.5962
   15SAPS  H11A 1873   4.197   4.766   6.023 -2.7615  2.5804  0.0032
   15SAPS  H11B 1874   4.242   4.705   5.851  3.4593  0.8791 -0.2682
   15SAPS     P 1875   3.961   4.702   5.852 -0.1106 -0.1002  0.1315
   15SAPS   O13 1876   3.862   4.757   5.766 -0.0979 -0.3790 -0.3561
   15SAPS   O14 1877   4.029   4.582   5.797  0.2197 -0.2166 -0.0077
   15SAPS   O12 1878   4.069   4.818   5.870  0.0470 -0.1076  0.2348
   15SAPS   O11 1879   3.917   4.667   5.999  0.3765  0.2442 -0.1899
   15SAPS    C1 1880   3.891   4.787   6.077 -0.2555  0.2472  0.2857
   15SAPS    HA 1881   3.977   4.857   6.076 -2.1152  2.5822 -0.7180
   15SAPS    HB 1882   3.799   4.840   6.044 -0.6282  0.0239  0.9369
   15SAPS    C2 1883   3.856   4.743   6.219  0.1729 -0.4320 -0.3132
   15SAPS    HS 1884   3.760   4.686   6.222 -0.0501 -0.1253 -1.4276
   15SAPS   O21 1885   3.860   4.866   6.298  0.4756 -0.5199 -0.4336
   15SAPS   C21 1886   3.742   4.918   6.334  0.0042  0.3548  0.8512
   15SAPS   O22 1887   3.634   4.866   6.303 -0.0513 -0.0159  0.1210
   15SAPS   C22 1888   3.754   5.046   6.405 -0.5117  0.0598 -0.0448
   15SAPS   H2R 1889   3.857   5.058   6.444 -1.3502 -0.8909  2.5400
   15SAPS   H2S 1890   3.725   5.123   6.330 -2.2896 -0.7001 -0.1686
   15SAPS    C3 1891   3.966   4.655   6.278 -0.2498  0.5248  0.0398
   15SAPS    HX 1892   4.069   4.697   6.275  0.3791 -1.0096 -0.3352
   15SAPS    HY 1893   3.979   4.570   6.207  2.0831  0.9504 -0.0991
   15SAPS   O31 1894   3.944   4.609   6.408  0.4266 -0.1160 -0.1061
   15SAPS   C31 1895   3.992   4.683   6.510 -1.2648 -0.1385 -0.1447
   15SAPS   O32 1896   4.061   4.781   6.491  0.0126 -0.1247  0.0335
   15SAPS   C32 1897   3.955   4.625   6.650  0.3325 -0.9544  0.1542
   15SAPS   H2X 1898   3.995   4.521   6.649  1.4170 -0.5504  0.5825
   15SAPS   H2Y 1899   3.844   4.619   6.641  0.2547 -0.3899  0.7160
   15SAPS   C23 1900   3.662   5.056   6.524  0.6536  1.0494  0.2837
   15SAPS   H3R 1901   3.699   4.975   6.591 -1.1419  0.4281  0.5378
   15SAPS   H3S 1902   3.559   5.030   6.492  0.2605  0.3532  2.0545
   15SAPS   C24 1903   3.655   5.192   6.581 -0.6728  0.1604  0.0529
   15SAPS   H4R 1904   3.563   5.205   6.641 -0.6272  0.2562  0.1037
   15SAPS   H4S 1905   3.649   5.267   6.500  1.0741  0.9160  0.5883
   15SAPS   C25 1906   3.782   5.223   6.659 -0.8506 -0.2298  0.0353
   15SAPS   H5R 1907   3.866   5.256   6.597 -1.4121 -2.0532 -1.7251
   15SAPS   C26 1908   3.802   5.206   6.793  0.0159 -0.2624 -0.2926
   15SAPS   H6R 1909   3.896   5.232   6.845 -0.4186 -0.9044  0.8404
   15SAPS   C27 1910   3.692   5.140   6.872  0.2885  0.1323 -0.0089
   15SAPS   H7R 1911   3.742   5.066   6.939 -1.7146 -0.8252  0.4610
   15SAPS   H7S 1912   3.610   5.092   6.815 -1.3935  3.1836 -0.2410
   15SAPS   C28 1913   3.629   5.245   6.963  0.1900 -0.3248  0.2070
   15SAPS   H8R 1914   3.596   5.340   6.919  1.4183  0.2075  0.4211
   15SAPS   C29 1915   3.630   5.244   7.096 -0.1255 -0.0668 -0.4634
   15SAPS   H9R 1916   3.600   5.341   7.139  2.6624  0.5785  0.1143
   15SAPS  C210 1917   3.686   5.147   7.199  0.0331 -0.2842 -0.5672
   15SAPS  H10R 1918   3.706   5.046   7.157  1.4726 -0.3908  0.3238
   15SAPS  H10S 1919   3.615   5.129   7.282  1.0323  3.2501  1.1499
   15SAPS  C211 1920   3.809   5.223   7.255 -0.4410 -0.4798  0.5226
   15SAPS  H11R 1921   3.899   5.225   7.192  1.1637 -0.6311  2.7975
   15SAPS  C212 1922   3.821   5.283   7.374  0.1202  0.1288 -1.2617
   15SAPS  H12R 1923   3.921   5.324   7.395 -1.1977  3.2320 -0.7976
   15SAPS  C213 1924   3.720   5.301   7.478 -0.2449 -0.9602  0.5623
   15SAPS  H13R 1925   3.753   5.277   7.581  0.1588  3.1993  1.5089
   15SAPS  H13S 1926   3.637   5.229   7.463  0.2414 -1.1728 -1.2312
   15SAPS  C214 1927   3.678   5.448   7.465  0.5607  1.1240  0.5139
   15SAPS  H14R 1928   3.619   5.471   7.376  0.8876 -0.8742 -0.2427
   15SAPS  C215 1929   3.700   5.542   7.560  0.0445 -0.8690 -0.3018
   15SAPS  H15R 1930   3.651   5.640   7.548 -0.1838 -0.9771 -0.2467
   15SAPS  C216 1931   3.779   5.504   7.684  0.6136 -0.4472  0.1618
   15SAPS  H16R 1932   3.880   5.471   7.652  0.4893  0.3175 -1.0468
   15SAPS  H16S 1933   3.721   5.434   7.747  1.1290  0.4549  1.6584
   15SAPS  C217 1934   3.808   5.638   7.760 -0.2871  0.0969  0.6196
   15SAPS  H17R 1935   3.716   5.696   7.782 -1.7981 -2.0174  0.0040
   15SAPS  H17S 1936   3.860   5.713   7.697  1.0554 -0.3250  1.2077
   15SAPS  C218 1937   3.879   5.600   7.891 -0.1517 -0.4723  0.9647
   15SAPS  H18R 1938   3.985   5.571   7.870 -0.3114 -1.2295  1.1965
   15SAPS  H18S 1939   3.832   5.510   7.936  0.4772 -1.5086 -0.4117
   15SAPS  C219 1940   3.874   5.711   7.996  0.0710  0.8139 -0.0329
   15SAPS  H19R 1941   3.768   5.742   8.003  0.3559  1.3333  2.2826
   15SAPS  H19S 1942   3.921   5.805   7.959  3.6487 -0.9564 -0.2541
   15SAPS  C220 1943   3.927   5.676   8.139  0.0753 -0.1358 -0.4552
   15SAPS  H20R 1944   3.929   5.765   8.206 -2.1149 -0.0879 -0.4096
   15SAPS  H20S 1945   4.025   5.625   8.133 -0.3627 -0.8618 -1.5440
   15SAPS  H20T 1946   3.866   5.598   8.189  1.1295  0.8860  2.5361
   15SAPS   C33 1947   4.008   4.715   6.762  0.4464 -0.0769  0.6267
   15SAPS   H3X 1948   3.972   4.820   6.752 -0.7627 -0.3559  2.0391
   15SAPS   H3Y 1949   4.119   4.719   6.752  0.3007  0.0638 -1.0397
   15SAPS   C34 1950   3.957   4.664   6.898  0.5462 -0.7718  0.1153
   15SAPS   H4X 1951   4.005   4.715   6.985 -1.2920  1.1587  0.0266
   15SAPS   H4Y 1952   3.999   4.561   6.903 -2.5527 -1.9772  2.8463
   15SAPS   C35 1953   3.806   4.670   6.919 -0.1590 -0.7541  0.3380
   15SAPS   H5X 1954   3.766   4.567   6.930  1.8742 -1.6037  0.1654
   15SAPS   H5Y 1955   3.759   4.711   6.827 -0.1179 -1.0632  0.1764
   15SAPS   C36 1956   3.748   4.738   7.048  0.0972 -0.1094  0.3739
   15SAPS   H6X 1957   3.637   4.732   7.041  0.3981 -3.6906 -3.3085
   15SAPS   H6Y 1958   3.778   4.844   7.036 -1.2592  0.2514  0.0502
   15SAPS   C37 1959   3.798   4.685   7.185  0.5891 -0.4960  0.7355
   15SAPS   H7X 1960   3.905   4.701   7.207  0.8824 -1.9492  0.3707
   15SAPS   H7Y 1961   3.782   4.575   7.184 -1.2823 -0.2513  0.5473
   15SAPS   C38 1962   3.706   4.745   7.294  0.0056  0.3377 -0.1147
   15SAPS   H8X 1963   3.600   4.730   7.264 -0.1224 -0.4876  0.7393
   15SAPS   H8Y 1964   3.747   4.847   7.311 -0.4251  0.5967 -0.5726
   15SAPS   C39 1965   3.722   4.665   7.428 -0.1233 -0.2715  0.0563
   15SAPS   H9X 1966   3.726   4.556   7.409 -3.0445 -0.5873  1.0669
   15SAPS   H9Y 1967   3.636   4.693   7.491  0.2425 -0.7977  0.7938
   15SAPS  C310 1968   3.844   4.712   7.502  0.1020  0.9557  0.0344
   15SAPS  H10X 1969   3.833   4.821   7.521 -2.6271  0.5583  0.9699
   15SAPS  H10Y 1970   3.933   4.693   7.438 -1.9716 -1.3537 -2.2562
   15SAPS  C311 1971   3.853   4.634   7.633  0.0210 -0.3966  0.1781
   15SAPS  H11X 1972   3.888   4.530   7.613  2.1870  0.7179 -2.1503
   15SAPS  H11Y 1973   3.749   4.625   7.670  0.7402 -1.5242  2.0080
   15SAPS  C312 1974   3.951   4.707   7.732  0.0296 -0.3702 -0.0829
   15SAPS  H12X 1975   3.953   4.651   7.828  0.3276 -2.4800 -1.2840
   15SAPS  H12Y 1976   3.932   4.814   7.756 -0.7525 -0.5506  0.1375
   15SAPS  C313 1977   4.094   4.708   7.683 -0.1470 -0.4020 -0.4371
   15SAPS  H13X 1978   4.160   4.741   7.765 -0.0578 -0.1902 -0.5943
   15SAPS  H13Y 1979   4.112   4.776   7.597 -0.4986 -0.2916 -0.4258
   15SAPS  C314 1980   4.157   4.570   7.649  0.8083  0.1359 -0.4836
   15SAPS  H14X 1981   4.103   4.522   7.564  1.9152 -2.3014  0.1484
   15SAPS  H14Y 1982   4.149   4.505   7.738  2.7118  1.0453  0.3779
   15SAPS  C315 1983   4.305   4.574   7.599 -0.6187 -0.3390  0.1686
   15SAPS  H15X 1984   4.327   4.465   7.598 -2.4644 -0.7247  0.1933
   15SAPS  H15Y 1985   4.361   4.628   7.678 -2.9280  2.5045 -0.0571
   15SAPS  C316 1986   4.340   4.628   7.460 -0.6606  0.4499  0.1077
   15SAPS  H16X 1987   4.449   4.623   7.439 -0.4569  3.8547  0.1089
   15SAPS  H16Y 1988   4.303   4.731   7.439 -1.9140 -0.2090 -0.9884
   15SAPS  C317 1989   4.270   4.546   7.354 -0.5027 -0.2220 -0.5833
   15SAPS  H17X 1990   4.165   4.576   7.337 -0.9832 -0.7599  1.3392
   15SAPS  H17Y 1991   4.272   4.440   7.386  0.9365 -0.0931 -0.1904
   15SAPS  C318 1992   4.344   4.557   7.221  0.5439  0.3980  0.2147
   15SAPS  H18X 1993   4.295   4.506   7.135  1.3339 -0.6550  0.3833
   15SAPS  H18Y 1994   4.445   4.511   7.226 -0.0520 -0.7825  2.0799
   15SAPS  H18Z 1995   4.369   4.662   7.195  1.1159  0.0732 -0.5802
   16SAPS     N 1996   5.864   6.676   6.378 -0.1082  0.1707  0.1732
   16SAPS   HN1 1997   5.775   6.720   6.410 -0.0940  2.2571 -2.4576
   16SAPS   HN2 1998   5.940   6.710   6.439 -1.1897  2.0891  0.4850
   16SAPS   HN3 1999   5.879   6.716   6.283  3.2244 -1.5011 -0.0597
   16SAPS   C12 2000   5.867   6.528   6.382  0.2184  0.2349 -0.5184
   16SAPS  H12A 2001   5.764   6.492   6.383 -0.7171  2.8317 -1.0183
   16SAPS   C13 2002   5.930   6.464   6.256 -0.9568  0.4962  0.4768
   16SAPS  O13A 2003   6.002   6.538   6.180  0.0698  0.0288  0.4398
   16SAPS  O13B 2004   5.905   6.346   6.220  0.2548  0.1517  0.2774
   16SAPS   C11 2005   5.943   6.491   6.513  0.0510  0.2092  0.2852
   16SAPS  H11A 2006   5.948   6.381   6.523  1.9436  0.3392  0.8770
   16SAPS  H11B 2007   5.905   6.533   6.608  2.5223  1.2778  0.8463
   16SAPS     P 2008   6.190   6.536   6.614  0.1623  0.2690 -0.0884
   16SAPS   O13 2009   6.270   6.424   6.553 -0.3715  0.4644 -0.0808
   16SAPS   O14 2010   6.261   6.672   6.634 -0.1618  0.0168  0.1252
   16SAPS   O12 2011   6.074   6.559   6.508 -0.6414  0.4230  0.1824
   16SAPS   O11 2012   6.107   6.490   6.749 -0.2497  0.5474  0.5230
   16SAPS    C1 2013   6.179   6.522   6.874  0.3753  0.2364 -0.5842
   16SAPS    HA 2014   6.260   6.448   6.887 -0.9880 -1.2610 -0.5341
   16SAPS    HB 2015   6.232   6.618   6.855 -1.6878  1.6759  0.7314
   16SAPS    C2 2016   6.067   6.523   6.990  0.0173  0.2775  0.3700
   16SAPS    HS 2017   6.093   6.606   7.059  1.5587 -1.5343  2.0555
   16SAPS   O21 2018   6.052   6.393   7.058 -0.3743  0.2430  0.3090
   16SAPS   C21 2019   6.143   6.376   7.148 -0.3608  0.2368 -0.2506
   16SAPS   O22 2020   6.254   6.429   7.161  0.0784  0.0270  0.0045
   16SAPS   C22 2021   6.097   6.257   7.226  0.2168 -0.1966 -0.6955
   16SAPS   H2R 2022   6.000   6.214   7.194  1.0297 -0.8289 -2.3803
   16SAPS   H2S 2023   6.166   6.170   7.215 -0.5213 -0.6410 -1.9338
   16SAPS    C3 2024   5.926   6.565   6.930 -0.6546 -0.5594 -0.7278
   16SAPS    HX 2025   5.891   6.490   6.857 -0.5163  0.0121 -1.3955
   16SAPS    HY 2026   5.933   6.661   6.874  0.5771 -1.2927 -1.8491
   16SAPS   O31 2027   5.832   6.573   7.029 -0.0971 -0.4264  0.6055
   16SAPS   C31 2028   5.821   6.674   7.108 -0.0943  0.3760 -0.4503
   16SAPS   O32 2029   5.891   6.775   7.105  0.3876  0.6619 -0.7951
   16SAPS   C32 2030   5.704   6.644   7.203 -0.1715  0.0165  0.5385
   16SAPS   H2X 2031   5.754   6.621   7.300 -0.1683  0.5706  0.6711
   16SAPS   H2Y 2032   5.648   6.554   7.171 -1.3578  0.9934 -0.1689
   16SAPS   C23 2033   6.094   6.293   7.376  0.3134  0.1305 -1.3639
   16SAPS   H3R 2034   6.182   6.358   7.393 -1.8197  2.9956 -1.0103
   16SAPS   H3S 2035   6.108   6.201   7.438 -1.1194  0.6061 -0.3233
   16SAPS   C24 2036   5.963   6.360   7.417  0.1024 -0.1200  0.2958
   16SAPS   H4R 2037   5.933   6.436   7.342 -0.1787  1.5068  2.0091
   16SAPS   H4S 2038   5.982   6.414   7.512  1.4021 -1.2720  0.7002
   16SAPS   C25 2039   5.847   6.272   7.426 -0.0674 -0.0024  0.6563
   16SAPS   H5R 2040   5.810   6.240   7.328 -1.1468  1.7240  0.4688
   16SAPS   C26 2041   5.775   6.230   7.539  0.1310 -0.7914 -0.7988
   16SAPS   H6R 2042   5.693   6.159   7.520 -0.3719 -0.5799  0.5046
   16SAPS   C27 2043   5.821   6.257   7.684 -0.4625 -0.3179 -0.2537
   16SAPS   H7R 2044   5.922   6.302   7.690 -0.0073 -1.5532  1.2812
   16SAPS   H7S 2045   5.835   6.162   7.738 -1.7987 -0.6230 -0.4090
   16SAPS   C28 2046   5.745   6.362   7.772 -0.1349 -0.5022 -0.4429
   16SAPS   H8R 2047   5.686   6.440   7.722 -1.5853 -2.1019 -1.3051
   16SAPS   C29 2048   5.737   6.364   7.910 -0.5023 -0.5915  0.4773
   16SAPS   H9R 2049   5.682   6.448   7.957  0.5936  0.3248  0.1489
   16SAPS  C210 2050   5.801   6.264   8.001 -0.7183  0.3365 -0.3106
   16SAPS  H10R 2051   5.842   6.315   8.091 -2.4322  1.3843 -0.0859
   16SAPS  H10S 2052   5.874   6.192   7.959 -0.8248  0.2282 -0.3105
   16SAPS  C211 2053   5.684   6.184   8.054  0.0043 -0.2289 -0.4618
   16SAPS  H11R 2054   5.642   6.118   7.976  2.8717  0.2149 -2.4620
   16SAPS  C212 2055   5.612   6.207   8.165  0.2426  0.0264 -0.0793
   16SAPS  H12R 2056   5.530   6.136   8.182  0.3401 -0.9491 -3.2262
   16SAPS  C213 2057   5.639   6.316   8.280  0.3797  0.6033  0.8253
   16SAPS  H13R 2058   5.624   6.422   8.249 -3.1750 -0.3876 -1.1949
   16SAPS  H13S 2059   5.749   6.316   8.294  0.4453 -0.3629  0.3506
   16SAPS  C214 2060   5.569   6.285   8.413 -0.2774  0.0603 -0.1518
   16SAPS  H14R 2061   5.476   6.227   8.410 -0.6183  0.4877  1.5903
   16SAPS  C215 2062   5.595   6.332   8.535  0.2303  0.0923 -0.5166
   16SAPS  H15R 2063   5.540   6.295   8.622  0.0366  0.9341 -0.2795
   16SAPS  C216 2064   5.696   6.438   8.566 -0.5868  0.5195 -0.7116
   16SAPS  H16R 2065   5.647   6.517   8.626 -0.6556 -0.4782  0.5818
   16SAPS  H16S 2066   5.729   6.485   8.472  0.5343  0.6317 -0.2693
   16SAPS  C217 2067   5.820   6.390   8.649 -0.5993 -0.1128  0.8113
   16SAPS  H17R 2068   5.900   6.467   8.639 -1.3575  0.5431 -0.4817
   16SAPS  H17S 2069   5.861   6.295   8.609 -0.2603  1.1326 -1.9352
   16SAPS  C218 2070   5.793   6.366   8.796 -0.0982  0.1253  0.1750
   16SAPS  H18R 2071   5.737   6.271   8.797 -1.5131  0.9241 -0.8839
   16SAPS  H18S 2072   5.726   6.442   8.841 -0.2579 -0.6036  1.1872
   16SAPS  C219 2073   5.921   6.356   8.879 -0.5971  0.2567  0.1386
   16SAPS  H19R 2074   5.964   6.459   8.885  1.7415 -0.6887  0.0644
   16SAPS  H19S 2075   6.000   6.301   8.824 -0.4850 -1.4588  2.0133
   16SAPS  C220 2076   5.893   6.305   9.022  0.3184  0.5115 -0.1758
   16SAPS  H20R 2077   5.853   6.204   9.002  1.6781 -0.4018  1.5187
   16SAPS  H20S 2078   5.821   6.369   9.077 -0.3583 -0.1277 -0.3230
   16SAPS  H20T 2079   5.979   6.295   9.093  0.2923 -0.5651 -0.2919
   16SAPS   C33 2080   5.606   6.763   7.225 -0.0437 -0.3706 -0.4157
   16SAPS   H3X 2081   5.549   6.804   7.139 -1.9161 -0.3745  0.7980
   16SAPS   H3Y 2082   5.666   6.848   7.263 -0.7986 -1.1575  2.6717
   16SAPS   C34 2083   5.505   6.740   7.344  0.6185 -0.3437 -0.3527
   16SAPS   H4X 2084   5.436   6.657   7.318  0.0608  0.5163 -1.6670
   16SAPS   H4Y 2085   5.441   6.829   7.365  0.8473 -0.8874  2.9941
   16SAPS   C35 2086   5.566   6.695   7.474 -1.4059  0.9125  0.3111
   16SAPS   H5X 2087   5.653   6.764   7.477  0.7799 -1.7418 -0.5339
   16SAPS   H5Y 2088   5.602   6.592   7.454 -0.2983  1.4870 -0.7713
   16SAPS   C36 2089   5.469   6.712   7.592  0.5722 -0.8449 -0.3459
   16SAPS   H6X 2090   5.391   6.634   7.583  1.1384 -1.4852  0.3594
   16SAPS   H6Y 2091   5.434   6.818   7.584 -2.0204 -1.6222  0.3230
   16SAPS   C37 2092   5.527   6.704   7.733 -0.1772 -0.4820  0.0227
   16SAPS   H7X 2093   5.597   6.789   7.741  0.8598 -1.1283 -1.8579
   16SAPS   H7Y 2094   5.587   6.611   7.746 -0.7276 -0.5025  2.5466
   16SAPS   C38 2095   5.415   6.712   7.843 -0.1640 -0.4635 -0.5407
   16SAPS   H8X 2096   5.360   6.616   7.842  1.0792 -1.3134  3.1316
   16SAPS   H8Y 2097   5.345   6.796   7.825 -0.6589 -0.6411  0.4990
   16SAPS   C39 2098   5.496   6.734   7.971  0.1541 -0.4700 -0.2866
   16SAPS   H9X 2099   5.535   6.838   7.966 -0.6923 -0.2320 -3.7874
   16SAPS   H9Y 2100   5.589   6.673   7.967  0.7017  0.3106  0.3636
   16SAPS  C310 2101   5.413   6.711   8.093 -0.5091 -0.2940 -0.1817
   16SAPS  H10X 2102   5.391   6.604   8.113  0.0375 -0.5414 -0.8797
   16SAPS  H10Y 2103   5.319   6.764   8.069  0.1034 -0.1701 -2.4578
   16SAPS  C311 2104   5.470   6.771   8.223  0.1367 -0.0649 -0.4090
   16SAPS  H11X 2105   5.508   6.875   8.215 -3.4265  1.2106 -1.4259
   16SAPS  H11Y 2106   5.554   6.710   8.265  0.6408  0.0421 -1.2556
   16SAPS  C312 2107   5.366   6.797   8.335  0.5186 -0.0824 -0.3776
   16SAPS  H12X 2108   5.292   6.719   8.361  1.5769 -0.9269  0.1395
   16SAPS  H12Y 2109   5.305   6.886   8.308  2.6197  1.5890  0.2696
   16SAPS  C313 2110   5.426   6.811   8.475  1.1553 -0.2028 -0.1131
   16SAPS  H13X 2111   5.505   6.886   8.453  0.4635  0.7669  0.6892
   16SAPS  H13Y 2112   5.478   6.716   8.502  1.6702  0.2178  0.4009
   16SAPS  C314 2113   5.329   6.860   8.583  0.4555 -0.0247  0.0236
   16SAPS  H14X 2114   5.281   6.955   8.550  1.1397  0.0827 -0.6855
   16SAPS  H14Y 2115   5.388   6.880   8.676 -0.7543  2.6241  0.2767
   16SAPS  C315 2116   5.240   6.744   8.627 -0.3720  0.0419  0.7356
   16SAPS  H15X 2117   5.181   6.705   8.541 -0.7147 -2.7578  2.1838
   16SAPS  H15Y 2118   5.166   6.785   8.700 -2.4301  0.2724 -1.4264
   16SAPS  C316 2119   5.297   6.616   8.697  0.3436 -0.6225  0.0612
   16SAPS  H16X 2120   5.321   6.636   8.804 -1.6236 -1.7865  0.7655
   16SAPS  H16Y 2121   5.377   6.574   8.633  0.6054  0.7601 -0.5263
   16SAPS  C317 2122   5.198   6.502   8.690 -0.0903  0.6614  0.1713
   16SAPS  H17X 2123   5.192   6.465   8.585  0.4678  0.6829  0.1291
   16SAPS  H17Y 2124   5.095   6.535   8.715 -0.2718 -0.5189  1.0024
   16SAPS  C318 2125   5.222   6.377   8.772 -0.4231 -0.3238  0.0921
   16SAPS  H18X 2126   5.139   6.307   8.750 -0.9093  0.5740 -0.9684
   16SAPS  H18Y 2127   5.236   6.397   8.880  2.3153 -0.5859 -0.1789
   16SAPS  H18Z 2128   5.315   6.328   8.735 -1.5933 -1.6790 -1.1348
   17SAPC     N 2129   2.218   3.609  10.280  0.1125  0.6173 -0.1849
   17SAPC   C12 2130   2.281   3.545  10.407 -0.9921  0.6237 -0.3676
   17SAPC  H12A 2131   2.349   3.464  10.390 -0.9982  0.6166 -0.3574
   17SAPC  H12B 2132   2.203   3.508  10.472  2.2199 -0.4985  3.0179
   17SAPC   C13 2133   2.314   3.640  10.177 -0.5294  0.3657 -0.3414
   17SAPC  H13A 2134   2.407   3.668  10.223 -1.6245  0.4162  1.9296
   17SAPC  H13B 2135   2.332   3.555  10.114 -1.5760 -0.4131  0.3793
   17SAPC  H13C 2136   2.291   3.727  10.117  2.6314  0.7063 -1.1211
   17SAPC   C14 2137   2.112   3.515  10.223 -0.4101 -0.4102 -0.3351
   17SAPC  H14A 2138   2.042   3.514  10.305  2.1037  1.5223  1.9271
   17SAPC  H14B 2139   2.060   3.550  10.134 -1.1369 -3.0412 -0.9812
   17SAPC  H14C 2140   2.144   3.415  10.198 -0.7939 -0.6562  0.1593
   17SAPC   C15 2141   2.137   3.725  10.310 -0.2907 -0.2306 -0.9408
   17SAPC  H15A 2142   2.076   3.763  10.229  0.7364  1.4531 -0.9482
   17SAPC  H15B 2143   2.069   3.706  10.392 -1.2945  1.4356 -1.3600
   17SAPC  H15C 2144   2.201   3.811  10.328 -2.5755  1.3441 -0.0277
   17SAPC   C11 2145   2.382   3.634  10.491 -0.1882  0.2093  0.2757
   17SAPC  H11A 2146   2.392   3.580  10.587 -0.7316  0.5998  0.5544
   17SAPC  H11B 2147   2.328   3.728  10.516  1.0155  0.8773  0.3850
   17SAPC     P 2148   2.619   3.543  10.412  0.1725  0.0512 -0.0269
   17SAPC   O13 2149   2.670   3.542  10.278 -0.4416  0.6523 -0.4030
   17SAPC   O14 2150   2.714   3.568  10.523 -0.2000 -0.4385  0.5174
   17SAPC   O12 2151   2.506   3.652  10.417  0.1990 -0.7189 -0.3505
   17SAPC   O11 2152   2.545   3.410  10.432  0.0228 -0.2939  0.5123
   17SAPC    C1 2153   2.594   3.289  10.483  0.2094 -0.0472 -0.5014
   17SAPC    HA 2154   2.695   3.301  10.527  0.4333 -1.5865 -0.5598
   17SAPC    HB 2155   2.533   3.252  10.568  0.8095  1.6243  0.6811
   17SAPC    C2 2156   2.608   3.171  10.380 -0.1133 -0.6745 -0.1506
   17SAPC    HS 2157   2.641   3.076  10.427  2.1677  1.3029  2.4045
   17SAPC   O21 2158   2.702   3.212  10.278  0.0358 -0.1905 -0.5650
   17SAPC   C21 2159   2.832   3.177  10.301  0.4621  0.3091 -0.0655
   17SAPC   O22 2160   2.871   3.099  10.384 -0.3561  0.5138 -0.0475
   17SAPC   C22 2161   2.923   3.225  10.188  0.2078 -0.0079  0.1917
   17SAPC   H2R 2162   2.915   3.336  10.182  0.8827  0.0485  0.3191
   17SAPC   H2S 2163   3.025   3.196  10.219 -0.2159 -1.6393  0.0800
   17SAPC    C3 2164   2.468   3.154  10.330 -0.3373 -0.2762 -0.1119
   17SAPC    HX 2165   2.425   3.246  10.285  0.2564 -0.2557 -0.6503
   17SAPC    HY 2166   2.407   3.132  10.421 -0.5418  0.0146 -0.1801
   17SAPC   O31 2167   2.468   3.035  10.244  0.7385  0.1231 -0.3641
   17SAPC   C31 2168   2.487   3.061  10.114 -0.2076 -0.0379 -0.1940
   17SAPC   O32 2169   2.493   3.174  10.067 -0.4143 -0.3616  0.0866
   17SAPC   C32 2170   2.470   2.927  10.039 -0.4164  0.1525 -0.6151
   17SAPC   H2X 2171   2.365   2.897  10.058 -0.6480  1.3451  0.0845
   17SAPC   H2Y 2172   2.533   2.858  10.099  0.3559  2.3253  1.1564
   17SAPC   C23 2173   2.876   3.175  10.044  0.6882 -0.6002  0.0499
   17SAPC   H3R 2174   2.919   3.247   9.972  2.1316 -1.6890 -0.1884
   17SAPC   H3S 2175   2.765   3.187  10.045  0.5096 -2.0513  2.1387
   17SAPC   C24 2176   2.892   3.029  10.001 -0.3046  0.0508  0.0624
   17SAPC   H4R 2177   2.866   2.999   9.897  0.3351 -0.5182  0.0667
   17SAPC   H4S 2178   2.820   2.981  10.071  0.5563 -0.9699  0.2615
   17SAPC   C25 2179   3.028   2.985  10.042  0.1219  0.8137 -0.5445
   17SAPC   H5R 2180   3.035   2.964  10.150 -2.2128  2.9114  0.0684
   17SAPC   C26 2181   3.135   2.961   9.961 -0.7988 -0.5371 -0.2052
   17SAPC   H6R 2182   3.225   2.911  10.000  1.3167  1.5467 -2.3479
   17SAPC   C27 2183   3.138   2.981   9.810  0.1152  0.0628  0.8314
   17SAPC   H7R 2184   3.246   2.982   9.785  0.0637  0.1134  0.6111
   17SAPC   H7S 2185   3.100   3.084   9.790 -2.2197 -1.0904 -0.8672
   17SAPC   C28 2186   3.067   2.891   9.711 -0.0099  0.0885  0.3382
   17SAPC   H8R 2187   2.979   2.846   9.759 -0.8618  2.0589  0.6787
   17SAPC   C29 2188   3.090   2.896   9.577  0.3925 -0.4186  0.0950
   17SAPC   H9R 2189   3.016   2.842   9.517 -0.8595 -0.0523  1.2723
   17SAPC  C210 2190   3.193   2.982   9.504 -0.3897 -0.0788 -1.1031
   17SAPC  H10R 2191   3.280   3.001   9.570 -2.3178  1.8799  0.9747
   17SAPC  H10S 2192   3.158   3.087   9.488  0.2375 -0.0113 -2.0771
   17SAPC  C211 2193   3.250   2.924   9.378 -0.0719 -0.2401 -0.5426
   17SAPC  H11R 2194   3.345   2.869   9.385 -0.2626 -0.3600  1.4714
   17SAPC  C212 2195   3.191   2.932   9.256  0.2111 -0.5889 -0.8208
   17SAPC  H12R 2196   3.240   2.896   9.164 -2.8838 -1.3395 -2.2607
   17SAPC  C213 2197   3.049   2.992   9.218  0.6530  0.6799 -0.1885
   17SAPC  H13R 2198   2.990   3.001   9.312 -0.5441  1.2477 -0.9865
   17SAPC  H13S 2199   2.985   2.935   9.147 -0.6152  3.0416 -0.9927
   17SAPC  C214 2200   3.064   3.133   9.165 -0.1830  1.0901 -0.2940
   17SAPC  H14R 2201   3.162   3.180   9.146 -0.3864  1.3209 -0.7713
   17SAPC  C215 2202   2.960   3.220   9.159 -0.0309  0.0383  0.3641
   17SAPC  H15R 2203   2.984   3.320   9.120  3.2756 -1.5023 -1.7967
   17SAPC  C216 2204   2.819   3.192   9.204  0.0070 -1.0477  0.3979
   17SAPC  H16R 2205   2.801   3.094   9.253  1.7978 -1.1801  0.8564
   17SAPC  H16S 2206   2.761   3.185   9.110 -0.6176  0.2109  0.6834
   17SAPC  C217 2207   2.743   3.304   9.293  0.1781 -0.5604 -0.7408
   17SAPC  H17R 2208   2.637   3.278   9.309 -0.6083  2.8053 -0.1012
   17SAPC  H17S 2209   2.744   3.392   9.225 -2.0667  0.1077  0.0595
   17SAPC  C218 2210   2.809   3.329   9.430  0.0691  0.1169 -0.3462
   17SAPC  H18R 2211   2.753   3.415   9.472  1.1533  2.2821 -3.1555
   17SAPC  H18S 2212   2.914   3.360   9.414 -0.1788  0.8538 -0.5745
   17SAPC  C219 2213   2.797   3.205   9.522  0.3326 -0.1606 -0.5920
   17SAPC  H19R 2214   2.866   3.140   9.464  2.4576  1.2826  0.2618
   17SAPC  H19S 2215   2.693   3.166   9.513 -0.6060  1.8892  0.8385
   17SAPC  C220 2216   2.843   3.222   9.665  0.1875 -0.1436  0.0103
   17SAPC  H20R 2217   2.761   3.262   9.729 -0.6937  2.2231 -2.4690
   17SAPC  H20S 2218   2.921   3.301   9.672 -0.5139  0.5130  0.4872
   17SAPC  H20T 2219   2.885   3.133   9.716 -1.2110 -1.0367 -0.3777
   17SAPC   C33 2220   2.514   2.940   9.898  0.3590 -0.1171 -0.1220
   17SAPC   H3X 2221   2.621   2.972   9.893  0.6198 -0.8781  0.4268
   17SAPC   H3Y 2222   2.462   3.027   9.854 -0.4993 -1.3765 -1.6547
   17SAPC   C34 2223   2.476   2.825   9.814  0.1246  0.3304  0.3044
   17SAPC   H4X 2224   2.377   2.785   9.847  1.3249 -1.4064  1.9002
   17SAPC   H4Y 2225   2.548   2.742   9.831  0.7557  1.2335  2.1258
   17SAPC   C35 2226   2.469   2.842   9.666  0.2491  0.5536 -0.4763
   17SAPC   H5X 2227   2.372   2.892   9.642 -0.4836 -1.5404 -1.9567
   17SAPC   H5Y 2228   2.449   2.744   9.619 -0.1283  0.5493 -0.3111
   17SAPC   C36 2229   2.592   2.907   9.594 -0.6899 -0.1506  0.4050
   17SAPC   H6X 2230   2.675   2.865   9.655 -1.0176 -0.7160  0.4655
   17SAPC   H6Y 2231   2.594   3.017   9.606  1.1129 -0.2792  1.4301
   17SAPC   C37 2232   2.625   2.850   9.450 -0.0161  0.1612 -0.3298
   17SAPC   H7X 2233   2.601   2.742   9.458 -0.0439  0.3691  3.1916
   17SAPC   H7Y 2234   2.735   2.852   9.437 -0.3964 -1.9042 -4.7776
   17SAPC   C38 2235   2.550   2.916   9.335 -0.0173 -0.0210 -0.3446
   17SAPC   H8X 2236   2.581   3.023   9.332  2.4894 -0.7068 -0.4271
   17SAPC   H8Y 2237   2.441   2.913   9.355  0.3870 -2.0426  1.7931
   17SAPC   C39 2238   2.596   2.853   9.208  0.3248 -0.2359 -0.2444
   17SAPC   H9X 2239   2.577   2.744   9.214 -3.8150  0.3908 -0.6683
   17SAPC   H9Y 2240   2.704   2.869   9.190 -0.0756  0.7669 -1.8738
   17SAPC  C310 2241   2.509   2.898   9.089 -0.2251 -0.2150  0.5812
   17SAPC  H10X 2242   2.508   3.008   9.075 -1.7254 -0.1770  0.9476
   17SAPC  H10Y 2243   2.405   2.867   9.111 -0.2621 -0.5684 -0.0758
   17SAPC  C311 2244   2.568   2.851   8.953 -0.0212 -0.0275 -0.0155
   17SAPC  H11X 2245   2.590   2.742   8.961 -0.4283 -0.1417 -0.4301
   17SAPC  H11Y 2246   2.668   2.899   8.944  0.9825 -1.2379  3.6404
   17SAPC  C312 2247   2.475   2.879   8.830 -0.0637  0.1768  0.1655
   17SAPC  H12X 2248   2.374   2.836   8.847 -0.5075  1.6989  1.4250
   17SAPC  H12Y 2249   2.522   2.824   8.745  1.9832  2.4938 -0.2706
   17SAPC  C313 2250   2.472   3.027   8.788  0.4665  0.0056 -0.0236
   17SAPC  H13X 2251   2.573   3.064   8.761  0.5182 -0.9010 -1.1301
   17SAPC  H13Y 2252   2.448   3.085   8.880  2.7966  0.7589  0.1423
   17SAPC  C314 2253   2.374   3.058   8.671  0.7350  0.6714 -0.0413
   17SAPC  H14X 2254   2.276   3.034   8.717  0.9387  0.5399  0.3211
   17SAPC  H14Y 2255   2.396   2.982   8.592  0.1162 -1.0584  1.4310
   17SAPC  C315 2256   2.378   3.197   8.609 -1.0864 -0.8287  0.1121
   17SAPC  H15X 2257   2.329   3.273   8.674  0.4600  2.1692 -2.1103
   17SAPC  H15Y 2258   2.321   3.212   8.515 -0.3283 -0.2288 -0.2599
   17SAPC  C316 2259   2.520   3.243   8.567  0.4193  0.3344  0.7097
   17SAPC  H16X 2260   2.585   3.261   8.655  1.9294 -0.7741 -0.1501
   17SAPC  H16Y 2261   2.501   3.340   8.515  1.9424  1.6791  2.5900
   17SAPC  C317 2262   2.597   3.140   8.483  0.3267 -0.3006 -0.5000
   17SAPC  H17X 2263   2.541   3.087   8.404 -1.1103 -1.1576  1.0670
   17SAPC  H17Y 2264   2.640   3.064   8.553  2.3090  1.6344  0.4401
   17SAPC  C318 2265   2.720   3.205   8.425  0.4203 -0.4709 -0.6746
   17SAPC  H18X 2266   2.803   3.131   8.411  1.1553  0.0847  0.6482
   17SAPC  H18Y 2267   2.696   3.231   8.320  0.4420  0.7508 -0.3769
   17SAPC  H18Z 2268   2.766   3.293   8.474  1.7276 -1.5096  0.0113
   18SAPC     N 2269   3.478   3.067  10.836 -0.1092 -0.6932  0.3306
   18SAPC   C12 2270   3.570   2.951  10.868 -0.1083 -0.3644 -0.6995
   18SAPC  H12A 2271   3.503   2.871  10.896  0.7463 -0.8552 -0.0166
   18SAPC  H12B 2272   3.638   2.980  10.946  0.0752 -0.1132 -0.9514
   18SAPC   C13 2273   3.547   3.195  10.807  0.2709 -0.1528  0.3890
   18SAPC  H13A 2274   3.616   3.183  10.725 -0.0243  0.9749 -0.0418
   18SAPC  H13B 2275   3.480   3.267  10.761 -0.1151 -2.8090 -3.3418
   18SAPC  H13C 2276   3.580   3.243  10.898 -1.1164  0.6000  0.5126
   18SAPC   C14 2277   3.400   3.025  10.717 -0.0733  0.0343  0.1461
   18SAPC  H14A 2278   3.362   2.927  10.741  1.0934 -0.1819  1.1258
   18SAPC  H14B 2279   3.323   3.095  10.688 -2.9592 -2.2045  2.1158
   18SAPC  H14C 2280   3.468   3.009  10.634 -0.8646 -0.0809 -0.4872
   18SAPC   C15 2281   3.367   3.091  10.939 -0.1539  1.0391  0.1789
   18SAPC  H15A 2282   3.316   2.999  10.965  1.6969 -0.0329  0.0717
   18SAPC  H15B 2283   3.400   3.120  11.037 -1.0461  1.1885  0.4400
   18SAPC  H15C 2284   3.286   3.147  10.894  1.7028  1.5158 -2.6832
   18SAPC   C11 2285   3.662   2.909  10.751 -0.1285  0.8863 -0.5634
   18SAPC  H11A 2286   3.743   2.858  10.807  0.8688 -0.6382 -3.2936
   18SAPC  H11B 2287   3.710   2.997  10.702 -0.4506  2.1665  1.3734
   18SAPC     P 2288   3.574   2.667  10.674 -0.1362 -0.1054  0.0103
   18SAPC   O13 2289   3.589   2.620  10.818  0.1974 -0.6851  0.0506
   18SAPC   O14 2290   3.449   2.630  10.603 -0.2476  0.8174 -0.1428
   18SAPC   O12 2291   3.597   2.819  10.661 -0.2274 -0.5226  0.1623
   18SAPC   O11 2292   3.685   2.596  10.593  0.2652  0.7382  0.3174
   18SAPC    C1 2293   3.738   2.645  10.468  0.6007 -0.4708 -0.1609
   18SAPC    HA 2294   3.714   2.752  10.455  0.9581 -0.2636  0.8785
   18SAPC    HB 2295   3.850   2.644  10.467  0.5979 -1.0014 -0.3566
   18SAPC    C2 2296   3.682   2.577  10.337 -0.5673  1.0390 -0.0388
   18SAPC    HS 2297   3.760   2.534  10.270 -0.8421 -1.4111  1.1570
   18SAPC   O21 2298   3.597   2.669  10.262 -0.0424 -0.2097  0.0278
   18SAPC   C21 2299   3.670   2.750  10.186  0.0167 -0.4530 -0.2553
   18SAPC   O22 2300   3.791   2.749  10.181  0.1480 -0.3167 -0.1588
   18SAPC   C22 2301   3.580   2.828  10.091  0.3680  0.3749 -0.2990
   18SAPC   H2R 2302   3.543   2.760  10.011  2.0960  0.6989 -1.3856
   18SAPC   H2S 2303   3.493   2.867  10.147 -0.8853 -2.9968  0.2546
   18SAPC    C3 2304   3.586   2.454  10.373 -0.6037 -0.2345 -0.1690
   18SAPC    HX 2305   3.492   2.505  10.403 -0.3027  0.5967 -0.6480
   18SAPC    HY 2306   3.604   2.412  10.475  0.5597  2.7184  0.8716
   18SAPC   O31 2307   3.565   2.357  10.267  0.4306 -0.1879  0.1388
   18SAPC   C31 2308   3.444   2.354  10.206  0.8983 -0.1706  0.8875
   18SAPC   O32 2309   3.353   2.436  10.228 -0.8158 -0.0482 -0.3903
   18SAPC   C32 2310   3.454   2.246  10.102 -0.0534  0.1843  0.3071
   18SAPC   H2X 2311   3.481   2.152  10.155 -0.3740 -0.8713 -1.3666
   18SAPC   H2Y 2312   3.530   2.284  10.031 -1.5553 -2.3814 -2.7624
   18SAPC   C23 2313   3.646   2.948  10.021  0.5104  0.3679 -1.0133
   18SAPC   H3R 2314   3.737   2.983  10.075  0.1581 -3.1904  2.1074
   18SAPC   H3S 2315   3.571   3.029  10.033  0.0654 -0.1733 -0.0761
   18SAPC   C24 2316   3.673   2.938   9.866  0.0200  0.5421  0.3674
   18SAPC   H4R 2317   3.688   3.046   9.845 -0.6317  0.7267  0.8312
   18SAPC   H4S 2318   3.578   2.914   9.812 -0.9123  3.6204  0.5043
   18SAPC   C25 2319   3.782   2.841   9.823 -0.5958  0.0815 -0.2546
   18SAPC   H5R 2320   3.848   2.806   9.904 -2.6412  0.6007  1.6855
   18SAPC   C26 2321   3.802   2.798   9.696 -0.4162 -0.4121 -0.2851
   18SAPC   H6R 2322   3.884   2.727   9.683 -0.0516  0.4334 -2.8604
   18SAPC   C27 2323   3.731   2.843   9.574  1.3566 -0.7355 -0.5804
   18SAPC   H7R 2324   3.653   2.916   9.601  1.0784 -1.1297 -0.3214
   18SAPC   H7S 2325   3.666   2.761   9.537 -0.8456  1.7688 -2.3957
   18SAPC   C28 2326   3.818   2.904   9.473 -0.3830  0.0922 -0.0898
   18SAPC   H8R 2327   3.926   2.912   9.494 -0.0227 -0.9679 -1.4524
   18SAPC   C29 2328   3.773   2.945   9.346  0.7694 -0.4567 -0.9380
   18SAPC   H9R 2329   3.839   2.974   9.263 -0.7320 -2.2341 -2.8182
   18SAPC  C210 2330   3.631   2.940   9.295 -0.2645 -0.3592 -0.0542
   18SAPC  H10R 2331   3.580   2.983   9.384  1.0223 -1.8760  1.4271
   18SAPC  H10S 2332   3.585   2.840   9.280 -0.3585 -0.4142  0.6170
   18SAPC  C211 2333   3.604   3.030   9.183  0.2020 -0.2380  0.0461
   18SAPC  H11R 2334   3.578   3.131   9.217  1.4264  0.8915 -2.3203
   18SAPC  C212 2335   3.588   2.989   9.052 -0.1742  0.6919 -0.0006
   18SAPC  H12R 2336   3.562   3.064   8.976  2.0774  0.6052 -0.9035
   18SAPC  C213 2337   3.590   2.850   8.995  0.9213  0.4209 -0.6220
   18SAPC  H13R 2338   3.665   2.788   9.047 -1.0765 -2.1103 -0.6395
   18SAPC  H13S 2339   3.617   2.849   8.887  1.5139 -0.3665 -0.4650
   18SAPC  C214 2340   3.457   2.783   8.996  0.0913  0.4247 -0.1411
   18SAPC  H14R 2341   3.449   2.736   9.096  0.6915 -0.5920 -0.5682
   18SAPC  C215 2342   3.358   2.782   8.902 -0.3176  0.3340 -0.2687
   18SAPC  H15R 2343   3.268   2.721   8.915 -0.1204  0.0021 -0.4621
   18SAPC  C216 2344   3.361   2.859   8.776 -0.0718 -0.0080  0.4957
   18SAPC  H16R 2345   3.311   2.798   8.698 -0.1555 -1.4692  1.6648
   18SAPC  H16S 2346   3.465   2.880   8.743 -0.9183  3.1143 -0.3363
   18SAPC  C217 2347   3.293   2.997   8.786  0.5322  0.0532 -0.5420
   18SAPC  H17R 2348   3.307   3.045   8.687  1.7587 -0.8634 -0.8263
   18SAPC  H17S 2349   3.334   3.067   8.861  0.6447  0.6876 -1.1956
   18SAPC  C218 2350   3.147   2.984   8.808  0.1285  0.7859 -0.5977
   18SAPC  H18R 2351   3.110   2.932   8.899 -1.3107 -0.7833 -2.0511
   18SAPC  H18S 2352   3.105   2.920   8.728 -1.6212 -0.2784  1.1076
   18SAPC  C219 2353   3.072   3.114   8.791 -0.1101  1.0640 -0.6244
   18SAPC  H19R 2354   3.083   3.174   8.698 -1.4660  3.2306  0.5518
   18SAPC  H19S 2355   3.109   3.187   8.866 -5.3078  0.4533  2.7389
   18SAPC  C220 2356   2.919   3.101   8.814 -0.3911 -0.5732 -0.0218
   18SAPC  H20R 2357   2.907   3.036   8.903  0.3972  2.2063  2.1927
   18SAPC  H20S 2358   2.871   3.074   8.718 -0.4831  0.4346 -0.2681
   18SAPC  H20T 2359   2.870   3.197   8.842 -2.2201 -1.5488  0.1992
   18SAPC   C33 2360   3.327   2.217  10.023 -0.3244 -0.3358  0.1304
   18SAPC   H3X 2361   3.246   2.186  10.092 -0.4069 -0.1966  0.0964
   18SAPC   H3Y 2362   3.356   2.141   9.947 -2.9297 -1.9747  0.7171
   18SAPC   C34 2363   3.276   2.336   9.934  0.1014  0.3571  0.3660
   18SAPC   H4X 2364   3.241   2.425   9.990 -0.7982  0.1510  0.1336
   18SAPC   H4Y 2365   3.186   2.290   9.888 -0.4162  1.7092  0.0310
   18SAPC   C35 2366   3.368   2.386   9.829  0.3904  0.1558  0.0881
   18SAPC   H5X 2367   3.459   2.428   9.877  0.5735 -0.9962  0.7735
   18SAPC   H5Y 2368   3.309   2.456   9.767  0.7180 -1.2192 -1.8359
   18SAPC   C36 2369   3.413   2.276   9.732  0.5533 -0.6193  0.0340
   18SAPC   H6X 2370   3.319   2.230   9.694 -0.9239  2.6264 -0.4405
   18SAPC   H6Y 2371   3.474   2.193   9.773  1.4215 -0.1311 -0.2478
   18SAPC   C37 2372   3.484   2.336   9.608  0.8487 -0.0321 -0.3353
   18SAPC   H7X 2373   3.484   2.248   9.540  0.4117 -1.7793  1.8730
   18SAPC   H7Y 2374   3.589   2.359   9.636  0.5021  0.1886  0.7852
   18SAPC   C38 2375   3.411   2.448   9.527 -0.2028 -0.7231  0.2493
   18SAPC   H8X 2376   3.460   2.467   9.429 -2.3528  0.5892 -0.6114
   18SAPC   H8Y 2377   3.405   2.542   9.586  0.3203 -1.4759  1.5184
   18SAPC   C39 2378   3.276   2.397   9.484 -0.0262  0.2659  0.5957
   18SAPC   H9X 2379   3.226   2.392   9.583 -0.7489  0.2711  0.2327
   18SAPC   H9Y 2380   3.270   2.296   9.438 -1.6401  0.8090 -0.3901
   18SAPC  C310 2381   3.197   2.488   9.392  0.1041 -0.2311 -0.3456
   18SAPC  H10X 2382   3.167   2.579   9.448 -1.4590 -0.3449 -0.9897
   18SAPC  H10Y 2383   3.115   2.418   9.367  0.5384 -0.3250 -1.5550
   18SAPC  C311 2384   3.261   2.524   9.258  0.6247 -0.1369  0.1012
   18SAPC  H11X 2385   3.356   2.581   9.270 -0.2271  1.5777 -1.0787
   18SAPC  H11Y 2386   3.188   2.588   9.203  0.4413  0.8962  1.4906
   18SAPC  C312 2387   3.289   2.394   9.173  0.0572 -0.0142  1.2044
   18SAPC  H12X 2388   3.199   2.330   9.175 -0.8928  0.9425 -3.3902
   18SAPC  H12Y 2389   3.375   2.341   9.219 -1.3783 -0.6314  3.2155
   18SAPC  C313 2390   3.327   2.431   9.030  0.1280 -0.2118 -0.3354
   18SAPC  H13X 2391   3.434   2.461   9.033 -0.1519  0.9534 -1.5027
   18SAPC  H13Y 2392   3.268   2.522   9.009  0.1219 -0.1168  0.0852
   18SAPC  C314 2393   3.309   2.317   8.928 -0.5458  0.2829  0.4967
   18SAPC  H14X 2394   3.317   2.356   8.825  0.1058 -1.7172 -0.2366
   18SAPC  H14Y 2395   3.212   2.265   8.942 -0.2063 -0.2368  0.9349
   18SAPC  C315 2396   3.411   2.200   8.937  0.2868  0.1449 -0.4482
   18SAPC  H15X 2397   3.367   2.140   9.019 -0.4185 -2.3087 -2.5356
   18SAPC  H15Y 2398   3.509   2.237   8.973 -0.0465 -0.0488  0.6627
   18SAPC  C316 2399   3.430   2.133   8.798 -0.4525  0.7200  0.0113
   18SAPC  H16X 2400   3.487   2.190   8.721  1.9884 -0.1039  1.1590
   18SAPC  H16Y 2401   3.327   2.137   8.756 -1.1204  0.1994  1.5833
   18SAPC  C317 2402   3.476   1.990   8.805 -0.4237  0.6457  0.7963
   18SAPC  H17X 2403   3.478   1.945   8.704 -0.6965  2.2827  0.0353
   18SAPC  H17Y 2404   3.408   1.939   8.876 -1.2151 -0.8666 -1.0052
   18SAPC  C318 2405   3.619   1.984   8.855 -0.2077 -0.3669 -0.7155
   18SAPC  H18X 2406   3.638   1.876   8.875 -0.6128 -0.7064 -2.0571
   18SAPC  H18Y 2407   3.640   2.042   8.947  0.4474  0.7410 -1.5443
   18SAPC  H18Z 2408   3.697   2.013   8.781 -1.2746 -0.4406 -1.9008
   19SAPC     N 2409   2.950   3.955  10.540  0.5205 -0.1124  0.4404
   19SAPC   C12 2410   2.822   3.986  10.475 -0.5911 -0.2528 -0.2230
   19SAPC  H12A 2411   2.758   4.042  10.543 -1.0963 -0.8224 -0.2234
   19SAPC  H12B 2412   2.767   3.901  10.438 -3.1054  0.5970  1.4161
   19SAPC   C13 2413   2.919   3.868  10.656 -0.4351  0.1991 -0.0979
   19SAPC  H13A 2414   2.858   3.786  10.623  0.6342 -0.3827 -0.6777
   19SAPC  H13B 2415   3.005   3.832  10.711  0.6273  2.5951 -0.1045
   19SAPC  H13C 2416   2.867   3.932  10.725 -1.8139  0.0140 -0.9538
   19SAPC   C14 2417   3.041   3.878  10.447 -0.4982  0.0405  0.1043
   19SAPC  H14A 2418   2.985   3.799  10.398  1.0704  0.2429 -2.0656
   19SAPC  H14B 2419   3.078   3.953  10.379 -1.2645  0.4179  0.0999
   19SAPC  H14C 2420   3.126   3.841  10.502 -1.0568 -0.9808  0.2920
   19SAPC   C15 2421   3.018   4.083  10.583  0.9662 -0.1891 -0.3493
   19SAPC  H15A 2422   3.109   4.062  10.638  0.0698  0.8951  1.5987
   19SAPC  H15B 2423   3.038   4.151  10.501 -4.5309  2.9730  0.7287
   19SAPC  H15C 2424   2.949   4.140  10.643  0.1722  0.4615 -1.8346
   19SAPC   C11 2425   2.831   4.081  10.346 -0.4396 -0.1689 -0.0777
   19SAPC  H11A 2426   2.742   4.073  10.280  0.1675  0.6598 -1.0130
   19SAPC  H11B 2427   2.916   4.040  10.287 -0.7194 -1.4595  0.4022
   19SAPC     P 2428   2.751   4.322  10.424 -0.1516  0.0659 -0.1834
   19SAPC   O13 2429   2.663   4.254  10.523 -0.3448  0.4423  0.6807
   19SAPC   O14 2430   2.811   4.453  10.466  0.4661  0.3999 -0.5133
   19SAPC   O12 2431   2.871   4.217  10.381  0.1315  0.3500  0.0051
   19SAPC   O11 2432   2.673   4.329  10.290  0.6713 -0.2234  0.1329
   19SAPC    C1 2433   2.673   4.447  10.207  0.3214 -0.5101 -0.2233
   19SAPC    HA 2434   2.754   4.517  10.238 -0.9289  0.5341  0.7743
   19SAPC    HB 2435   2.688   4.427  10.099  3.8138  0.2533  0.0478
   19SAPC    C2 2436   2.535   4.526  10.223 -0.0079  0.6619 -0.2169
   19SAPC    HS 2437   2.526   4.538  10.333  0.9796  0.9312 -0.1651
   19SAPC   O21 2438   2.429   4.450  10.165  0.0198  0.2683  0.1042
   19SAPC   C21 2439   2.309   4.470  10.211  0.6998 -0.6668  0.2876
   19SAPC   O22 2440   2.279   4.544  10.301 -0.3509 -0.1097  0.6820
   19SAPC   C22 2441   2.205   4.416  10.118  0.2622 -0.3090  0.1281
   19SAPC   H2R 2442   2.239   4.312  10.099 -1.1122 -1.0529  1.5966
   19SAPC   H2S 2443   2.106   4.401  10.167  0.7052 -0.9876  0.8256
   19SAPC    C3 2444   2.557   4.664  10.157  0.0930  0.1080 -0.4092
   19SAPC    HX 2445   2.644   4.724  10.191 -1.1671  0.2897  2.6667
   19SAPC    HY 2446   2.457   4.712  10.168 -2.6774 -5.5726  1.3188
   19SAPC   O31 2447   2.574   4.640  10.019  0.6777  0.2184  0.5600
   19SAPC   C31 2448   2.555   4.747   9.933 -0.0749 -1.1289 -0.0810
   19SAPC   O32 2449   2.541   4.864   9.972 -0.0525  0.0449 -0.4521
   19SAPC   C32 2450   2.538   4.703   9.788  0.5675  0.0300 -0.0246
   19SAPC   H2X 2451   2.435   4.661   9.785  0.1286  1.0571  0.2876
   19SAPC   H2Y 2452   2.621   4.634   9.764  0.4488  0.1900 -0.9105
   19SAPC   C23 2453   2.196   4.498   9.987 -0.1476 -0.0088  0.6265
   19SAPC   H3R 2454   2.297   4.501   9.939 -0.3789  1.2438  0.2068
   19SAPC   H3S 2455   2.174   4.604  10.012 -3.4888 -1.1797  2.8573
   19SAPC   C24 2456   2.084   4.447   9.894 -0.9959  0.2099  0.5140
   19SAPC   H4R 2457   2.104   4.343   9.862  1.7374  0.7119  0.4908
   19SAPC   H4S 2458   2.080   4.508   9.801 -0.0458  0.0967  0.3930
   19SAPC   C25 2459   1.944   4.446   9.958 -0.3366 -0.2014  0.1302
   19SAPC   H5R 2460   1.935   4.358  10.023 -3.6716 -0.5764 -0.7165
   19SAPC   C26 2461   1.842   4.534   9.942  0.2232 -0.3628 -0.0116
   19SAPC   H6R 2462   1.742   4.516   9.983  0.4447  0.0196  0.7053
   19SAPC   C27 2463   1.830   4.643   9.834  0.5550 -0.1668  0.7734
   19SAPC   H7R 2464   1.921   4.706   9.824 -0.4525  0.9064 -2.2084
   19SAPC   H7S 2465   1.739   4.697   9.869  0.9284 -0.4435  2.1868
   19SAPC   C28 2466   1.794   4.571   9.706 -0.7945 -0.2195  0.2462
   19SAPC   H8R 2467   1.782   4.462   9.709 -0.5264 -0.3382 -1.9915
   19SAPC   C29 2468   1.782   4.627   9.581 -0.0426 -0.6726  0.3458
   19SAPC   H9R 2469   1.762   4.562   9.494  1.1295 -0.5818 -0.0121
   19SAPC  C210 2470   1.788   4.773   9.550 -0.2520  0.7500  0.1043
   19SAPC  H10R 2471   1.876   4.817   9.603  0.3869 -2.7251  2.0367
   19SAPC  H10S 2472   1.696   4.830   9.575 -1.0475 -0.8014  0.7700
   19SAPC  C211 2473   1.811   4.800   9.408 -0.6188  0.5313 -0.2173
   19SAPC  H11R 2474   1.912   4.841   9.396 -0.7532  1.2696  1.1008
   19SAPC  C212 2475   1.725   4.790   9.303  0.7022  0.7991 -0.1155
   19SAPC  H12R 2476   1.752   4.830   9.204 -1.1461 -0.6801 -1.2589
   19SAPC  C213 2477   1.583   4.725   9.304 -0.6309 -0.2399  0.1284
   19SAPC  H13R 2478   1.530   4.763   9.214 -1.6403 -0.2866  0.6965
   19SAPC  H13S 2479   1.519   4.758   9.389 -1.9831  1.2321 -1.4124
   19SAPC  C214 2480   1.592   4.574   9.296 -0.1579 -0.1948 -0.1411
   19SAPC  H14R 2481   1.582   4.530   9.396 -0.0291  2.1268  0.9114
   19SAPC  C215 2482   1.592   4.499   9.181 -0.0195 -0.0725  0.1767
   19SAPC  H15R 2483   1.593   4.389   9.191  0.2506 -0.2560 -1.6853
   19SAPC  C216 2484   1.595   4.552   9.044  0.0207 -0.1146  0.4305
   19SAPC  H16R 2485   1.659   4.501   8.969 -0.2584 -0.3738  0.3661
   19SAPC  H16S 2486   1.643   4.651   9.050  1.8621 -1.1356  3.7893
   19SAPC  C217 2487   1.462   4.570   8.969 -0.4026 -0.4185 -0.5252
   19SAPC  H17R 2488   1.393   4.484   8.983  0.2222 -0.3743  3.7373
   19SAPC  H17S 2489   1.478   4.596   8.863  0.7671  0.6327 -0.1054
   19SAPC  C218 2490   1.377   4.688   9.011 -0.3661 -0.8155 -0.7314
   19SAPC  H18R 2491   1.438   4.777   8.984 -2.6543  0.4684 -1.7849
   19SAPC  H18S 2492   1.363   4.688   9.121  0.5212 -0.3206 -0.6078
   19SAPC  C219 2493   1.250   4.689   8.936  1.1027 -0.3844 -0.4861
   19SAPC  H19R 2494   1.184   4.613   8.982  1.6327 -1.3596 -1.2948
   19SAPC  H19S 2495   1.263   4.659   8.830 -0.8308 -0.5063 -0.6944
   19SAPC  C220 2496   1.179   4.828   8.933  0.7166 -0.8668 -0.8216
   19SAPC  H20R 2497   1.140   4.850   9.034  2.4773  0.2541 -0.3714
   19SAPC  H20S 2498   1.113   4.852   8.847 -0.4737 -2.8744 -0.5116
   19SAPC  H20T 2499   1.264   4.898   8.923 -0.4984  0.6353 -0.8993
   19SAPC   C33 2500   2.534   4.818   9.686 -0.7812 -0.3564 -0.1181
   19SAPC   H3X 2501   2.492   4.911   9.729 -0.5071 -1.8068  3.3958
   19SAPC   H3Y 2502   2.477   4.779   9.598 -1.1767 -0.4548  0.1838
   19SAPC   C34 2503   2.679   4.840   9.643 -0.5899 -0.1834 -0.2135
   19SAPC   H4X 2504   2.703   4.763   9.567 -1.3570 -1.6376  0.9928
   19SAPC   H4Y 2505   2.752   4.837   9.727  0.1804 -0.5528 -0.8910
   19SAPC   C35 2506   2.693   4.980   9.582 -0.2463 -0.7023 -0.2858
   19SAPC   H5X 2507   2.802   4.993   9.566  0.2647 -0.7816  2.8261
   19SAPC   H5Y 2508   2.678   5.061   9.656 -1.1527 -0.0338 -1.1830
   19SAPC   C36 2509   2.613   5.008   9.455 -0.5533 -0.8271 -0.2778
   19SAPC   H6X 2510   2.629   5.110   9.413  0.8407 -1.4238 -1.2303
   19SAPC   H6Y 2511   2.504   4.995   9.465 -0.5383  0.5512  2.1898
   19SAPC   C37 2512   2.667   4.918   9.341  0.5343 -1.1111  0.4383
   19SAPC   H7X 2513   2.650   4.811   9.366  1.0097 -1.3587 -0.2672
   19SAPC   H7Y 2514   2.776   4.931   9.326  0.6515  0.7165  2.5474
   19SAPC   C38 2515   2.599   4.938   9.201  0.5316  0.7051 -1.1125
   19SAPC   H8X 2516   2.585   5.047   9.185 -2.2811  0.4459 -0.6964
   19SAPC   H8Y 2517   2.495   4.899   9.210  0.9983 -0.1804  0.7151
   19SAPC   C39 2518   2.682   4.870   9.092 -0.1763 -0.0309  0.0610
   19SAPC   H9X 2519   2.689   4.764   9.123 -1.7553 -0.4987 -1.1257
   19SAPC   H9Y 2520   2.788   4.902   9.099 -0.9247  2.3253  1.2776
   19SAPC  C310 2521   2.624   4.883   8.944 -0.0771  0.0946  0.2894
   19SAPC  H10X 2522   2.658   4.976   8.893  2.6610 -1.5013 -0.9201
   19SAPC  H10Y 2523   2.514   4.883   8.961 -0.1678  2.2692 -0.1272
   19SAPC  C311 2524   2.658   4.773   8.844  0.5462 -0.7786 -1.1136
   19SAPC  H11X 2525   2.636   4.677   8.893  0.2261  0.9447  2.2752
   19SAPC  H11Y 2526   2.767   4.779   8.821  0.5626  1.5177 -0.6227
   19SAPC  C312 2527   2.571   4.797   8.718  0.2355  0.1693  0.4740
   19SAPC  H12X 2528   2.588   4.902   8.686 -2.7719  0.6244  0.1642
   19SAPC  H12Y 2529   2.467   4.771   8.747  1.3781 -1.0460  3.6519
   19SAPC  C313 2530   2.598   4.718   8.588  0.4606  0.4357 -0.0975
   19SAPC  H13X 2531   2.561   4.615   8.609 -0.8619  0.5660 -1.6456
   19SAPC  H13Y 2532   2.706   4.705   8.567  0.2769 -1.3733 -0.0210
   19SAPC  C314 2533   2.532   4.768   8.457 -0.3557  0.5884 -0.2904
   19SAPC  H14X 2534   2.568   4.868   8.423 -0.4308 -0.3676 -3.3871
   19SAPC  H14Y 2535   2.423   4.755   8.469  0.0608 -2.2781  0.9540
   19SAPC  C315 2536   2.568   4.670   8.339  0.5001 -0.1455  0.2125
   19SAPC  H15X 2537   2.549   4.565   8.369  1.4526  0.0259  1.4728
   19SAPC  H15Y 2538   2.678   4.672   8.323  0.2711  4.2001 -1.5175
   19SAPC  C316 2539   2.491   4.697   8.211  0.4871  0.2802  0.4268
   19SAPC  H16X 2540   2.516   4.800   8.175  1.0480 -0.2461 -0.7168
   19SAPC  H16Y 2541   2.382   4.687   8.223  0.4100 -0.4071 -0.7900
   19SAPC  C317 2542   2.514   4.598   8.099 -0.0031 -0.4392  0.3696
   19SAPC  H17X 2543   2.623   4.590   8.081  0.1642  0.7890  0.8371
   19SAPC  H17Y 2544   2.472   4.641   8.006  0.4776 -0.4027  0.1682
   19SAPC  C318 2545   2.458   4.463   8.131  0.3488  0.3565 -0.4763
   19SAPC  H18X 2546   2.348   4.479   8.134  0.1521 -1.0035 -0.0820
   19SAPC  H18Y 2547   2.515   4.418   8.215 -0.4353 -0.3639 -0.3168
   19SAPC  H18Z 2548   2.485   4.393   8.049  2.1623  1.1036 -0.5361
   20SAPC     N 2549   1.676   2.002  11.428  0.1039 -0.6345 -0.8238
   20SAPC   C12 2550   1.607   2.021  11.296  0.2256 -0.5061  0.1528
   20SAPC  H12A 2551   1.546   2.109  11.280  1.6423  0.4548 -0.0590
   20SAPC  H12B 2552   1.535   1.943  11.279  1.7168 -1.1275 -3.8641
   20SAPC   C13 2553   1.759   1.877  11.426 -0.1192  0.1300  0.2387
   20SAPC  H13A 2554   1.827   1.873  11.510 -0.4595 -1.4395  0.4485
   20SAPC  H13B 2555   1.705   1.784  11.424  0.5803 -0.3232  1.7928
   20SAPC  H13C 2556   1.813   1.876  11.332  0.3948 -2.6179  0.5363
   20SAPC   C14 2557   1.773   2.112  11.449  0.3564 -0.4937 -0.6414
   20SAPC  H14A 2558   1.722   2.207  11.455  0.6245 -0.2869 -1.6948
   20SAPC  H14B 2559   1.825   2.090  11.541 -0.8920 -0.4208  0.1066
   20SAPC  H14C 2560   1.849   2.123  11.374  1.0990  0.2829  0.2150
   20SAPC   C15 2561   1.572   2.008  11.540 -0.5754  0.7640  0.0733
   20SAPC  H15A 2562   1.629   1.985  11.628 -2.2913 -2.6396  0.3792
   20SAPC  H15B 2563   1.538   2.110  11.544  4.9055  2.7050  2.5291
   20SAPC  H15C 2564   1.490   1.939  11.527  0.4148 -0.4147 -0.0172
   20SAPC   C11 2565   1.698   2.025  11.168  0.1742  0.2924  0.2876
   20SAPC  H11A 2566   1.753   2.122  11.177  0.5015  0.2918 -1.5319
   20SAPC  H11B 2567   1.629   2.042  11.082  1.1711 -0.6243 -0.7088
   20SAPC     P 2568   1.852   1.900  11.013 -0.4057 -0.4930  0.3483
   20SAPC   O13 2569   1.949   1.784  11.023 -0.6965 -0.1676  0.0741
   20SAPC   O14 2570   1.756   1.888  10.902  0.0449  0.8895  0.0762
   20SAPC   O12 2571   1.775   1.909  11.142  0.7704  0.2216 -0.0221
   20SAPC   O11 2572   1.928   2.040  11.005 -0.0330  0.1248 -0.1978
   20SAPC    C1 2573   1.914   2.122  10.888 -0.0597 -0.9273  0.4215
   20SAPC    HA 2574   1.826   2.098  10.824  0.6107 -1.4786 -0.3038
   20SAPC    HB 2575   1.903   2.228  10.920 -0.8348 -1.0245  0.4886
   20SAPC    C2 2576   2.038   2.105  10.796  1.1177 -0.0749 -0.6251
   20SAPC    HS 2577   2.027   2.189  10.724 -0.5091 -1.1656 -1.6803
   20SAPC   O21 2578   2.031   1.971  10.731 -0.6065 -0.4342  0.1183
   20SAPC   C21 2579   1.981   1.972  10.606  0.2090  0.0782 -0.3210
   20SAPC   O22 2580   1.952   2.068  10.545  0.3410 -0.6948  0.6729
   20SAPC   C22 2581   1.979   1.827  10.551 -0.3923  0.1602 -0.6106
   20SAPC   H2R 2582   2.089   1.825  10.542 -0.2625  3.1044 -0.1734
   20SAPC   H2S 2583   1.941   1.763  10.634  0.4395 -1.0388 -1.1484
   20SAPC    C3 2584   2.172   2.125  10.876  0.5627  0.3366 -0.7970
   20SAPC    HX 2585   2.169   2.055  10.963  2.7873  0.1195 -0.8640
   20SAPC    HY 2586   2.182   2.229  10.914 -1.0082  0.3308 -0.3195
   20SAPC   O31 2587   2.286   2.093  10.789  0.8721 -0.6717  0.1282
   20SAPC   C31 2588   2.325   1.969  10.798 -0.0158 -0.3660  0.6723
   20SAPC   O32 2589   2.304   1.889  10.886  0.6033 -0.7746 -0.5306
   20SAPC   C32 2590   2.407   1.927  10.670  0.0765 -0.8334  0.1248
   20SAPC   H2X 2591   2.501   1.985  10.672  0.7055 -1.8324 -0.0173
   20SAPC   H2Y 2592   2.344   1.966  10.587  1.6071 -1.6687 -1.4641
   20SAPC   C23 2593   1.909   1.814  10.418 -0.0434 -0.4379 -0.6021
   20SAPC   H3R 2594   1.951   1.890  10.348  0.6732  1.0533  1.4110
   20SAPC   H3S 2595   1.801   1.833  10.438 -0.0588 -0.1495 -0.9425
   20SAPC   C24 2596   1.932   1.672  10.367  0.0504 -0.5270 -0.1156
   20SAPC   H4R 2597   1.878   1.601  10.433 -0.8375 -2.3094 -2.7110
   20SAPC   H4S 2598   2.042   1.655  10.374  0.5091  1.6634 -1.2840
   20SAPC   C25 2599   1.879   1.656  10.229 -0.7032 -0.5660  0.2318
   20SAPC   H5R 2600   1.772   1.633  10.221 -0.3203 -1.7049 -2.2253
   20SAPC   C26 2601   1.949   1.677  10.117 -0.6523 -0.2922 -0.0516
   20SAPC   H6R 2602   1.907   1.643  10.021 -1.4410 -0.2607  0.2811
   20SAPC   C27 2603   2.097   1.712  10.101 -1.2041  0.0702  0.5378
   20SAPC   H7R 2604   2.161   1.645  10.162  1.7085  2.4352  0.1949
   20SAPC   H7S 2605   2.107   1.815  10.143 -1.3426  0.3638 -0.1439
   20SAPC   C28 2606   2.136   1.698   9.958 -0.4074  0.8269 -0.3758
   20SAPC   H8R 2607   2.199   1.609   9.950 -0.4608  0.6549  1.0540
   20SAPC   C29 2608   2.116   1.778   9.857  0.0132  0.1473 -0.3609
   20SAPC   H9R 2609   2.167   1.760   9.762 -1.9407  0.8489 -1.5773
   20SAPC  C210 2610   2.048   1.914   9.854 -0.6577 -0.2059  0.4121
   20SAPC  H10R 2611   1.996   1.934   9.950 -0.8354  0.2552  0.2200
   20SAPC  H10S 2612   1.975   1.931   9.771  0.2473  2.6028  0.1520
   20SAPC  C211 2613   2.160   2.010   9.847 -0.1160  0.3155  0.2364
   20SAPC  H11R 2614   2.196   2.062   9.936 -2.1537  1.8245  0.2091
   20SAPC  C212 2615   2.226   2.048   9.739 -0.4183  1.1395 -0.6463
   20SAPC  H12R 2616   2.314   2.113   9.744  1.3260 -0.8175 -4.0611
   20SAPC  C213 2617   2.214   1.999   9.596 -0.4684  0.4544  1.0515
   20SAPC  H13R 2618   2.214   1.888   9.592 -0.4103  0.5176 -1.0935
   20SAPC  H13S 2619   2.299   2.034   9.535 -1.0585  0.3659  0.1671
   20SAPC  C214 2620   2.086   2.030   9.523 -0.5245  0.6043 -0.0887
   20SAPC  H14R 2621   2.057   2.136   9.536 -0.2007  0.7807 -0.8091
   20SAPC  C215 2622   2.005   1.953   9.454 -0.0005 -0.6437  0.5538
   20SAPC  H15R 2623   1.927   2.002   9.395  1.2034  1.5414  0.6880
   20SAPC  C216 2624   2.018   1.801   9.440 -0.2232  0.3732  0.3695
   20SAPC  H16R 2625   1.918   1.757   9.459  0.2182  0.6837  3.8423
   20SAPC  H16S 2626   2.084   1.747   9.511 -0.2900 -1.3127 -0.8309
   20SAPC  C217 2627   2.066   1.754   9.303  0.5390  0.5539  0.0771
   20SAPC  H17R 2628   2.114   1.654   9.314  0.2032  0.5746  1.9297
   20SAPC  H17S 2629   2.138   1.827   9.261  0.3666  1.2908  1.0497
   20SAPC  C218 2630   1.955   1.740   9.193  0.1395  0.6553 -0.0375
   20SAPC  H18R 2631   1.926   1.843   9.162 -0.8663  0.8311  1.4199
   20SAPC  H18S 2632   1.870   1.702   9.254 -0.7312 -0.8332 -2.1064
   20SAPC  C219 2633   1.997   1.647   9.078  0.2799  0.1405 -0.0258
   20SAPC  H19R 2634   1.980   1.547   9.122  1.4530  0.6287  1.5981
   20SAPC  H19S 2635   2.104   1.670   9.061  0.7416 -0.6057  1.8047
   20SAPC  C220 2636   1.904   1.664   8.957  0.5660  0.5175  0.6396
   20SAPC  H20R 2637   1.913   1.591   8.873 -0.2596  1.1480 -0.0158
   20SAPC  H20S 2638   1.899   1.768   8.919 -0.6310  0.1136 -0.3411
   20SAPC  H20T 2639   1.801   1.642   8.992  0.1845  0.6695 -0.3478
   20SAPC   C33 2640   2.428   1.772  10.675  0.4063 -0.2312 -0.0384
   20SAPC   H3X 2641   2.326   1.730  10.661 -1.0453  2.8770  0.9192
   20SAPC   H3Y 2642   2.453   1.740  10.779  0.4164 -1.0583 -0.2879
   20SAPC   C34 2643   2.511   1.720  10.563  0.1454  0.1714 -0.2857
   20SAPC   H4X 2644   2.530   1.611  10.568 -0.0900  0.1767  1.0760
   20SAPC   H4Y 2645   2.615   1.758  10.570  0.7280 -1.1991 -1.2390
   20SAPC   C35 2646   2.449   1.738  10.423 -0.3144  0.3213 -0.4047
   20SAPC   H5X 2647   2.386   1.829  10.418 -0.1301  0.3560 -2.7167
   20SAPC   H5Y 2648   2.376   1.655  10.413 -1.2558  0.9860  0.9098
   20SAPC   C36 2649   2.559   1.744  10.316 -0.9445  0.3874  0.5803
   20SAPC   H6X 2650   2.636   1.666  10.333 -3.0298 -1.7922  0.2906
   20SAPC   H6Y 2651   2.614   1.840  10.328  1.0547 -0.5270 -1.0251
   20SAPC   C37 2652   2.508   1.737  10.167 -0.0100  0.7859  0.4374
   20SAPC   H7X 2653   2.412   1.792  10.161 -0.9093 -0.7524  0.3081
   20SAPC   H7Y 2654   2.485   1.629  10.152 -0.1139  0.8974 -0.2180
   20SAPC   C38 2655   2.592   1.788  10.056 -0.4805 -0.1890 -0.6890
   20SAPC   H8X 2656   2.688   1.732  10.049 -2.0485 -3.2202  1.2747
   20SAPC   H8Y 2657   2.621   1.891  10.087  0.1990  0.3813 -3.1470
   20SAPC   C39 2658   2.520   1.753   9.925  0.0382 -0.4101 -0.0441
   20SAPC   H9X 2659   2.443   1.828   9.899  1.0212 -0.2318 -2.5647
   20SAPC   H9Y 2660   2.474   1.651   9.925  0.8524 -0.7861  1.0763
   20SAPC  C310 2661   2.610   1.751   9.804 -0.1295 -0.4432  0.2112
   20SAPC  H10X 2662   2.697   1.683   9.817  1.3114  1.1662 -0.7232
   20SAPC  H10Y 2663   2.650   1.855   9.799  0.2291 -0.4858  1.7515
   20SAPC  C311 2664   2.550   1.727   9.664  0.6813 -0.7631  0.4483
   20SAPC  H11X 2665   2.476   1.809   9.652  0.5201 -0.7555  1.4078
   20SAPC  H11Y 2666   2.493   1.631   9.668 -0.2627 -0.1657  2.0316
   20SAPC  C312 2667   2.642   1.732   9.542  0.3781  0.4424  0.1618
   20SAPC  H12X 2668   2.678   1.627   9.537  0.3208  0.4401 -0.2561
   20SAPC  H12Y 2669   2.728   1.802   9.557 -0.3684  1.1174  1.3497
   20SAPC  C313 2670   2.574   1.774   9.412  0.3117  0.0367  0.4993
   20SAPC  H13X 2671   2.485   1.710   9.393  0.5906 -0.1048 -0.3580
   20SAPC  H13Y 2672   2.646   1.745   9.332  1.4993 -0.0452  1.5946
   20SAPC  C314 2673   2.550   1.928   9.395 -0.0906  0.2088  0.1855
   20SAPC  H14X 2674   2.647   1.969   9.357 -0.1330 -0.9615 -1.2560
   20SAPC  H14Y 2675   2.527   1.979   9.491 -2.9036  0.6550 -0.6924
   20SAPC  C315 2676   2.445   1.964   9.291 -0.1786 -0.1193 -0.3214
   20SAPC  H15X 2677   2.396   2.061   9.314  0.0941 -0.1856  0.5286
   20SAPC  H15Y 2678   2.367   1.886   9.305 -1.6281  1.0126 -1.7739
   20SAPC  C316 2679   2.494   1.965   9.142  0.0729  0.2101 -0.2635
   20SAPC  H16X 2680   2.558   1.875   9.130 -1.9365 -1.0314 -1.9242
   20SAPC  H16Y 2681   2.553   2.056   9.117 -0.9964  1.3706  1.2959
   20SAPC  C317 2682   2.371   1.952   9.037  0.4450  0.6431 -0.8754
   20SAPC  H17X 2683   2.306   2.041   9.049 -1.0676 -0.3145 -1.7410
   20SAPC  H17Y 2684   2.312   1.863   9.067  2.5669 -0.9057 -1.1456
   20SAPC  C318 2685   2.408   1.942   8.890  0.8070 -0.5247 -0.0112
   20SAPC  H18X 2686   2.471   1.850   8.878 -0.7485 -1.5418 -0.5040
   20SAPC  H18Y 2687   2.457   2.036   8.857  1.6954  0.4028  3.7100
   20SAPC  H18Z 2688   2.316   1.938   8.829 -1.1524  0.9851  2.7323
   21SAPC     N 2689   2.102   0.333  10.876  0.1504 -0.6246  0.0765
   21SAPC   C12 2690   2.184   0.386  10.757  0.5515  0.1031 -0.3678
   21SAPC  H12A 2691   2.203   0.306  10.688 -0.5767  0.2898 -0.9026
   21SAPC  H12B 2692   2.284   0.406  10.794  0.7901  0.3095 -1.1260
   21SAPC   C13 2693   2.092   0.431  10.985  0.0585 -1.0332 -0.6514
   21SAPC  H13A 2694   2.190   0.428  11.032 -1.0735 -2.9993  1.6860
   21SAPC  H13B 2695   2.084   0.533  10.951  1.8813 -0.6243  0.0765
   21SAPC  H13C 2696   2.012   0.402  11.052 -2.3616 -0.2926 -3.1374
   21SAPC   C14 2697   1.964   0.314  10.824  0.3060 -0.1704  0.0927
   21SAPC  H14A 2698   1.901   0.275  10.902  0.8251  0.1529  0.6813
   21SAPC  H14B 2699   1.917   0.401  10.779 -2.5498 -1.2088  0.9931
   21SAPC  H14C 2700   1.969   0.252  10.736 -0.8015 -1.1379  0.7057
   21SAPC   C15 2701   2.150   0.197  10.925 -0.0784  0.3632 -0.5003
   21SAPC  H15A 2702   2.078   0.151  10.992  0.7974  3.1991  2.5754
   21SAPC  H15B 2703   2.166   0.138  10.837 -3.4698  2.2423 -2.4794
   21SAPC  H15C 2704   2.248   0.214  10.966  0.3966  1.4995 -2.0955
   21SAPC   C11 2705   2.139   0.510  10.663 -0.1800  0.2465  0.2678
   21SAPC  H11A 2706   2.044   0.492  10.608 -0.4763  0.3450  0.7381
   21SAPC  H11B 2707   2.215   0.517  10.583 -1.4114  2.0069 -0.7945
   21SAPC     P 2708   2.228   0.735  10.769 -0.5256 -0.0612 -0.1077
   21SAPC   O13 2709   2.302   0.679  10.891  0.6335 -0.2564  0.6651
   21SAPC   O14 2710   2.308   0.756  10.648 -0.0712  0.2714  0.3486
   21SAPC   O12 2711   2.118   0.632  10.734  0.3406 -0.5870  0.1079
   21SAPC   O11 2712   2.171   0.878  10.805  0.1998  0.3531  0.0275
   21SAPC    C1 2713   2.033   0.913  10.776 -0.3870  0.1247 -0.0573
   21SAPC    HA 2714   1.960   0.829  10.774  1.5628 -1.7444  2.6543
   21SAPC    HB 2715   2.004   0.971  10.866  0.4559  1.0821 -0.3930
   21SAPC    C2 2716   2.007   0.999  10.653  0.3426  0.6514 -0.8540
   21SAPC    HS 2717   1.897   1.013  10.644 -0.1835 -3.3524 -1.7210
   21SAPC   O21 2718   2.056   0.929  10.536  0.3852 -0.5357  0.3105
   21SAPC   C21 2719   1.977   0.830  10.495 -0.0719  0.4125 -0.0787
   21SAPC   O22 2720   1.871   0.794  10.542 -0.0586  0.3206  0.1061
   21SAPC   C22 2721   2.050   0.755  10.382 -0.1377 -0.2966 -0.0806
   21SAPC   H2R 2722   2.133   0.816  10.340 -0.5269  1.0822  1.1328
   21SAPC   H2S 2723   2.098   0.667  10.430  0.8215  0.1167 -0.2552
   21SAPC    C3 2724   2.086   1.135  10.684  0.1239  1.0633 -0.6292
   21SAPC    HX 2725   2.188   1.109  10.720 -1.0760 -0.7260  1.5560
   21SAPC    HY 2726   2.040   1.175  10.777 -1.1472 -0.2851 -0.6564
   21SAPC   O31 2727   2.079   1.228  10.573 -0.8327  0.3636  0.3227
   21SAPC   C31 2728   2.179   1.315  10.572 -0.3304 -1.0570  0.8372
   21SAPC   O32 2729   2.268   1.330  10.650 -0.0723  0.1892 -0.0974
   21SAPC   C32 2730   2.167   1.386  10.433  0.7731 -0.6336  0.0755
   21SAPC   H2X 2731   2.239   1.471  10.431  0.7814 -0.6070  1.2811
   21SAPC   H2Y 2732   2.065   1.426  10.417 -0.0155 -2.4653  0.5023
   21SAPC   C23 2733   1.965   0.724  10.264  0.3011  0.3828 -0.0097
   21SAPC   H3R 2734   1.864   0.701  10.305  1.5007 -0.2384  2.7046
   21SAPC   H3S 2735   2.001   0.639  10.202 -1.9698 -0.8623  0.3002
   21SAPC   C24 2736   1.933   0.836  10.165  0.1083  0.8554  0.8340
   21SAPC   H4R 2737   1.879   0.923  10.209  0.2138  1.8111 -0.8906
   21SAPC   H4S 2738   1.865   0.790  10.089  1.6096  0.6720 -0.4213
   21SAPC   C25 2739   2.050   0.907  10.101 -0.2501 -0.0051  0.0915
   21SAPC   H5R 2740   2.121   0.945  10.176  1.4495 -0.4552 -1.2346
   21SAPC   C26 2741   2.077   0.910   9.968 -0.3793  0.0328  0.2016
   21SAPC   H6R 2742   2.160   0.971   9.928 -1.2899 -0.1560 -2.0162
   21SAPC   C27 2743   2.005   0.855   9.847 -0.4253  0.7411  0.0304
   21SAPC   H7R 2744   1.931   0.783   9.885 -0.4305 -0.5118 -2.2374
   21SAPC   H7S 2745   2.076   0.788   9.793 -1.1354 -0.9766  1.2336
   21SAPC   C28 2746   1.952   0.982   9.782  0.4407  0.1136 -0.0893
   21SAPC   H8R 2747   1.884   1.036   9.850  0.5996  0.9387 -0.5844
   21SAPC   C29 2748   1.953   1.010   9.655 -0.1849 -0.2215  0.7865
   21SAPC   H9R 2749   1.904   1.102   9.621 -0.3685  0.3246  2.4767
   21SAPC  C210 2750   2.020   0.918   9.561 -0.2973  0.7192 -0.3926
   21SAPC  H10R 2751   1.962   0.823   9.565  0.6493  0.0360 -2.2235
   21SAPC  H10S 2752   2.112   0.889   9.615 -0.8300 -0.2607  0.0109
   21SAPC  C211 2753   2.055   0.973   9.428 -0.8185  0.0400 -0.0648
   21SAPC  H11R 2754   2.137   1.046   9.432 -1.8706  1.2444 -0.0485
   21SAPC  C212 2755   1.990   0.962   9.311  0.2220  0.3754  0.3031
   21SAPC  H12R 2756   2.027   1.003   9.215  2.4271  0.8082  1.3017
   21SAPC  C213 2757   1.860   0.877   9.294 -0.5796  0.3151 -0.2979
   21SAPC  H13R 2758   1.790   0.944   9.240 -0.5047 -1.1704 -2.2800
   21SAPC  H13S 2759   1.803   0.864   9.389 -0.5826  0.6181 -0.2573
   21SAPC  C214 2760   1.880   0.734   9.235 -0.6012  0.4959 -0.0279
   21SAPC  H14R 2761   1.893   0.659   9.315  0.7227 -1.1337 -1.7165
   21SAPC  C215 2762   1.898   0.699   9.110  0.0113  0.4558 -0.4465
   21SAPC  H15R 2763   1.886   0.590   9.097 -0.7969  0.3536  1.0311
   21SAPC  C216 2764   1.896   0.787   8.989 -0.0652 -0.1685  0.5044
   21SAPC  H16R 2765   1.960   0.757   8.903  2.0446 -0.2455  2.0651
   21SAPC  H16S 2766   1.921   0.893   9.015  2.5999 -0.6705  0.1550
   21SAPC  C217 2767   1.748   0.789   8.941  0.4781  0.2853  0.0891
   21SAPC  H17R 2768   1.732   0.847   8.847 -1.7585  1.3951  1.1246
   21SAPC  H17S 2769   1.684   0.835   9.019 -0.5904  1.3516 -1.3734
   21SAPC  C218 2770   1.698   0.644   8.893  0.0238  0.0485  0.2647
   21SAPC  H18R 2771   1.590   0.642   8.866 -0.2925 -0.1967  1.4920
   21SAPC  H18S 2772   1.702   0.572   8.978 -2.1725 -2.7426 -1.9041
   21SAPC  C219 2773   1.782   0.598   8.781 -0.1260  0.1943  0.0146
   21SAPC  H19R 2774   1.887   0.592   8.817 -0.9612 -0.8689  2.3160
   21SAPC  H19S 2775   1.780   0.679   8.704 -2.0419 -0.0174 -0.1852
   21SAPC  C220 2776   1.749   0.464   8.712 -0.5768  0.5430  0.5915
   21SAPC  H20R 2777   1.646   0.460   8.670  1.0014 -1.1937 -3.3911
   21SAPC  H20S 2778   1.757   0.384   8.788 -3.1113  0.5442  0.8975
   21SAPC  H20T 2779   1.818   0.448   8.626 -3.4057 -2.3231 -1.2288
   21SAPC   C33 2780   2.183   1.285  10.314  0.9824  0.0949 -0.3467
   21SAPC   H3X 2781   2.090   1.226  10.296  0.8687 -0.2455  1.2919
   21SAPC   H3Y 2782   2.267   1.216  10.339  1.4820  0.3048 -1.3992
   21SAPC   C34 2783   2.220   1.348  10.179  0.5035 -0.0680  0.4641
   21SAPC   H4X 2784   2.304   1.421  10.181 -0.7277  1.6691 -3.5194
   21SAPC   H4Y 2785   2.131   1.411  10.154  0.3102 -0.4473  0.1789
   21SAPC   C35 2786   2.251   1.250  10.066  0.2448  0.0669  0.2535
   21SAPC   H5X 2787   2.164   1.185  10.043 -0.3368  0.8810  0.1514
   21SAPC   H5Y 2788   2.339   1.188  10.094  1.7403  2.2450  0.4749
   21SAPC   C36 2789   2.299   1.316   9.929  0.0891  0.5971  0.3280
   21SAPC   H6X 2790   2.394   1.372   9.944  0.0588  0.5653  0.6354
   21SAPC   H6Y 2791   2.213   1.387   9.924 -0.4806  0.0055  1.5500
   21SAPC   C37 2792   2.301   1.234   9.806  0.1644  0.2636  0.5871
   21SAPC   H7X 2793   2.210   1.176   9.782 -0.1300  0.7690  0.4852
   21SAPC   H7Y 2794   2.389   1.165   9.807 -1.0280 -1.3445 -1.4259
   21SAPC   C38 2795   2.308   1.326   9.680 -0.5597 -0.6266  0.0088
   21SAPC   H8X 2796   2.401   1.385   9.673 -1.7945  1.1531 -1.8086
   21SAPC   H8Y 2797   2.228   1.404   9.680  0.1880  0.1608  0.6524
   21SAPC   C39 2798   2.302   1.249   9.544 -0.1916  0.6831  0.0898
   21SAPC   H9X 2799   2.194   1.230   9.522 -0.4229  0.3288  1.4778
   21SAPC   H9Y 2800   2.361   1.157   9.564  1.3607  1.2095 -1.9655
   21SAPC  C310 2801   2.357   1.328   9.429 -0.2339  0.3977 -0.2497
   21SAPC  H10X 2802   2.467   1.314   9.426  0.2578  3.9736 -1.5725
   21SAPC  H10Y 2803   2.346   1.437   9.449  1.5230  0.6719 -0.6887
   21SAPC  C311 2804   2.296   1.285   9.299  0.9164 -0.0988  0.1572
   21SAPC  H11X 2805   2.188   1.308   9.302  0.3463 -2.4430 -1.1059
   21SAPC  H11Y 2806   2.309   1.175   9.289  1.5922 -0.0024 -0.1123
   21SAPC  C312 2807   2.360   1.357   9.178 -0.2245 -0.2099  0.8115
   21SAPC  H12X 2808   2.449   1.298   9.149 -2.6561 -2.1115 -3.3599
   21SAPC  H12Y 2809   2.398   1.461   9.189  1.7012 -0.9093  0.9435
   21SAPC  C313 2810   2.253   1.370   9.067 -0.0838 -0.7820  0.1787
   21SAPC  H13X 2811   2.256   1.466   9.011  1.3652 -2.2768 -2.4006
   21SAPC  H13Y 2812   2.149   1.365   9.106  0.7581 -2.9581  2.2424
   21SAPC  C314 2813   2.273   1.264   8.962 -0.6010  0.4698  0.2922
   21SAPC  H14X 2814   2.262   1.167   9.013  1.4781  0.9186  1.6473
   21SAPC  H14Y 2815   2.372   1.274   8.912 -0.2757  3.3649  1.3930
   21SAPC  C315 2816   2.169   1.268   8.844 -0.0190 -0.2899 -0.1016
   21SAPC  H15X 2817   2.221   1.313   8.757 -2.1482 -0.3064 -1.4074
   21SAPC  H15Y 2818   2.090   1.343   8.867  1.6389  1.7616 -0.9638
   21SAPC  C316 2819   2.125   1.133   8.797 -0.2449 -0.3092  0.5338
   21SAPC  H16X 2820   2.064   1.128   8.704 -2.7259 -0.1816  2.1027
   21SAPC  H16Y 2821   2.064   1.080   8.873 -2.8809 -0.2017 -1.4108
   21SAPC  C317 2822   2.256   1.042   8.757  0.1330 -0.1509  0.6493
   21SAPC  H17X 2823   2.305   1.039   8.857 -0.0358 -0.3124  0.7284
   21SAPC  H17Y 2824   2.321   1.111   8.698  0.5301  0.6333  1.9640
   21SAPC  C318 2825   2.233   0.910   8.690 -0.0802 -0.2247  0.1479
   21SAPC  H18X 2826   2.145   0.907   8.623  0.0167 -1.6594  0.0745
   21SAPC  H18Y 2827   2.214   0.825   8.759  1.8001  0.7537  1.9613
   21SAPC  H18Z 2828   2.324   0.879   8.635  1.1016  0.2883  1.7748
   22SAPC     N 2829   1.490   5.140  10.964  0.6899 -0.2245  0.6141
   22SAPC   C12 2830   1.521   5.094  10.822  0.1967  0.5386 -0.2050
   22SAPC  H12A 2831   1.450   5.125  10.747  1.2090 -1.0586 -1.8789
   22SAPC  H12B 2832   1.520   4.986  10.823  0.4077  0.5119  2.8163
   22SAPC   C13 2833   1.591   5.079  11.062 -0.2158 -0.2191  0.8063
   22SAPC  H13A 2834   1.571   5.093  11.167 -2.4490 -0.6111  0.4400
   22SAPC  H13B 2835   1.627   4.985  11.022 -1.3939 -0.9326  1.4283
   22SAPC  H13C 2836   1.679   5.141  11.046 -0.2632  0.3271  2.5689
   22SAPC   C14 2837   1.475   5.286  10.979  0.7358 -0.5323  0.8348
   22SAPC  H14A 2838   1.564   5.337  10.944  0.4708 -1.8517 -1.9515
   22SAPC  H14B 2839   1.391   5.318  10.918  1.1904  0.5299  0.7438
   22SAPC  H14C 2840   1.435   5.314  11.075 -0.1142  1.3528 -0.0412
   22SAPC   C15 2841   1.349   5.094  10.999  0.1436  0.5461  0.2376
   22SAPC  H15A 2842   1.273   5.146  10.942 -0.9284 -0.8730  0.3561
   22SAPC  H15B 2843   1.339   4.987  10.987  1.8427  0.1199  2.2583
   22SAPC  H15C 2844   1.341   5.110  11.106 -0.0539  1.1445  0.1362
   22SAPC   C11 2845   1.660   5.145  10.760 -0.3233  0.3812  0.7653
   22SAPC  H11A 2846   1.665   5.255  10.775 -3.0035  0.6971 -0.4432
   22SAPC  H11B 2847   1.661   5.131  10.649  0.2890  1.3202  0.6494
   22SAPC     P 2848   1.840   4.961  10.777 -0.0686  0.1967  0.1041
   22SAPC   O13 2849   1.951   4.938  10.874 -0.0058 -0.3574 -0.4696
   22SAPC   O14 2850   1.740   4.858  10.752  0.0224 -0.1283 -0.3090
   22SAPC   O12 2851   1.763   5.084  10.831 -0.0299  0.0201  0.4011
   22SAPC   O11 2852   1.901   5.012  10.641  0.2965  0.1129 -0.0442
   22SAPC    C1 2853   2.007   5.101  10.629 -0.4289 -0.1593 -0.3402
   22SAPC    HA 2854   2.000   5.186  10.701 -2.1802  0.0595 -0.7323
   22SAPC    HB 2855   2.105   5.054  10.649 -0.5698 -0.9650 -1.5129
   22SAPC    C2 2856   2.033   5.160  10.486 -0.1996 -0.4716 -0.1110
   22SAPC    HS 2857   2.121   5.227  10.498 -1.8837  1.9684 -1.0065
   22SAPC   O21 2858   1.916   5.224  10.441  0.5791 -0.5387  0.0150
   22SAPC   C21 2859   1.885   5.342  10.504 -0.0953 -0.1416 -0.0714
   22SAPC   O22 2860   1.950   5.405  10.589 -0.0324  0.7650 -0.0347
   22SAPC   C22 2861   1.752   5.392  10.438 -0.7859 -0.0098 -0.8262
   22SAPC   H2R 2862   1.790   5.451  10.351 -0.5424  0.0802 -0.6602
   22SAPC   H2S 2863   1.697   5.306  10.396 -0.2849 -0.4071 -0.6714
   22SAPC    C3 2864   2.081   5.040  10.396  0.1750 -0.4966  0.3881
   22SAPC    HX 2865   1.995   4.969  10.401  0.6912 -1.3158 -2.0017
   22SAPC    HY 2866   2.176   4.997  10.433  0.5441  0.4460  0.5438
   22SAPC   O31 2867   2.102   5.081  10.260  0.2244  0.3362 -0.2191
   22SAPC   C31 2868   2.138   4.976  10.185 -0.0460 -0.7108  0.4750
   22SAPC   O32 2869   2.150   4.862  10.232  0.4131 -0.2462  0.2413
   22SAPC   C32 2870   2.156   5.030  10.044 -0.4206 -0.5780  0.1171
   22SAPC   H2X 2871   2.246   5.095  10.053 -0.4327 -0.2776 -1.7110
   22SAPC   H2Y 2872   2.070   5.091  10.010 -0.6364 -1.1013 -0.2740
   22SAPC   C23 2873   1.664   5.473  10.538 -0.2266  0.3896  0.2532
   22SAPC   H3R 2874   1.736   5.553  10.566  0.1493 -0.2100  1.0150
   22SAPC   H3S 2875   1.629   5.415  10.626  0.2942  2.7805  2.1226
   22SAPC   C24 2876   1.560   5.559  10.453  0.4192  0.6803 -0.3129
   22SAPC   H4R 2877   1.627   5.610  10.381 -0.6271  2.1879 -0.2285
   22SAPC   H4S 2878   1.501   5.621  10.524 -0.5091  0.0899 -0.5531
   22SAPC   C25 2879   1.468   5.463  10.373  0.7672 -0.4877 -0.5329
   22SAPC   H5R 2880   1.403   5.395  10.430 -0.2851 -0.9570 -2.2661
   22SAPC   C26 2881   1.455   5.463  10.241  0.3869 -0.3173 -0.5889
   22SAPC   H6R 2882   1.374   5.394  10.211 -2.0598  0.8408  3.0232
   22SAPC   C27 2883   1.518   5.546  10.135  0.1012  0.0168  0.8954
   22SAPC   H7R 2884   1.547   5.483  10.048 -1.4243  0.4191  0.0865
   22SAPC   H7S 2885   1.619   5.582  10.164  2.6598 -2.4510 -4.1612
   22SAPC   C28 2886   1.424   5.657  10.091  0.0573  0.4086 -0.5316
   22SAPC   H8R 2887   1.371   5.715  10.167  0.7489  0.8438 -0.3741
   22SAPC   C29 2888   1.392   5.676   9.969  0.0847  0.6553  0.5974
   22SAPC   H9R 2889   1.327   5.764   9.951 -0.6656 -0.3342 -1.7023
   22SAPC  C210 2890   1.441   5.610   9.845 -0.1475  0.2334 -0.0893
   22SAPC  H10R 2891   1.551   5.601   9.853 -0.3802 -2.7867  0.2379
   22SAPC  H10S 2892   1.445   5.685   9.763  0.6309 -1.6561 -1.8351
   22SAPC  C211 2893   1.390   5.477   9.794 -0.8353 -0.4068  0.0053
   22SAPC  H11R 2894   1.359   5.400   9.866  2.6901 -1.2556  0.7121
   22SAPC  C212 2895   1.421   5.431   9.676 -0.4350 -0.8055  0.4921
   22SAPC  H12R 2896   1.387   5.333   9.639  0.3448 -0.7454 -0.3973
   22SAPC  C213 2897   1.490   5.502   9.560  0.5720 -0.5769 -0.0919
   22SAPC  H13R 2898   1.565   5.431   9.518  1.1620 -0.3157  0.5003
   22SAPC  H13S 2899   1.541   5.589   9.608  1.8059 -0.7200 -1.1282
   22SAPC  C214 2900   1.395   5.552   9.450  0.5637  0.5892  0.0895
   22SAPC  H14R 2901   1.298   5.501   9.446  1.0778 -0.5094  1.1627
   22SAPC  C215 2902   1.436   5.618   9.337 -0.7995 -0.1849 -0.2755
   22SAPC  H15R 2903   1.366   5.649   9.259 -0.4186 -0.7510 -0.8418
   22SAPC  C216 2904   1.579   5.662   9.319 -1.0677 -0.0452 -0.3829
   22SAPC  H16R 2905   1.646   5.643   9.405 -1.2163 -2.1557 -0.7069
   22SAPC  H16S 2906   1.575   5.773   9.312 -1.4123  0.0736  1.5247
   22SAPC  C217 2907   1.635   5.616   9.177 -0.2742  0.0205  0.4005
   22SAPC  H17R 2908   1.573   5.655   9.093  2.1607  2.5238 -0.2809
   22SAPC  H17S 2909   1.627   5.505   9.179 -2.0962  0.1071 -0.4696
   22SAPC  C218 2910   1.783   5.645   9.154 -0.1768  0.0213 -0.5839
   22SAPC  H18R 2911   1.837   5.573   9.089  2.6711  0.8460  0.7670
   22SAPC  H18S 2912   1.832   5.639   9.253 -4.3517  0.8116  1.6176
   22SAPC  C219 2913   1.820   5.788   9.105  0.6166  0.7371  0.1305
   22SAPC  H19R 2914   1.930   5.788   9.119  0.5711  0.4904  0.4810
   22SAPC  H19S 2915   1.789   5.871   9.171 -2.7262  0.9469 -1.6027
   22SAPC  C220 2916   1.792   5.824   8.960 -0.1709 -0.5641 -0.1043
   22SAPC  H20R 2917   1.836   5.925   8.949  1.4355 -1.0692  1.4302
   22SAPC  H20S 2918   1.683   5.831   8.945 -0.1916 -0.9027 -0.1256
   22SAPC  H20T 2919   1.840   5.757   8.885  2.7249  2.7008 -1.2814
   22SAPC   C33 2920   2.172   4.922   9.933  0.1920  1.5318  0.2191
   22SAPC   H3X 2921   2.093   4.846   9.945  2.9007 -1.1897  1.4223
   22SAPC   H3Y 2922   2.272   4.874   9.931 -2.3427 -4.0150 -0.8163
   22SAPC   C34 2923   2.136   4.970   9.790 -0.3669 -1.0698  0.7119
   22SAPC   H4X 2924   2.199   5.060   9.777  0.6978 -1.8245  0.5979
   22SAPC   H4Y 2925   2.028   4.997   9.794  0.1567  1.0677  0.6739
   22SAPC   C35 2926   2.156   4.856   9.692 -0.2775  0.0464 -0.0761
   22SAPC   H5X 2927   2.084   4.772   9.708 -2.1464  1.7081  0.3533
   22SAPC   H5Y 2928   2.256   4.811   9.710 -0.7418 -0.0803  2.4393
   22SAPC   C36 2929   2.151   4.903   9.549  0.1096 -0.2272 -0.0045
   22SAPC   H6X 2930   2.229   4.982   9.535 -1.0701  0.9768  0.0904
   22SAPC   H6Y 2931   2.052   4.945   9.521 -0.5922  0.6269  3.5649
   22SAPC   C37 2932   2.180   4.787   9.459  0.0894  0.0675 -0.0588
   22SAPC   H7X 2933   2.093   4.718   9.460  1.7555 -2.0577 -0.5098
   22SAPC   H7Y 2934   2.270   4.732   9.493 -0.3934 -2.1727 -2.2822
   22SAPC   C38 2935   2.192   4.845   9.314 -0.2793  0.1308  0.3759
   22SAPC   H8X 2936   2.287   4.898   9.293 -0.2570 -0.4034 -0.8783
   22SAPC   H8Y 2937   2.109   4.917   9.301  0.9132  1.0215 -2.4425
   22SAPC   C39 2938   2.170   4.747   9.197  0.1361 -0.2733 -0.2882
   22SAPC   H9X 2939   2.086   4.677   9.219 -0.2556 -0.5437 -2.5525
   22SAPC   H9Y 2940   2.256   4.677   9.193 -0.1328 -0.6552  0.4922
   22SAPC  C310 2941   2.146   4.812   9.060  0.3724  0.3082  0.7099
   22SAPC  H10X 2942   2.211   4.902   9.057  0.2907  0.3927  1.5613
   22SAPC  H10Y 2943   2.044   4.839   9.026  1.2933  1.9693 -0.8650
   22SAPC  C311 2944   2.187   4.708   8.946 -0.2899  0.1115  0.1063
   22SAPC  H11X 2945   2.279   4.647   8.961  0.2872  0.2977 -2.4619
   22SAPC  H11Y 2946   2.195   4.762   8.850  1.8421  1.1155  0.8182
   22SAPC  C312 2947   2.085   4.595   8.936 -0.6200 -0.1035 -0.0918
   22SAPC  H12X 2948   1.981   4.635   8.940  0.7212  3.6645 -0.9641
   22SAPC  H12Y 2949   2.092   4.551   9.038  0.2745  2.2086  0.8763
   22SAPC  C313 2950   2.114   4.494   8.821  0.0895  0.4652 -0.3637
   22SAPC  H13X 2951   2.101   4.544   8.723 -0.7319  2.9564  0.9523
   22SAPC  H13Y 2952   2.037   4.416   8.837  0.3184  0.5671  1.3012
   22SAPC  C314 2953   2.251   4.440   8.821 -0.2342  0.5830 -0.5671
   22SAPC  H14X 2954   2.269   4.371   8.907 -0.3375  1.6101  0.2851
   22SAPC  H14Y 2955   2.335   4.513   8.821  1.6537 -1.4543  2.5631
   22SAPC  C315 2956   2.264   4.345   8.702 -0.6679 -0.2539 -0.1888
   22SAPC  H15X 2957   2.185   4.268   8.691 -1.8440  0.8568  0.3678
   22SAPC  H15Y 2958   2.348   4.275   8.720 -1.0964 -0.7314 -0.0411
   22SAPC  C316 2959   2.287   4.409   8.561  0.2147 -0.1602  0.2360
   22SAPC  H16X 2960   2.361   4.492   8.567  0.4752 -0.1569 -2.5077
   22SAPC  H16Y 2961   2.190   4.455   8.533  0.2664  0.0339  0.3738
   22SAPC  C317 2962   2.311   4.301   8.458  0.4456 -0.4742  1.0787
   22SAPC  H17X 2963   2.326   4.347   8.358 -2.6955 -1.2493  0.1989
   22SAPC  H17Y 2964   2.228   4.229   8.470 -0.7470  0.4276 -1.3490
   22SAPC  C318 2965   2.429   4.209   8.478 -0.2808  0.2997 -0.2450
   22SAPC  H18X 2966   2.430   4.158   8.577  1.0876 -0.1467 -0.4912
   22SAPC  H18Y 2967   2.521   4.271   8.469  0.9326 -1.2533  1.1399
   22SAPC  H18Z 2968   2.421   4.131   8.401  0.8496 -0.4404  0.3755
   23SAPC     N 2969   2.698   6.565  10.837 -0.5221  0.4967 -0.4400
   23SAPC   C12 2970   2.773   6.683  10.789 -0.1992 -0.1705 -0.4824
   23SAPC  H12A 2971   2.804   6.743  10.873  0.7903 -2.1375  0.5753
   23SAPC  H12B 2972   2.698   6.743  10.740  1.6343 -0.0178 -3.2413
   23SAPC   C13 2973   2.587   6.597  10.939  0.0364 -0.0870 -0.4330
   23SAPC  H13A 2974   2.632   6.655  11.018  1.9409  2.5369 -3.3375
   23SAPC  H13B 2975   2.506   6.655  10.896  0.0196  1.0314  1.0902
   23SAPC  H13C 2976   2.557   6.505  10.988  0.0908 -0.6029 -1.3450
   23SAPC   C14 2977   2.623   6.500  10.727  0.2531  0.9940  0.0535
   23SAPC  H14A 2978   2.593   6.402  10.761  2.9138  0.5470  1.2496
   23SAPC  H14B 2979   2.537   6.557  10.696  0.4899  3.0691  3.0254
   23SAPC  H14C 2980   2.686   6.476  10.642  0.4580 -1.0635  0.7580
   23SAPC   C15 2981   2.797   6.473  10.901 -0.5254 -0.0210  0.6706
   23SAPC  H15A 2982   2.845   6.512  10.990  0.2017  5.0592 -1.7847
   23SAPC  H15B 2983   2.747   6.388  10.946 -4.2113  1.3679 -0.6171
   23SAPC  H15C 2984   2.870   6.437  10.831 -1.3732 -2.8868  1.1767
   23SAPC   C11 2985   2.877   6.675  10.672  0.4464  0.4989 -0.0798
   23SAPC  H11A 2986   2.914   6.780  10.670 -0.0177  0.7471  2.4670
   23SAPC  H11B 2987   2.827   6.653  10.576  1.1761 -0.1160 -0.3304
   23SAPC     P 2988   3.099   6.616  10.789  0.3302 -0.0040 -0.5911
   23SAPC   O13 2989   3.065   6.727  10.882 -0.2975  0.5151  0.5104
   23SAPC   O14 2990   3.145   6.492  10.852  0.7228 -0.4686 -0.7701
   23SAPC   O12 2991   2.984   6.583  10.687 -0.6576  0.2143  0.0491
   23SAPC   O11 2992   3.211   6.679  10.710  0.0602 -0.4961  0.4550
   23SAPC    C1 2993   3.202   6.764  10.593 -0.0358  1.2742  0.4146
   23SAPC    HA 2994   3.100   6.805  10.578 -1.4386 -1.8293  1.1624
   23SAPC    HB 2995   3.275   6.847  10.606 -0.4829  1.4440  1.9482
   23SAPC    C2 2996   3.254   6.691  10.468 -0.1229  0.0012 -0.2849
   23SAPC    HS 2997   3.254   6.759  10.380 -0.4844 -1.4323 -1.4108
   23SAPC   O21 2998   3.171   6.575  10.430 -0.2374 -0.3722  0.0636
   23SAPC   C21 2999   3.055   6.606  10.369 -0.2058  0.5122 -0.4093
   23SAPC   O22 3000   3.022   6.720  10.342  0.5550 -0.0559 -0.1740
   23SAPC   C22 3001   2.971   6.477  10.340  0.5422 -0.0106  0.1473
   23SAPC   H2R 3002   3.036   6.393  10.371  1.0581 -0.1774 -1.3393
   23SAPC   H2S 3003   2.886   6.487  10.412  1.8580 -0.4637  1.7885
   23SAPC    C3 3004   3.396   6.633  10.497 -0.3201 -0.2486 -0.6873
   23SAPC    HX 3005   3.382   6.560  10.579  1.1222  1.4503  1.1395
   23SAPC    HY 3006   3.462   6.707  10.549  0.8640 -1.2385 -0.7799
   23SAPC   O31 3007   3.461   6.596  10.379 -0.2203  0.1716  0.0428
   23SAPC   C31 3008   3.460   6.455  10.359 -0.1538 -0.4384 -0.0122
   23SAPC   O32 3009   3.422   6.378  10.442  0.0550 -0.5991 -0.5570
   23SAPC   C32 3010   3.524   6.429  10.222 -0.7244  0.4519  0.1745
   23SAPC   H2X 3011   3.537   6.320  10.209 -0.0645  0.4054  1.1474
   23SAPC   H2Y 3012   3.616   6.491  10.218 -1.1623  1.0329 -1.3212
   23SAPC   C23 3013   2.936   6.464  10.187 -0.3180  0.0247 -0.3973
   23SAPC   H3R 3014   2.869   6.544  10.148 -0.6974 -0.3211 -0.4575
   23SAPC   H3S 3015   2.879   6.370  10.174 -1.5929  0.9179 -1.3671
   23SAPC   C24 3016   3.064   6.462  10.101 -0.1410  0.2543  0.1988
   23SAPC   H4R 3017   3.124   6.391  10.162 -1.8256 -0.0660  1.5554
   23SAPC   H4S 3018   3.118   6.558  10.100  0.1235  0.1050  0.1677
   23SAPC   C25 3019   3.037   6.414   9.959 -0.6550 -0.1703 -0.0827
   23SAPC   H5R 3020   3.037   6.305   9.945 -0.8472 -0.2350  0.3981
   23SAPC   C26 3021   3.004   6.485   9.853 -0.6086  0.5503  0.4507
   23SAPC   H6R 3022   2.978   6.432   9.760 -0.5857  1.0516  0.1552
   23SAPC   C27 3023   2.977   6.632   9.851 -0.0316  0.5124 -0.3772
   23SAPC   H7R 3024   3.021   6.666   9.947  2.0996 -1.8772 -0.4602
   23SAPC   H7S 3025   2.868   6.655   9.859  0.1400  0.5421  2.2839
   23SAPC   C28 3026   3.039   6.711   9.737 -0.0850 -0.6323  0.3180
   23SAPC   H8R 3027   3.143   6.745   9.749  0.2648 -1.8981  0.9534
   23SAPC   C29 3028   2.971   6.745   9.626  0.3761 -0.4037  0.1093
   23SAPC   H9R 3029   3.024   6.802   9.548 -1.4117  1.0313 -0.0809
   23SAPC  C210 3030   2.832   6.716   9.591 -0.0498  0.6869  0.0579
   23SAPC  H10R 3031   2.784   6.661   9.675 -0.7269  1.9520  0.5187
   23SAPC  H10S 3032   2.817   6.646   9.507  0.5289 -2.7633  2.7121
   23SAPC  C211 3033   2.744   6.839   9.561 -0.3798  0.5677  0.2033
   23SAPC  H11R 3034   2.703   6.890   9.649 -1.0555  1.8586 -0.8504
   23SAPC  C212 3035   2.725   6.893   9.438 -0.6179 -0.0404  0.2371
   23SAPC  H12R 3036   2.656   6.978   9.428  0.9517  1.1691 -0.5566
   23SAPC  C213 3037   2.776   6.838   9.309 -0.0459  0.3475 -0.9878
   23SAPC  H13R 3038   2.683   6.809   9.255 -1.0263 -3.1545  2.3374
   23SAPC  H13S 3039   2.839   6.749   9.330 -1.0372 -0.6576 -2.1797
   23SAPC  C214 3040   2.848   6.951   9.239 -0.1901 -0.8052  0.4267
   23SAPC  H14R 3041   2.951   6.975   9.271  0.3468 -1.1864 -0.9495
   23SAPC  C215 3042   2.802   7.017   9.131 -0.8668 -0.2674 -0.1711
   23SAPC  H15R 3043   2.869   7.089   9.084 -1.3982 -0.1202 -0.7083
   23SAPC  C216 3044   2.674   7.002   9.052 -0.0896  0.2808  0.1589
   23SAPC  H16R 3045   2.632   7.105   9.052  1.1853  0.8369 -2.4938
   23SAPC  H16S 3046   2.605   6.935   9.109  0.4307 -1.8714 -1.6853
   23SAPC  C217 3047   2.678   6.956   8.905  0.7074  0.7840  1.2063
   23SAPC  H17R 3048   2.574   6.954   8.866  1.4275  4.2300 -1.1823
   23SAPC  H17S 3049   2.727   6.858   8.890 -2.2286 -0.9150  2.3510
   23SAPC  C218 3050   2.740   7.064   8.823  0.8951  0.5940  0.3473
   23SAPC  H18R 3051   2.847   7.084   8.847  1.3724 -0.3949 -0.9017
   23SAPC  H18S 3052   2.702   7.165   8.847 -1.6644 -0.1948 -0.2216
   23SAPC  C219 3053   2.729   7.037   8.668 -0.3899 -0.5638 -0.8281
   23SAPC  H19R 3054   2.770   7.125   8.615 -0.9554  0.8498  1.0146
   23SAPC  H19S 3055   2.625   7.026   8.633 -1.7590 -0.1776  2.8694
   23SAPC  C220 3056   2.812   6.914   8.624  0.3015 -0.1797  0.1709
   23SAPC  H20R 3057   2.800   6.817   8.677  0.4428 -1.1379 -1.5240
   23SAPC  H20S 3058   2.918   6.945   8.641  0.2300  0.5725 -0.7252
   23SAPC  H20T 3059   2.788   6.886   8.519  1.3694 -1.1126  0.1659
   23SAPC   C33 3060   3.416   6.468  10.109  0.7491  0.4942 -0.2864
   23SAPC   H3X 3061   3.363   6.565  10.122 -0.7673 -0.3551 -0.0532
   23SAPC   H3Y 3062   3.339   6.390  10.090 -0.8874  2.4695 -1.9529
   23SAPC   C34 3063   3.477   6.476   9.965  0.2957 -0.3802  0.2740
   23SAPC   H4X 3064   3.564   6.409   9.950 -0.8107 -1.6092 -0.6874
   23SAPC   H4Y 3065   3.516   6.580   9.957  0.8666 -0.6756 -0.8662
   23SAPC   C35 3066   3.371   6.457   9.853  0.3366  0.0060 -0.4198
   23SAPC   H5X 3067   3.299   6.542   9.866 -0.7295 -0.9105 -0.2653
   23SAPC   H5Y 3068   3.311   6.364   9.854  1.4961 -0.7959 -3.0211
   23SAPC   C36 3069   3.432   6.463   9.709  0.0676 -0.2401 -0.7769
   23SAPC   H6X 3070   3.493   6.372   9.690 -1.0094 -1.1443  0.0042
   23SAPC   H6Y 3071   3.502   6.549   9.716 -2.0692  1.4178  1.1589
   23SAPC   C37 3072   3.316   6.468   9.600  0.4286 -0.1036 -0.4036
   23SAPC   H7X 3073   3.226   6.520   9.638  0.3339  0.2651 -1.1281
   23SAPC   H7Y 3074   3.275   6.370   9.569 -0.2087 -0.5194  1.6826
   23SAPC   C38 3075   3.352   6.547   9.476  0.4743 -0.1972  0.4871
   23SAPC   H8X 3076   3.443   6.496   9.437  0.6523  1.3327 -1.1396
   23SAPC   H8Y 3077   3.381   6.648   9.512 -1.0444  0.5424 -0.3162
   23SAPC   C39 3078   3.239   6.544   9.377 -0.5920  0.0311  0.2163
   23SAPC   H9X 3079   3.170   6.623   9.415 -2.3001 -1.6791  0.7396
   23SAPC   H9Y 3080   3.184   6.448   9.377  1.6626 -1.3012 -1.7551
   23SAPC  C310 3081   3.269   6.585   9.232  0.0638 -0.4408  0.2404
   23SAPC  H10X 3082   3.317   6.504   9.173 -1.1547 -2.3189  1.7913
   23SAPC  H10Y 3083   3.340   6.670   9.242 -2.3215  1.8772 -1.8259
   23SAPC  C311 3084   3.140   6.630   9.162  0.6454 -0.8095  0.8371
   23SAPC  H11X 3085   3.105   6.724   9.211  1.1133 -0.6838  0.9307
   23SAPC  H11Y 3086   3.074   6.544   9.187 -1.2737  1.0830  2.5847
   23SAPC  C312 3087   3.150   6.649   9.017 -0.0169  0.1546 -0.0689
   23SAPC  H12X 3088   3.124   6.553   8.969  0.8316  0.6292 -1.5076
   23SAPC  H12Y 3089   3.255   6.666   8.986 -0.1896  0.8070 -0.3104
   23SAPC  C313 3090   3.046   6.748   8.955 -0.2746  0.1653 -0.0515
   23SAPC  H13X 3091   2.946   6.741   9.003 -0.8430  2.5620 -0.8331
   23SAPC  H13Y 3092   3.046   6.719   8.848  1.2711  0.5912 -0.1801
   23SAPC  C314 3093   3.085   6.897   8.961 -0.1545 -0.3746 -0.4941
   23SAPC  H14X 3094   3.084   6.925   9.068  1.1780 -1.6193 -0.1354
   23SAPC  H14Y 3095   3.005   6.956   8.912 -0.8369 -0.3895  0.5985
   23SAPC  C315 3096   3.219   6.931   8.897 -0.5177  0.5637  0.1060
   23SAPC  H15X 3097   3.218   6.886   8.795  1.5348 -2.4524  1.3680
   23SAPC  H15Y 3098   3.301   6.879   8.950 -0.2624  1.6478  0.7832
   23SAPC  C316 3099   3.241   7.081   8.894 -0.0317  0.2023  0.4607
   23SAPC  H16X 3100   3.300   7.119   8.980 -1.4625  1.4636  0.9169
   23SAPC  H16Y 3101   3.143   7.133   8.900  0.1983  0.6880  0.0036
   23SAPC  C317 3102   3.302   7.120   8.761 -0.5217 -0.5347  0.3249
   23SAPC  H17X 3103   3.229   7.113   8.677  0.5846 -0.4429 -0.6536
   23SAPC  H17Y 3104   3.384   7.049   8.742  1.3961  1.1177  2.1866
   23SAPC  C318 3105   3.367   7.260   8.766  0.3129  0.0488  0.1664
   23SAPC  H18X 3106   3.423   7.279   8.672  0.4450 -0.4475  0.1455
   23SAPC  H18Y 3107   3.430   7.263   8.858  0.5815  0.4898 -0.0317
   23SAPC  H18Z 3108   3.293   7.342   8.773  1.1460  1.0631 -2.2115
   24SAPC     N 3109   4.683   0.205  11.457  0.1051 -0.3133  0.5230
   24SAPC   C12 3110   4.734   0.157  11.327  0.9286 -0.5536  0.3369
   24SAPC  H12A 3111   4.652   0.120  11.267  0.6722 -0.1070  0.4085
   24SAPC  H12B 3112   4.803   0.075  11.336  3.0661  0.7450 -3.3031
   24SAPC   C13 3113   4.794   0.260  11.543 -0.3168 -0.6721  0.1102
   24SAPC  H13A 3114   4.757   0.289  11.640 -0.0807 -1.5739  0.4762
   24SAPC  H13B 3115   4.884   0.202  11.551  1.6302  1.9811 -1.8099
   24SAPC  H13C 3116   4.825   0.353  11.498 -0.3711 -0.5049  0.4134
   24SAPC   C14 3117   4.588   0.310  11.426  0.2659 -0.4053  0.2725
   24SAPC  H14A 3118   4.631   0.381  11.358  0.1551 -0.8869 -0.2985
   24SAPC  H14B 3119   4.498   0.270  11.382 -0.5352 -0.5756  1.9901
   24SAPC  H14C 3120   4.546   0.364  11.510  0.0009  0.8989 -0.6822
   24SAPC   C15 3121   4.616   0.093  11.533  1.8053  0.3255 -0.1287
   24SAPC  H15A 3122   4.538   0.034  11.488  1.7504 -0.1489  0.5830
   24SAPC  H15B 3123   4.673   0.010  11.572  1.0900 -0.7135 -1.2528
   24SAPC  H15C 3124   4.561   0.135  11.615  3.6819 -2.6300  2.7402
   24SAPC   C11 3125   4.803   0.266  11.240 -0.7266  0.8385 -0.2551
   24SAPC  H11A 3126   4.856   0.210  11.159 -1.7739  1.5646 -1.4566
   24SAPC  H11B 3127   4.881   0.321  11.296  1.1912 -1.9028 -0.1078
   24SAPC     P 3128   4.642   0.328  11.047  0.0492 -0.0973 -0.0138
   24SAPC   O13 3129   4.557   0.208  11.058  0.2468 -0.1636 -0.6533
   24SAPC   O14 3130   4.567   0.447  11.013  0.0681 -0.0432 -0.1981
   24SAPC   O12 3131   4.722   0.363  11.178  0.3407 -0.0544  0.1812
   24SAPC   O11 3132   4.751   0.307  10.939 -0.2521 -0.3135  0.1551
   24SAPC    C1 3133   4.851   0.405  10.910 -0.2969 -0.7105  0.1215
   24SAPC    HA 3134   4.814   0.509  10.922  1.2610  0.1751 -2.4417
   24SAPC    HB 3135   4.942   0.390  10.971  0.6010 -0.4388 -1.1267
   24SAPC    C2 3136   4.902   0.404  10.759  0.1127  0.0321 -0.6556
   24SAPC    HS 3137   4.851   0.315  10.716 -3.2866 -0.9574  4.9915
   24SAPC   O21 3138   5.046   0.398  10.749  0.3134  0.3658  0.4461
   24SAPC   C21 3139   5.096   0.275  10.777 -0.4972 -0.7046  0.0417
   24SAPC   O22 3140   5.034   0.176  10.808 -0.4599 -0.0590  0.2063
   24SAPC   C22 3141   5.242   0.281  10.746  0.4792 -0.2029  0.1389
   24SAPC   H2R 3142   5.283   0.385  10.742  0.8290 -0.3959 -2.0037
   24SAPC   H2S 3143   5.298   0.227  10.825 -0.2995 -0.5844  0.4366
   24SAPC    C3 3144   4.841   0.527  10.681 -0.0920 -0.5286 -0.7158
   24SAPC    HX 3145   4.889   0.619  10.722 -0.0079 -0.7920 -0.2324
   24SAPC    HY 3146   4.732   0.540  10.698 -0.3966 -2.5620 -1.0787
   24SAPC   O31 3147   4.876   0.509  10.541  0.2884 -0.2577 -0.3148
   24SAPC   C31 3148   4.781   0.460  10.473 -0.7076  0.1390  0.3899
   24SAPC   O32 3149   4.667   0.440  10.510 -0.1568 -0.5767 -0.5671
   24SAPC   C32 3150   4.839   0.421  10.339 -0.0907 -0.0925  0.9046
   24SAPC   H2X 3151   4.949   0.414  10.355 -0.2794 -0.8980  1.8588
   24SAPC   H2Y 3152   4.809   0.504  10.271  0.6381  0.2573  1.0020
   24SAPC   C23 3153   5.267   0.214  10.603  0.9877 -0.3005 -0.3638
   24SAPC   H3R 3154   5.233   0.109  10.616  1.4009 -0.3313  0.5091
   24SAPC   H3S 3155   5.376   0.223  10.582  1.1095  0.1061  0.4570
   24SAPC   C24 3156   5.199   0.277  10.481  0.5215 -0.9753  0.0995
   24SAPC   H4R 3157   5.090   0.261  10.496  1.0826 -4.0313  1.2388
   24SAPC   H4S 3158   5.237   0.219  10.394 -0.5261  1.0542 -1.7368
   24SAPC   C25 3159   5.248   0.421  10.491  0.1607  0.3006 -0.6137
   24SAPC   H5R 3160   5.182   0.482  10.554  0.1228 -0.0413 -0.3264
   24SAPC   C26 3161   5.363   0.462  10.431  0.2873 -0.5110 -0.2872
   24SAPC   H6R 3162   5.399   0.562  10.460 -3.4129  0.8846 -0.2289
   24SAPC   C27 3163   5.444   0.384  10.331 -0.4974 -0.1826 -0.9297
   24SAPC   H7R 3164   5.461   0.280  10.365  0.7545  1.0088  2.2567
   24SAPC   H7S 3165   5.547   0.426  10.329 -0.3571 -0.5407 -3.6648
   24SAPC   C28 3166   5.384   0.400  10.195  0.1855  0.3099  0.6565
   24SAPC   H8R 3167   5.296   0.466  10.194  0.0934  0.1771  0.0071
   24SAPC   C29 3168   5.430   0.341  10.084 -0.8215 -0.6098  0.1025
   24SAPC   H9R 3169   5.383   0.366   9.988  1.9876 -0.2229 -1.2451
   24SAPC  C210 3170   5.543   0.245  10.061  0.6822 -0.1763 -1.0877
   24SAPC  H10R 3171   5.510   0.173   9.983  0.7246  1.2742 -2.4697
   24SAPC  H10S 3172   5.563   0.198  10.159  0.7332  4.0951  1.0646
   24SAPC  C211 3173   5.673   0.310  10.011 -0.1352 -0.4646 -0.1729
   24SAPC  H11R 3174   5.747   0.298  10.092 -0.6833 -2.7514  0.0160
   24SAPC  C212 3175   5.701   0.364   9.888 -0.2908 -0.1526 -0.3640
   24SAPC  H12R 3176   5.798   0.411   9.866  0.7434 -2.4739 -0.9540
   24SAPC  C213 3177   5.601   0.386   9.775 -0.1643 -0.2566  0.7051
   24SAPC  H13R 3178   5.538   0.473   9.801 -1.3455 -0.4259 -1.4993
   24SAPC  H13S 3179   5.525   0.305   9.780 -1.3444  0.8337  0.5246
   24SAPC  C214 3180   5.648   0.392   9.631  0.1370 -0.0303  0.3885
   24SAPC  H14R 3181   5.664   0.498   9.604 -1.6786 -0.0684 -0.9167
   24SAPC  C215 3182   5.667   0.291   9.543 -0.0538 -0.4402  0.3593
   24SAPC  H15R 3183   5.704   0.310   9.441 -0.7059 -1.4552 -0.0807
   24SAPC  C216 3184   5.646   0.149   9.574 -0.0936  0.6855  0.1420
   24SAPC  H16R 3185   5.607   0.131   9.676 -0.4047  1.2742  0.1304
   24SAPC  H16S 3186   5.742   0.097   9.554 -0.0250  1.0949 -0.6007
   24SAPC  C217 3187   5.543   0.092   9.472 -0.0653 -0.6863 -0.6276
   24SAPC  H17R 3188   5.553  -0.018   9.460 -1.4671 -0.6376 -2.4527
   24SAPC  H17S 3189   5.578   0.134   9.376  1.9268  0.3226  0.5140
   24SAPC  C218 3190   5.396   0.116   9.494 -0.3869  0.3488  0.6392
   24SAPC  H18R 3191   5.338   0.057   9.420 -2.1816  0.3125  2.0372
   24SAPC  H18S 3192   5.385   0.226   9.484  1.4100  0.5205  0.4004
   24SAPC  C219 3193   5.346   0.073   9.627  0.4722  0.7358 -0.3059
   24SAPC  H19R 3194   5.371   0.144   9.709  1.1553 -0.9936  1.0359
   24SAPC  H19S 3195   5.401  -0.021   9.652 -1.5768 -0.5572 -0.4881
   24SAPC  C220 3196   5.197   0.036   9.639 -0.1841 -0.3272 -0.2389
   24SAPC  H20R 3197   5.128   0.122   9.630 -2.4279 -1.9137  1.4364
   24SAPC  H20S 3198   5.188  -0.017   9.736  1.9366  0.5118  0.4530
   24SAPC  H20T 3199   5.178  -0.032   9.553  1.6894  1.8989 -2.5083
   24SAPC   C33 3200   4.786   0.288  10.294  0.6168 -0.2349  0.1712
   24SAPC   H3X 3201   4.676   0.290  10.279  0.7730  1.1213 -0.8353
   24SAPC   H3Y 3202   4.810   0.203  10.362 -0.9621 -3.9461 -3.6651
   24SAPC   C34 3203   4.844   0.236  10.157 -0.5987  0.6649 -0.4970
   24SAPC   H4X 3204   4.841   0.328  10.093 -0.4338 -1.3633 -3.5417
   24SAPC   H4Y 3205   4.784   0.152  10.116  0.7725 -1.5295  1.8498
   24SAPC   C35 3206   4.989   0.195  10.168 -0.2990 -0.9888  0.1503
   24SAPC   H5X 3207   4.995   0.110  10.240  0.1394  0.1994  1.5510
   24SAPC   H5Y 3208   5.049   0.272  10.221 -0.9462  0.2119 -0.8395
   24SAPC   C36 3209   5.054   0.157  10.027  0.0009 -0.3740 -0.3759
   24SAPC   H6X 3210   5.154   0.112  10.043 -0.3987 -1.0700  0.1994
   24SAPC   H6Y 3211   5.087   0.249   9.974  0.3814 -1.2188 -1.6264
   24SAPC   C37 3212   4.962   0.070   9.939  0.0440 -0.0277  0.2914
   24SAPC   H7X 3213   5.001   0.068   9.835  0.1860 -1.6265  0.3601
   24SAPC   H7Y 3214   4.863   0.116   9.918  0.3474 -0.4337 -2.2269
   24SAPC   C38 3215   4.955  -0.072   9.996  0.0313  0.1387 -0.6798
   24SAPC   H8X 3216   4.935  -0.061  10.105 -1.0657  2.3261 -1.0858
   24SAPC   H8Y 3217   5.053  -0.125   9.993 -0.6743 -1.3582  1.5785
   24SAPC   C39 3218   4.854  -0.160   9.927  0.0779 -0.1571 -0.3587
   24SAPC   H9X 3219   4.764  -0.107   9.890 -1.0415 -1.9309 -0.2043
   24SAPC   H9Y 3220   4.809  -0.219  10.010  3.3496 -0.0381  1.6127
   24SAPC  C310 3221   4.916  -0.243   9.814 -0.1568 -0.6995 -0.0416
   24SAPC  H10X 3222   4.994  -0.311   9.854 -0.4509  0.0263  1.7943
   24SAPC  H10Y 3223   4.962  -0.171   9.744  0.3948 -1.4207 -0.4261
   24SAPC  C311 3224   4.808  -0.309   9.724  0.2638 -0.3293  0.4617
   24SAPC  H11X 3225   4.744  -0.232   9.675  0.9635 -0.2773 -0.3698
   24SAPC  H11Y 3226   4.752  -0.362   9.804  0.5128 -0.3863  0.5982
   24SAPC  C312 3227   4.865  -0.396   9.614  0.4915  0.7681 -1.0627
   24SAPC  H12X 3228   4.949  -0.457   9.653 -1.0864  0.5045  2.1228
   24SAPC  H12Y 3229   4.910  -0.339   9.530  1.2014  1.8011  0.0120
   24SAPC  C313 3230   4.750  -0.487   9.556 -0.1511 -0.0816 -0.4042
   24SAPC  H13X 3231   4.681  -0.421   9.499 -0.1317 -0.3798 -0.7810
   24SAPC  H13Y 3232   4.694  -0.523   9.645 -0.0153  1.6335  0.3959
   24SAPC  C314 3233   4.791  -0.606   9.461 -0.1452  0.6143  0.3081
   24SAPC  H14X 3234   4.706  -0.677   9.475  0.4505 -0.3217 -0.7525
   24SAPC  H14Y 3235   4.872  -0.660   9.515 -1.3712  0.4348  2.0293
   24SAPC  C315 3236   4.812  -0.565   9.318 -0.5637 -0.0653 -0.6915
   24SAPC  H15X 3237   4.877  -0.629   9.254 -1.3437 -0.9527 -0.5976
   24SAPC  H15Y 3238   4.874  -0.473   9.310 -0.3513 -0.1079  0.3723
   24SAPC  C316 3239   4.682  -0.540   9.237 -0.3631  0.1703 -0.6615
   24SAPC  H16X 3240   4.620  -0.456   9.274 -0.0697  0.5235 -0.9673
   24SAPC  H16Y 3241   4.616  -0.626   9.261  1.6131 -1.2061 -0.0525
   24SAPC  C317 3242   4.700  -0.541   9.085 -0.4436  0.2642 -0.4485
   24SAPC  H17X 3243   4.600  -0.549   9.036 -0.3532  0.6404 -0.6958
   24SAPC  H17Y 3244   4.748  -0.636   9.052  1.5273  1.1686 -0.2569
   24SAPC  C318 3245   4.776  -0.422   9.035  0.1709 -0.2142 -0.2072
   24SAPC  H18X 3246   4.882  -0.426   9.067 -0.2397  1.1307  1.4229
   24SAPC  H18Y 3247   4.730  -0.330   9.077 -0.6495 -1.5993  2.0225
   24SAPC  H18Z 3248   4.773  -0.414   8.924 -1.2778  0.3526 -0.1423
   25SAPC     N 3249   2.082   4.068   5.936 -0.4458  0.1428  0.0852
   25SAPC   C12 3250   2.042   4.191   5.868  0.5269  0.2489  0.2537
   25SAPC  H12A 3251   1.938   4.214   5.886  0.2325  0.0057 -1.0995
   25SAPC  H12B 3252   2.047   4.167   5.763 -0.5902  0.9192  0.0402
   25SAPC   C13 3253   2.074   4.085   6.086  0.1077  0.0158 -0.4522
   25SAPC  H13A 3254   1.983   4.137   6.109  0.3790 -0.2374  1.2632
   25SAPC  H13B 3255   2.087   3.991   6.139  1.1648  0.2839 -0.2192
   25SAPC  H13C 3256   2.147   4.156   6.121 -0.1132  0.0001  0.0535
   25SAPC   C14 3257   1.980   3.968   5.897 -1.6108  0.6704  0.7475
   25SAPC  H14A 3258   1.993   3.929   5.798 -1.9277  2.4157  0.0035
   25SAPC  H14B 3259   1.986   3.880   5.959 -2.3561  0.9526  1.2346
   25SAPC  H14C 3260   1.879   4.006   5.898 -1.6523  0.7208 -2.2724
   25SAPC   C15 3261   2.227   4.023   5.901 -0.2809  0.2316  0.2567
   25SAPC  H15A 3262   2.237   4.022   5.794  0.3034 -1.5736  0.3003
   25SAPC  H15B 3263   2.305   4.090   5.934  0.5227 -1.0801  1.1168
   25SAPC  H15C 3264   2.256   3.933   5.953  1.7650  0.9533  0.4055
   25SAPC   C11 3265   2.127   4.317   5.885  0.4970 -0.1072 -0.2957
   25SAPC  H11A 3266   2.084   4.388   5.811  0.6919 -1.2981 -1.5616
   25SAPC  H11B 3267   2.230   4.288   5.856 -0.8061 -3.3749 -1.9391
   25SAPC     P 3268   2.073   4.510   6.051  0.2418  0.2690 -0.0274
   25SAPC   O13 3269   2.141   4.596   5.948  0.1436 -0.1952 -0.5582
   25SAPC   O14 3270   1.926   4.521   6.054 -0.3887  0.4721  0.2208
   25SAPC   O12 3271   2.114   4.366   6.023 -0.0084  0.5023  0.5468
   25SAPC   O11 3272   2.142   4.526   6.194  0.0067 -0.2041 -0.3985
   25SAPC    C1 3273   2.276   4.474   6.213 -0.8014  0.1352  0.1645
   25SAPC    HA 3274   2.272   4.363   6.206  0.1969 -0.0939  2.6802
   25SAPC    HB 3275   2.342   4.511   6.132  0.2120 -0.0980  0.8801
   25SAPC    C2 3276   2.331   4.515   6.350 -0.2393  0.1797 -0.1110
   25SAPC    HS 3277   2.425   4.457   6.364 -0.8666 -0.7638  0.2732
   25SAPC   O21 3278   2.232   4.476   6.446 -0.3707 -0.3931  0.2735
   25SAPC   C21 3279   2.251   4.353   6.485 -0.5422  0.0821  0.5873
   25SAPC   O22 3280   2.315   4.271   6.417  0.0065 -0.4353  0.0274
   25SAPC   C22 3281   2.181   4.327   6.615  0.2505 -0.6706 -0.2473
   25SAPC   H2R 3282   2.263   4.300   6.684 -0.5801  0.4198  1.2022
   25SAPC   H2S 3283   2.148   4.426   6.653 -0.0104 -1.7526  2.4937
   25SAPC    C3 3284   2.369   4.666   6.358 -0.9355  0.1616  0.0400
   25SAPC    HX 3285   2.276   4.723   6.339 -3.0133 -2.9123  0.4911
   25SAPC    HY 3286   2.436   4.691   6.273 -1.6657 -0.8622 -0.8507
   25SAPC   O31 3287   2.422   4.701   6.479  0.3362 -0.2189  0.2121
   25SAPC   C31 3288   2.342   4.716   6.587  0.2336 -0.0076 -0.0952
   25SAPC   O32 3289   2.221   4.736   6.580  0.4300  0.2053  0.0439
   25SAPC   C32 3290   2.427   4.720   6.719 -0.0277  0.3811  0.3091
   25SAPC   H2X 3291   2.493   4.809   6.707 -1.3454  1.4340  0.8630
   25SAPC   H2Y 3292   2.482   4.625   6.734 -1.4206  0.0702  3.9194
   25SAPC   C23 3293   2.061   4.224   6.593 -0.2912  0.2316  0.0265
   25SAPC   H3R 3294   2.002   4.249   6.502  0.1057 -0.8846 -0.5381
   25SAPC   H3S 3295   1.986   4.249   6.670  0.7237  2.9278  0.1967
   25SAPC   C24 3296   2.114   4.076   6.596 -0.2883 -0.0632 -0.1026
   25SAPC   H4R 3297   2.127   4.051   6.704 -2.1710 -2.0212 -0.2952
   25SAPC   H4S 3298   2.209   4.063   6.542 -0.3667 -0.2682 -0.1886
   25SAPC   C25 3299   2.005   3.980   6.548 -0.0780 -0.3867  0.2548
   25SAPC   H5R 3300   1.992   3.968   6.440 -1.3576  1.0643  0.2351
   25SAPC   C26 3301   1.922   3.898   6.622  0.2850 -0.8204 -0.0857
   25SAPC   H6R 3302   1.851   3.834   6.567 -0.2129 -0.0139 -0.3780
   25SAPC   C27 3303   1.910   3.879   6.770  0.1134  0.0303 -0.2491
   25SAPC   H7R 3304   1.809   3.837   6.790  0.7688 -1.2231  0.5497
   25SAPC   H7S 3305   1.918   3.974   6.826 -0.3402  0.1426 -0.3760
   25SAPC   C28 3306   2.033   3.794   6.819  0.8550 -0.1792 -0.6506
   25SAPC   H8R 3307   2.121   3.799   6.753  1.4310  3.6283  0.2923
   25SAPC   C29 3308   2.040   3.708   6.919 -0.5082 -0.3431 -0.3852
   25SAPC   H9R 3309   2.138   3.666   6.943 -0.8050 -1.4052 -0.9903
   25SAPC  C210 3310   1.929   3.681   7.023  0.8760 -0.2446  0.3412
   25SAPC  H10R 3311   1.839   3.690   6.959  0.9357  1.2638  0.4677
   25SAPC  H10S 3312   1.922   3.756   7.104 -0.6524  0.2480 -0.2302
   25SAPC  C211 3313   1.944   3.539   7.086  0.5224  0.4268 -0.4416
   25SAPC  H11R 3314   1.957   3.457   7.014 -0.2400  1.1031 -1.3687
   25SAPC  C212 3315   1.934   3.510   7.220  0.3558 -0.8263  0.0797
   25SAPC  H12R 3316   1.963   3.409   7.253  0.9351  0.1807  2.7194
   25SAPC  C213 3317   1.911   3.601   7.341 -0.9107 -0.0983 -0.1091
   25SAPC  H13R 3318   1.872   3.701   7.310 -1.3653  0.1034  1.1021
   25SAPC  H13S 3319   2.008   3.623   7.389 -1.5491  1.0057  0.6761
   25SAPC  C214 3320   1.808   3.540   7.431 -0.4041 -0.1672  1.2326
   25SAPC  H14R 3321   1.724   3.489   7.383  0.3000 -0.6729  0.5253
   25SAPC  C215 3322   1.799   3.539   7.564 -0.5808  0.1259  0.3500
   25SAPC  H15R 3323   1.717   3.482   7.610  0.7043 -1.2620  0.9666
   25SAPC  C216 3324   1.897   3.589   7.665  0.2932  0.6048 -0.4192
   25SAPC  H16R 3325   1.876   3.698   7.674 -2.3181  0.0516  0.9059
   25SAPC  H16S 3326   2.001   3.566   7.635  0.4798  2.3201 -1.0991
   25SAPC  C217 3327   1.880   3.519   7.799 -0.7244  0.1479  0.2221
   25SAPC  H17R 3328   1.893   3.409   7.786 -1.3475  0.5158 -4.6405
   25SAPC  H17S 3329   1.776   3.538   7.831 -1.0793 -1.6113  0.1851
   25SAPC  C218 3330   1.981   3.570   7.907 -0.5517 -0.0954 -0.1350
   25SAPC  H18R 3331   1.999   3.679   7.907  1.8242 -0.4634 -0.3531
   25SAPC  H18S 3332   2.081   3.527   7.881 -0.5753  0.7204 -1.6157
   25SAPC  C219 3333   1.941   3.537   8.048 -0.2781 -0.4000 -1.0875
   25SAPC  H19R 3334   2.027   3.532   8.118  0.3114 -0.9928 -1.8398
   25SAPC  H19S 3335   1.892   3.437   8.038  1.6895 -1.4771 -0.2451
   25SAPC  C220 3336   1.835   3.629   8.114  0.3353 -0.6698 -0.1653
   25SAPC  H20R 3337   1.751   3.638   8.042 -0.8095 -2.6251  0.8846
   25SAPC  H20S 3338   1.876   3.731   8.134  0.3777 -0.8054  0.4414
   25SAPC  H20T 3339   1.798   3.596   8.213  0.0094  0.3750  0.0745
   25SAPC   C33 3340   2.338   4.761   6.836  0.2405 -0.7054  0.1801
   25SAPC   H3X 3341   2.285   4.670   6.869  0.0933 -0.9056 -0.5832
   25SAPC   H3Y 3342   2.259   4.835   6.813  1.7568  0.5177 -1.3004
   25SAPC   C34 3343   2.423   4.811   6.953  0.1829  0.6423  0.2406
   25SAPC   H4X 3344   2.471   4.908   6.932  1.9461  0.3993  2.9507
   25SAPC   H4Y 3345   2.505   4.739   6.972 -1.0613 -0.7607  0.3909
   25SAPC   C35 3346   2.337   4.817   7.081  0.0484 -0.2146  0.0704
   25SAPC   H5X 3347   2.260   4.737   7.084  0.2557 -0.4396 -0.4660
   25SAPC   H5Y 3348   2.284   4.915   7.083  1.0543  0.3617 -0.6612
   25SAPC   C36 3349   2.437   4.804   7.201 -0.0788  0.2419 -0.2853
   25SAPC   H6X 3350   2.517   4.881   7.194  0.3078 -0.2049 -0.9106
   25SAPC   H6Y 3351   2.489   4.706   7.195  1.2769  0.8179  1.7846
   25SAPC   C37 3352   2.377   4.802   7.342 -0.4806 -0.4063  0.6413
   25SAPC   H7X 3353   2.311   4.713   7.354  0.2620 -1.3778 -1.9391
   25SAPC   H7Y 3354   2.315   4.892   7.363 -0.3843 -0.3423  0.6512
   25SAPC   C38 3355   2.477   4.783   7.449  0.2366 -0.4042  0.2734
   25SAPC   H8X 3356   2.552   4.864   7.448 -0.4457  0.2494  0.9885
   25SAPC   H8Y 3357   2.522   4.682   7.438  1.8127  0.2508  0.5801
   25SAPC   C39 3358   2.409   4.785   7.591 -0.0673  0.0633 -0.0919
   25SAPC   H9X 3359   2.393   4.679   7.617  1.0894 -0.4196 -1.2937
   25SAPC   H9Y 3360   2.314   4.843   7.592 -1.4513 -2.0763 -1.7673
   25SAPC  C310 3361   2.501   4.848   7.695 -0.0265  0.0609 -0.8004
   25SAPC  H10X 3362   2.553   4.935   7.649  0.7128 -0.2162 -0.4859
   25SAPC  H10Y 3363   2.571   4.767   7.725 -2.4056 -2.0504 -0.7527
   25SAPC  C311 3364   2.427   4.902   7.818 -0.1216  0.5693 -0.4971
   25SAPC  H11X 3365   2.363   4.814   7.843  0.2580 -0.1123 -1.8862
   25SAPC  H11Y 3366   2.355   4.978   7.781 -0.7393  1.3175  2.0921
   25SAPC  C312 3367   2.516   4.962   7.927  0.2967 -0.3755  0.2054
   25SAPC  H12X 3368   2.606   5.011   7.883  0.2325 -0.3690  0.0827
   25SAPC  H12Y 3369   2.547   4.874   7.986 -1.4632 -0.1737  1.4426
   25SAPC  C313 3370   2.445   5.060   8.012  0.6446 -0.3774 -0.0814
   25SAPC  H13X 3371   2.363   4.994   8.048  1.9307 -2.2895 -0.6059
   25SAPC  H13Y 3372   2.398   5.141   7.951  0.4065 -0.9578 -0.6825
   25SAPC  C314 3373   2.519   5.122   8.134  0.8125 -0.5293  0.1962
   25SAPC  H14X 3374   2.615   5.167   8.102  0.8191 -0.5664  0.1657
   25SAPC  H14Y 3375   2.555   5.044   8.204 -0.0847 -1.1477 -0.0195
   25SAPC  C315 3376   2.431   5.224   8.203 -0.8913  0.7467  0.0738
   25SAPC  H15X 3377   2.327   5.186   8.209 -0.4685 -0.1225  2.6349
   25SAPC  H15Y 3378   2.424   5.317   8.143  1.4444  0.5446 -0.5444
   25SAPC  C316 3379   2.487   5.263   8.346  0.2705  0.2469 -0.4301
   25SAPC  H16X 3380   2.436   5.352   8.389  1.1954 -0.3311  1.9295
   25SAPC  H16Y 3381   2.589   5.301   8.321  0.5632  0.7922  1.5084
   25SAPC  C317 3382   2.504   5.160   8.460  0.6711 -0.3488  0.0452
   25SAPC  H17X 3383   2.546   5.209   8.550 -1.0383 -0.6796  1.0274
   25SAPC  H17Y 3384   2.579   5.084   8.429 -0.2208 -2.0141  1.8795
   25SAPC  C318 3385   2.370   5.088   8.493 -0.0532 -0.1332  0.3672
   25SAPC  H18X 3386   2.389   5.027   8.583 -0.6770  0.0965  0.6529
   25SAPC  H18Y 3387   2.345   5.014   8.413 -0.2866  1.3737 -0.9886
   25SAPC  H18Z 3388   2.290   5.162   8.512  2.5798  2.3817  1.9210
   26SAPC     N 3389   1.711   6.374   5.962 -0.0565  0.4691 -0.7532
   26SAPC   C12 3390   1.796   6.381   6.092 -0.4506 -0.2740 -0.0640
   26SAPC  H12A 3391   1.897   6.396   6.057 -0.8356  0.9943 -0.6509
   26SAPC  H12B 3392   1.809   6.290   6.149  0.0403 -1.2848 -1.7422
   26SAPC   C13 3393   1.780   6.276   5.870 -0.1874  0.2079 -0.1345
   26SAPC  H13A 3394   1.741   6.279   5.769 -3.3704 -0.3473  1.0008
   26SAPC  H13B 3395   1.886   6.295   5.867 -0.6713  2.9260 -2.2087
   26SAPC  H13C 3396   1.777   6.171   5.896 -0.2590 -0.4440 -2.5874
   26SAPC   C14 3397   1.561   6.331   5.983 -0.4190  0.1765 -0.2334
   26SAPC  H14A 3398   1.503   6.322   5.893  0.9984  2.2263 -1.3976
   26SAPC  H14B 3399   1.555   6.232   6.026 -2.8235  0.3106 -0.1965
   26SAPC  H14C 3400   1.514   6.397   6.055  4.3887  3.6798 -0.0132
   26SAPC   C15 3401   1.723   6.510   5.891 -0.4873 -0.0258 -0.3028
   26SAPC  H15A 3402   1.824   6.547   5.891 -0.3847 -0.2680  0.6768
   26SAPC  H15B 3403   1.704   6.507   5.785 -0.8690 -1.3441 -0.2109
   26SAPC  H15C 3404   1.658   6.582   5.938  0.4245  0.9896 -0.5897
   26SAPC   C11 3405   1.754   6.481   6.204  0.1153 -1.3475  0.0805
   26SAPC  H11A 3406   1.739   6.580   6.156 -0.6804 -1.6172 -0.2329
   26SAPC  H11B 3407   1.827   6.513   6.281 -3.0277  2.3221  1.6854
   26SAPC     P 3408   1.631   6.309   6.353 -0.0107 -0.3829 -0.1532
   26SAPC   O13 3409   1.504   6.234   6.341 -0.2482 -0.0924 -0.1155
   26SAPC   O14 3410   1.750   6.227   6.332 -0.1819 -0.1602  0.0870
   26SAPC   O12 3411   1.628   6.434   6.257 -0.2825 -0.6199 -0.1459
   26SAPC   O11 3412   1.654   6.375   6.494 -0.1043  0.2704 -0.3387
   26SAPC    C1 3413   1.602   6.314   6.611  0.3558 -0.1660 -0.6118
   26SAPC    HA 3414   1.491   6.312   6.604  0.2700  1.4082  0.0436
   26SAPC    HB 3415   1.639   6.210   6.624  0.7812  0.0195 -0.3205
   26SAPC    C2 3416   1.640   6.390   6.732 -0.1218 -0.1444  0.0652
   26SAPC    HS 3417   1.701   6.481   6.714 -1.7248  0.8734 -0.3544
   26SAPC   O21 3418   1.708   6.308   6.827  0.5820  0.3164 -0.1181
   26SAPC   C21 3419   1.828   6.271   6.795  0.2067 -0.3518 -0.1863
   26SAPC   O22 3420   1.881   6.300   6.689 -0.4835  0.0378  0.3465
   26SAPC   C22 3421   1.897   6.198   6.917  0.5276  0.2147 -0.4342
   26SAPC   H2R 3422   1.847   6.244   7.004 -0.0783 -2.0996  0.4942
   26SAPC   H2S 3423   1.857   6.094   6.913 -0.4560  0.5769 -0.1405
   26SAPC    C3 3424   1.511   6.425   6.806  0.0403  0.1247 -0.0887
   26SAPC    HX 3425   1.450   6.333   6.809 -0.8270  0.5468 -3.1191
   26SAPC    HY 3426   1.472   6.508   6.743 -2.0691  0.6550  1.8676
   26SAPC   O31 3427   1.534   6.481   6.933 -1.1103  0.4547  0.2959
   26SAPC   C31 3428   1.424   6.483   7.024 -0.0122  0.6558  0.1314
   26SAPC   O32 3429   1.311   6.452   6.994  0.0371 -0.0927 -0.1989
   26SAPC   C32 3430   1.472   6.551   7.146 -0.4137 -0.0151  0.9793
   26SAPC   H2X 3431   1.489   6.658   7.123  0.5129 -0.3318  0.1223
   26SAPC   H2Y 3432   1.569   6.503   7.175 -0.1490 -0.8812 -1.2703
   26SAPC   C23 3433   2.052   6.207   6.932  1.1096  0.0267  0.0683
   26SAPC   H3R 3434   2.081   6.314   6.933 -0.6451  0.5305 -1.0915
   26SAPC   H3S 3435   2.093   6.152   6.844 -0.2356 -2.8701  1.1829
   26SAPC   C24 3436   2.113   6.159   7.065 -0.4903 -0.7055  0.5429
   26SAPC   H4R 3437   2.090   6.221   7.154 -1.3573 -0.1843 -0.0318
   26SAPC   H4S 3438   2.222   6.170   7.046 -0.7478 -0.4628 -0.9249
   26SAPC   C25 3439   2.079   6.011   7.091  0.5635 -0.4024  0.2696
   26SAPC   H5R 3440   2.118   5.937   7.020  1.3014 -0.1839  0.4412
   26SAPC   C26 3441   2.021   5.968   7.204 -0.4588 -0.9664 -0.0873
   26SAPC   H6R 3442   2.018   5.859   7.219 -1.2009 -1.1361 -1.4042
   26SAPC   C27 3443   1.966   6.046   7.323 -0.7751 -0.1965 -0.4971
   26SAPC   H7R 3444   1.913   5.972   7.386  0.8381 -2.9742 -2.3197
   26SAPC   H7S 3445   1.912   6.135   7.284 -0.6090  0.1632  0.0766
   26SAPC   C28 3446   2.079   6.115   7.416  0.6325 -0.0464  0.1703
   26SAPC   H8R 3447   2.131   6.202   7.374  0.3589  0.9033  1.7643
   26SAPC   C29 3448   2.088   6.103   7.547 -0.0627  0.4500  0.8632
   26SAPC   H9R 3449   2.160   6.172   7.594  2.7400  0.1269 -2.7701
   26SAPC  C210 3450   2.003   6.014   7.639 -0.6298 -0.6658 -0.1684
   26SAPC  H10R 3451   2.049   5.913   7.640  3.8077  1.1811 -3.4242
   26SAPC  H10S 3452   1.902   5.997   7.595 -0.8439 -2.2570  0.8697
   26SAPC  C211 3453   1.979   6.090   7.772  0.2404 -0.5542 -0.3346
   26SAPC  H11R 3454   1.887   6.149   7.780  0.5709 -0.0719 -0.0919
   26SAPC  C212 3455   2.070   6.102   7.871  0.1394  0.5528  0.5612
   26SAPC  H12R 3456   2.038   6.151   7.964 -2.3066  0.8062 -0.3770
   26SAPC  C213 3457   2.210   6.041   7.867  0.4142  0.1395  0.7687
   26SAPC  H13R 3458   2.208   5.949   7.804  1.7331  1.6386 -1.5189
   26SAPC  H13S 3459   2.240   5.996   7.964 -1.3044 -2.2387  0.2511
   26SAPC  C214 3460   2.315   6.142   7.814 -0.1539 -0.1796 -0.5672
   26SAPC  H14R 3461   2.320   6.141   7.704 -0.0443 -0.1332 -0.5617
   26SAPC  C215 3462   2.388   6.222   7.891  0.1317  0.8474 -0.8484
   26SAPC  H15R 3463   2.476   6.270   7.844 -0.0963  2.0794 -0.0285
   26SAPC  C216 3464   2.395   6.235   8.042  0.5817 -0.0184  0.7714
   26SAPC  H16R 3465   2.307   6.181   8.083  0.6384 -1.6355 -1.1475
   26SAPC  H16S 3466   2.382   6.343   8.065  0.6107 -0.2163  1.7357
   26SAPC  C217 3467   2.521   6.189   8.123 -0.3894  0.1497  0.8397
   26SAPC  H17R 3468   2.612   6.226   8.070  0.2589  0.2843  2.0409
   26SAPC  H17S 3469   2.511   6.081   8.097 -0.6198  0.1016  1.1319
   26SAPC  C218 3470   2.530   6.202   8.276 -0.0479 -0.3483 -0.1210
   26SAPC  H18R 3471   2.436   6.155   8.313 -2.1343  1.7248 -2.5615
   26SAPC  H18S 3472   2.523   6.310   8.299 -1.9870 -0.4393 -0.2064
   26SAPC  C219 3473   2.642   6.129   8.354 -0.2817  0.1158 -0.4534
   26SAPC  H19R 3474   2.740   6.161   8.312 -0.3891  0.3105 -0.5550
   26SAPC  H19S 3475   2.635   6.019   8.367 -1.9753  0.6628  3.8402
   26SAPC  C220 3476   2.650   6.182   8.504  0.6816 -0.1282  0.6475
   26SAPC  H20R 3477   2.650   6.293   8.509  0.3506 -0.0432 -0.9696
   26SAPC  H20S 3478   2.745   6.140   8.544  0.1666 -0.2861  1.7319
   26SAPC  H20T 3479   2.561   6.138   8.554  1.1847 -1.2115  0.6017
   26SAPC   C33 3480   1.379   6.530   7.273  0.2731  0.1827 -0.2443
   26SAPC   H3X 3481   1.388   6.421   7.292 -0.8859  0.6831  3.7391
   26SAPC   H3Y 3482   1.273   6.555   7.249 -0.6972 -1.6843  1.9198
   26SAPC   C34 3483   1.422   6.610   7.396  0.3839 -0.3643  0.5484
   26SAPC   H4X 3484   1.426   6.717   7.367 -1.8232 -0.7818 -1.4595
   26SAPC   H4Y 3485   1.522   6.574   7.427  1.3810  0.4503 -1.6322
   26SAPC   C35 3486   1.321   6.582   7.512 -0.2337  0.2984 -0.4265
   26SAPC   H5X 3487   1.302   6.473   7.511 -0.4129  0.3398 -2.3285
   26SAPC   H5Y 3488   1.221   6.630   7.503  0.1677  1.3052  0.3882
   26SAPC   C36 3489   1.377   6.619   7.648  0.0800 -0.3874 -0.3793
   26SAPC   H6X 3490   1.412   6.724   7.645  3.6192 -1.5026 -0.3578
   26SAPC   H6Y 3491   1.468   6.561   7.673  0.1377 -0.2258 -0.2204
   26SAPC   C37 3492   1.283   6.584   7.753  0.6983  0.1276 -0.2371
   26SAPC   H7X 3493   1.262   6.475   7.750  0.4215  0.2180 -4.8387
   26SAPC   H7Y 3494   1.192   6.647   7.745  0.3492  0.6337  5.5283
   26SAPC   C38 3495   1.327   6.630   7.893 -0.2845  0.4258 -0.1329
   26SAPC   H8X 3496   1.339   6.740   7.903  0.2046  0.4306 -0.7911
   26SAPC   H8Y 3497   1.426   6.587   7.919  0.3854  1.4246 -1.0135
   26SAPC   C39 3498   1.224   6.574   7.998 -0.3404 -0.2879 -0.1787
   26SAPC   H9X 3499   1.212   6.464   7.987 -0.5384 -0.2935  0.0987
   26SAPC   H9Y 3500   1.128   6.625   7.977 -0.1472  1.0447  2.0074
   26SAPC  C310 3501   1.272   6.594   8.145  0.8309 -0.3338 -0.0429
   26SAPC  H10X 3502   1.320   6.694   8.156  0.4721 -0.4016  2.6220
   26SAPC  H10Y 3503   1.356   6.523   8.161  0.1128 -1.3533 -0.7326
   26SAPC  C311 3504   1.166   6.550   8.250  0.8105 -0.0668 -0.4014
   26SAPC  H11X 3505   1.130   6.450   8.220  0.1347  0.3723 -1.0743
   26SAPC  H11Y 3506   1.079   6.620   8.244  0.5880 -0.4770 -2.2470
   26SAPC  C312 3507   1.224   6.546   8.393  0.7668 -0.0422  0.9173
   26SAPC  H12X 3508   1.264   6.644   8.427  0.0997  0.5033  0.1409
   26SAPC  H12Y 3509   1.313   6.480   8.391  1.2879  0.6708  0.4626
   26SAPC  C313 3510   1.124   6.507   8.502  0.2663 -0.1537  0.1799
   26SAPC  H13X 3511   1.108   6.398   8.486  0.0827  0.0602 -1.1884
   26SAPC  H13Y 3512   1.035   6.573   8.497  0.6406  0.5994  2.6166
   26SAPC  C314 3513   1.194   6.530   8.639  0.4998 -0.5323  0.3792
   26SAPC  H14X 3514   1.189   6.641   8.651  5.0818 -0.4281  2.3038
   26SAPC  H14Y 3515   1.297   6.488   8.636  0.5307 -0.3219 -2.0954
   26SAPC  C315 3516   1.125   6.461   8.762  0.6004 -0.0132 -0.3910
   26SAPC  H15X 3517   1.135   6.350   8.760  0.3154 -0.0763  1.0966
   26SAPC  H15Y 3518   1.016   6.483   8.764  0.6724  0.4144 -1.2119
   26SAPC  C316 3519   1.192   6.506   8.891  0.3873  0.0956  0.1394
   26SAPC  H16X 3520   1.181   6.614   8.915 -1.8550 -0.4336  1.6255
   26SAPC  H16Y 3521   1.301   6.483   8.889  0.2574 -0.5542  0.5468
   26SAPC  C317 3522   1.149   6.421   9.009 -0.0920 -0.2808 -0.8136
   26SAPC  H17X 3523   1.158   6.313   8.984  1.5506  0.0692 -1.8833
   26SAPC  H17Y 3524   1.042   6.445   9.020 -0.4896 -1.4450 -2.0036
   26SAPC  C318 3525   1.217   6.446   9.139 -0.0176  0.6443  0.0078
   26SAPC  H18X 3526   1.322   6.410   9.150 -0.7576 -0.7814  2.7028
   26SAPC  H18Y 3527   1.155   6.407   9.222 -0.2420  1.1597  0.0792
   26SAPC  H18Z 3528   1.213   6.554   9.164  0.1266  0.3998  1.0943
   27SAPC     N 3529   6.702   0.035   6.676  0.0295 -0.1438  0.4584
   27SAPC   C12 3530   6.596  -0.023   6.765  0.0020  0.2527  0.3557
   27SAPC  H12A 3531   6.503   0.029   6.746 -0.5763 -0.1682  1.9202
   27SAPC  H12B 3532   6.632  -0.003   6.865  2.9040 -0.5839 -0.4852
   27SAPC   C13 3533   6.710   0.181   6.707  0.1493  0.0992  0.3655
   27SAPC  H13A 3534   6.772   0.200   6.793  1.4615 -1.5015 -0.1926
   27SAPC  H13B 3535   6.760   0.228   6.624  0.4627  0.6461  0.8633
   27SAPC  H13C 3536   6.607   0.213   6.715  0.1229  0.0032  0.4120
   27SAPC   C14 3537   6.839  -0.019   6.706 -0.3655  0.3726  0.3834
   27SAPC  H14A 3538   6.839  -0.127   6.704 -0.3408  0.3885 -0.7761
   27SAPC  H14B 3539   6.914   0.017   6.637  0.8155 -2.3916  0.1567
   27SAPC  H14C 3540   6.881   0.008   6.802 -0.2465  1.1331  0.1186
   27SAPC   C15 3541   6.672   0.020   6.525  0.0997  0.0036 -0.5020
   27SAPC  H15A 3542   6.587   0.075   6.489  0.7428  0.4574 -1.3416
   27SAPC  H15B 3543   6.754   0.066   6.473  0.3540  1.7688  1.3968
   27SAPC  H15C 3544   6.659  -0.083   6.494  2.6980 -0.3805 -0.4440
   27SAPC   C11 3545   6.568  -0.177   6.769 -0.7697 -0.1403  0.2825
   27SAPC  H11A 3546   6.578  -0.196   6.660 -1.7761 -2.6678  0.6013
   27SAPC  H11B 3547   6.468  -0.201   6.810 -1.4493  0.7980 -0.8134
   27SAPC     P 3548   6.694  -0.394   6.802 -0.2974  0.1160 -0.3852
   27SAPC   O13 3549   6.706  -0.417   6.656  0.0678  0.1319  0.7850
   27SAPC   O14 3550   6.800  -0.450   6.891  0.5669 -0.3088  0.6249
   27SAPC   O12 3551   6.672  -0.245   6.838 -0.9176  0.1816 -0.5179
   27SAPC   O11 3552   6.560  -0.456   6.846 -0.2714 -0.5261  0.0082
   27SAPC    C1 3553   6.525  -0.466   6.988  0.2364 -0.6896 -0.2664
   27SAPC    HA 3554   6.563  -0.379   7.045  1.2965 -1.1602 -0.2450
   27SAPC    HB 3555   6.415  -0.462   6.998  0.0963 -1.1106 -1.4970
   27SAPC    C2 3556   6.573  -0.594   7.055 -0.2055 -0.5391  0.1601
   27SAPC    HS 3557   6.680  -0.616   7.037  0.0178  0.9052 -0.3107
   27SAPC   O21 3558   6.491  -0.706   7.021  0.2973  0.6619  0.0342
   27SAPC   C21 3559   6.536  -0.790   6.939 -0.6397 -0.6069 -0.1295
   27SAPC   O22 3560   6.634  -0.772   6.865  0.0342 -0.1299 -0.3440
   27SAPC   C22 3561   6.442  -0.903   6.930  0.2813  0.2107 -0.8609
   27SAPC   H2R 3562   6.336  -0.872   6.915  0.7259  1.0938 -2.3045
   27SAPC   H2S 3563   6.474  -0.955   6.837  1.8150 -0.2093 -0.1118
   27SAPC    C3 3564   6.538  -0.581   7.206 -0.1648 -0.1110  0.5404
   27SAPC    HX 3565   6.429  -0.559   7.213 -0.1610  0.0359  0.1495
   27SAPC    HY 3566   6.595  -0.497   7.253  0.1871 -0.6221  1.0444
   27SAPC   O31 3567   6.575  -0.699   7.278 -0.4623  0.1136  0.3236
   27SAPC   C31 3568   6.505  -0.736   7.383 -0.2606  0.0479  0.2314
   27SAPC   O32 3569   6.409  -0.677   7.433  0.1185  0.2144  0.0689
   27SAPC   C32 3570   6.554  -0.856   7.459 -0.1463  0.1702  0.5186
   27SAPC   H2X 3571   6.599  -0.925   7.384 -1.0981 -2.1020  1.9577
   27SAPC   H2Y 3572   6.472  -0.905   7.515 -0.8110 -1.3355 -1.6886
   27SAPC   C23 3573   6.457  -0.997   7.053 -0.6981  0.2110  0.2607
   27SAPC   H3R 3574   6.383  -1.080   7.047  0.4654 -0.8188  0.0638
   27SAPC   H3S 3575   6.443  -0.945   7.150 -0.8610 -1.5559  1.2093
   27SAPC   C24 3576   6.601  -1.058   7.059  0.1995 -0.2953  0.3219
   27SAPC   H4R 3577   6.644  -1.032   7.157  0.8942 -1.0409  0.2262
   27SAPC   H4S 3578   6.673  -1.016   6.985 -0.0320  1.3824  1.0328
   27SAPC   C25 3579   6.598  -1.205   7.034 -0.6721 -0.4801 -0.3257
   27SAPC   H5R 3580   6.594  -1.231   6.927 -2.0704  1.4678 -0.7659
   27SAPC   C26 3581   6.621  -1.296   7.134  0.2973  0.4615 -0.9996
   27SAPC   H6R 3582   6.609  -1.404   7.119  0.0131  0.1937  1.0365
   27SAPC   C27 3583   6.648  -1.263   7.280  0.2673 -0.1602 -0.3569
   27SAPC   H7R 3584   6.709  -1.170   7.282  1.7884 -1.1005 -1.9001
   27SAPC   H7S 3585   6.709  -1.345   7.322  0.0118 -1.6522 -2.7906
   27SAPC   C28 3586   6.532  -1.223   7.362  0.3622  0.5033 -0.8432
   27SAPC   H8R 3587   6.438  -1.194   7.314  0.9160  1.8946 -1.1247
   27SAPC   C29 3588   6.533  -1.203   7.496 -0.3015 -0.2117  0.1512
   27SAPC   H9R 3589   6.437  -1.163   7.534 -0.1066  1.4422 -1.0087
   27SAPC  C210 3590   6.644  -1.234   7.594  0.5065  0.4402  0.0304
   27SAPC  H10R 3591   6.669  -1.153   7.665  0.3395  1.9968 -1.6591
   27SAPC  H10S 3592   6.739  -1.241   7.536  0.3967 -2.9059  0.1247
   27SAPC  C211 3593   6.631  -1.372   7.667 -0.2226  0.0679  0.4846
   27SAPC  H11R 3594   6.612  -1.458   7.601 -1.3665 -0.4694  1.5022
   27SAPC  C212 3595   6.626  -1.396   7.796  0.5239  0.2663  0.8778
   27SAPC  H12R 3596   6.611  -1.501   7.826 -1.5290 -0.3202 -2.0078
   27SAPC  C213 3597   6.625  -1.293   7.907  0.4193  0.0570 -0.2658
   27SAPC  H13R 3598   6.543  -1.218   7.902  3.0872  3.1944  1.2364
   27SAPC  H13S 3599   6.714  -1.226   7.905  0.9763 -0.6193  0.9655
   27SAPC  C214 3600   6.627  -1.367   8.029 -0.1290 -0.0646 -0.2267
   27SAPC  H14R 3601   6.722  -1.421   8.037 -0.3037 -0.4199 -0.5449
   27SAPC  C215 3602   6.525  -1.374   8.113  0.1384 -0.5178  1.1842
   27SAPC  H15R 3603   6.539  -1.408   8.217  1.2665 -0.0750  1.1864
   27SAPC  C216 3604   6.395  -1.308   8.110  0.1582  0.5122 -0.6613
   27SAPC  H16R 3605   6.392  -1.236   8.025  0.1249 -0.4556 -1.4766
   27SAPC  H16S 3606   6.383  -1.251   8.205  0.2735 -2.0222  0.9020
   27SAPC  C217 3607   6.272  -1.404   8.092 -0.2265  0.4381  0.3576
   27SAPC  H17R 3608   6.292  -1.456   7.995  1.0753  1.8231 -0.1263
   27SAPC  H17S 3609   6.178  -1.346   8.079 -0.1405  0.8259  1.4874
   27SAPC  C218 3610   6.250  -1.501   8.215 -0.2022 -0.1695  1.0177
   27SAPC  H18R 3611   6.229  -1.440   8.305  0.4206 -0.0464  1.0802
   27SAPC  H18S 3612   6.338  -1.568   8.221 -0.3689 -0.7919 -2.1918
   27SAPC  C219 3613   6.132  -1.595   8.188  0.4340 -0.3926  0.1859
   27SAPC  H19R 3614   6.150  -1.671   8.108  0.4764  0.0482 -0.2260
   27SAPC  H19S 3615   6.048  -1.533   8.151  0.2565 -0.0890  1.1158
   27SAPC  C220 3616   6.091  -1.677   8.313 -0.6044 -1.2818  0.5243
   27SAPC  H20R 3617   5.995  -1.722   8.279 -1.6725  1.7938 -0.6689
   27SAPC  H20S 3618   6.094  -1.606   8.399 -1.0375 -0.4435 -0.1577
   27SAPC  H20T 3619   6.163  -1.760   8.326  0.9534 -0.3660 -1.9286
   27SAPC   C33 3620   6.659  -0.822   7.561  0.2036  0.6205  0.0595
   27SAPC   H3X 3621   6.756  -0.789   7.517  2.0202 -1.7548  2.1734
   27SAPC   H3Y 3622   6.689  -0.919   7.605 -1.6975 -1.6234 -3.3660
   27SAPC   C34 3623   6.611  -0.722   7.672 -0.0387  0.6897  0.3216
   27SAPC   H4X 3624   6.560  -0.638   7.618  0.8890  0.8595 -0.2946
   27SAPC   H4Y 3625   6.696  -0.671   7.722  2.6839 -1.9252 -1.4851
   27SAPC   C35 3626   6.518  -0.783   7.776 -0.1877 -0.1512  1.2538
   27SAPC   H5X 3627   6.425  -0.829   7.738  0.2560 -1.5398  1.8049
   27SAPC   H5Y 3628   6.493  -0.701   7.846 -1.9826  1.1006 -0.8039
   27SAPC   C36 3629   6.591  -0.889   7.861 -0.2029 -0.0043  0.2856
   27SAPC   H6X 3630   6.689  -0.856   7.899 -0.9542  2.4242  0.1831
   27SAPC   H6Y 3631   6.616  -0.969   7.788  2.7877  1.4905 -0.4181
   27SAPC   C37 3632   6.509  -0.942   7.971  1.0444  0.6343 -0.6486
   27SAPC   H7X 3633   6.560  -1.031   8.014 -1.7853 -0.6971  0.0532
   27SAPC   H7Y 3634   6.417  -0.990   7.930  0.4119 -2.0354  3.6225
   27SAPC   C38 3635   6.483  -0.839   8.088 -0.1821 -0.0904  0.0357
   27SAPC   H8X 3636   6.420  -0.760   8.042  2.1664  1.2356 -0.9947
   27SAPC   H8Y 3637   6.576  -0.795   8.129  0.0767 -0.6458  0.0460
   27SAPC   C39 3638   6.392  -0.906   8.194  0.4726 -0.4267  0.8257
   27SAPC   H9X 3639   6.448  -0.901   8.290  1.6856  2.5009  0.0082
   27SAPC   H9Y 3640   6.372  -1.015   8.180  0.0009 -0.3594  0.9842
   27SAPC  C310 3641   6.261  -0.830   8.208 -0.5712  0.0973  0.6720
   27SAPC  H10X 3642   6.223  -0.831   8.103  1.7107  0.9623 -0.1926
   27SAPC  H10Y 3643   6.285  -0.723   8.227 -1.8507  0.5964 -0.3522
   27SAPC  C311 3644   6.153  -0.891   8.296 -0.5089 -0.6551 -0.5953
   27SAPC  H11X 3645   6.195  -0.892   8.399  0.8897  0.9905 -1.1156
   27SAPC  H11Y 3646   6.141  -0.998   8.270 -0.8658 -0.3747 -1.6211
   27SAPC  C312 3647   6.026  -0.813   8.296 -0.1772 -0.4270  0.7056
   27SAPC  H12X 3648   5.994  -0.808   8.189  0.7507  0.9636  0.4837
   27SAPC  H12Y 3649   6.044  -0.714   8.341 -0.0541 -1.7721  3.7437
   27SAPC  C313 3650   5.908  -0.883   8.377  1.2951 -0.5277  0.0981
   27SAPC  H13X 3651   5.896  -0.989   8.345  1.5396 -0.2941 -0.7649
   27SAPC  H13Y 3652   5.813  -0.827   8.374  1.6669  0.2058  1.3969
   27SAPC  C314 3653   5.936  -0.900   8.527 -0.0534  0.4238 -0.2584
   27SAPC  H14X 3654   6.038  -0.863   8.551 -0.2740  1.8703 -1.4976
   27SAPC  H14Y 3655   5.929  -1.006   8.558  0.7056  0.3681 -0.2675
   27SAPC  C315 3656   5.835  -0.816   8.614 -0.0969  0.2535 -0.1022
   27SAPC  H15X 3657   5.735  -0.865   8.607  0.6885 -1.4272  0.3169
   27SAPC  H15Y 3658   5.836  -0.714   8.569 -0.4190  2.2520  4.2003
   27SAPC  C316 3659   5.875  -0.809   8.765 -0.5381 -0.2600  0.7092
   27SAPC  H16X 3660   5.809  -0.739   8.820 -0.4973  0.9327 -0.7295
   27SAPC  H16Y 3661   5.978  -0.766   8.767 -0.0651 -1.3038 -0.2948
   27SAPC  C317 3662   5.888  -0.942   8.843 -0.4986  0.1583  0.3224
   27SAPC  H17X 3663   5.906  -0.913   8.949 -2.8139 -0.3542  0.8748
   27SAPC  H17Y 3664   5.978  -0.988   8.797  0.9342  2.0116  1.1602
   27SAPC  C318 3665   5.771  -1.045   8.828 -0.6084  0.7794  0.1067
   27SAPC  H18X 3666   5.682  -1.002   8.878 -0.3785  0.2403  0.9801
   27SAPC  H18Y 3667   5.797  -1.139   8.881 -1.7891 -0.3344 -1.2225
   27SAPC  H18Z 3668   5.736  -1.064   8.724  1.2569 -1.1755 -0.1960
   28SAPC     N 3669   5.787   3.385   6.505 -0.2813 -0.2107  0.0337
   28SAPC   C12 3670   5.700   3.304   6.411 -0.1480  0.1875 -0.0895
   28SAPC  H12A 3671   5.770   3.259   6.342  1.1191 -0.9244  1.8737
   28SAPC  H12B 3672   5.639   3.368   6.350 -0.2572  0.6836  0.5398
   28SAPC   C13 3673   5.855   3.495   6.433  0.7419 -0.3314 -0.5746
   28SAPC  H13A 3674   5.915   3.455   6.352  1.1104 -0.5292 -0.2056
   28SAPC  H13B 3675   5.794   3.570   6.384 -0.2121 -1.3627 -0.9866
   28SAPC  H13C 3676   5.917   3.544   6.506  0.0690 -0.0239 -0.2126
   28SAPC   C14 3677   5.696   3.434   6.611  0.2960 -0.0801 -0.0384
   28SAPC  H14A 3678   5.675   3.364   6.691 -1.1296 -1.3010 -1.4641
   28SAPC  H14B 3679   5.749   3.509   6.667 -1.5759  1.4616 -0.2640
   28SAPC  H14C 3680   5.599   3.477   6.589 -0.0062 -1.2390 -1.0065
   28SAPC   C15 3681   5.896   3.296   6.559 -0.6941  0.2327 -0.4847
   28SAPC  H15A 3682   5.844   3.218   6.612 -4.5255  2.7393 -0.3225
   28SAPC  H15B 3683   5.954   3.247   6.482 -0.1825  0.5858 -0.3247
   28SAPC  H15C 3684   5.955   3.345   6.635  0.0701 -0.0862 -0.8687
   28SAPC   C11 3685   5.610   3.198   6.481 -0.8862  0.0567  0.4094
   28SAPC  H11A 3686   5.533   3.246   6.545 -0.2968  1.3585  0.1580
   28SAPC  H11B 3687   5.673   3.128   6.541  1.5932  0.4378 -1.6804
   28SAPC     P 3688   5.405   3.157   6.327 -0.1236  0.3798  0.3766
   28SAPC   O13 3689   5.373   3.299   6.347 -0.7366  0.1796  0.3157
   28SAPC   O14 3690   5.384   3.104   6.192  0.0963 -0.2752 -0.3722
   28SAPC   O12 3691   5.551   3.128   6.370  0.1661 -0.0963 -0.7621
   28SAPC   O11 3692   5.325   3.069   6.420 -0.0032  0.6114  0.7525
   28SAPC    C1 3693   5.306   2.935   6.421 -0.2075  0.5847 -0.4196
   28SAPC    HA 3694   5.207   2.905   6.383 -0.5691 -0.7137  1.4915
   28SAPC    HB 3695   5.390   2.884   6.368  1.9742  1.0458  2.4540
   28SAPC    C2 3696   5.325   2.869   6.563 -0.7479 -0.0006  0.7198
   28SAPC    HS 3697   5.323   2.758   6.560  1.0360 -0.1408  3.4404
   28SAPC   O21 3698   5.218   2.919   6.642  0.6993 -0.7158  0.3556
   28SAPC   C21 3699   5.105   2.845   6.635  0.4193 -0.1889  0.2199
   28SAPC   O22 3700   5.082   2.753   6.560 -0.2672  0.1506  0.0075
   28SAPC   C22 3701   5.002   2.910   6.723  0.3562  0.3718  0.1266
   28SAPC   H2R 3702   5.055   2.984   6.786 -0.8657 -0.1440  1.7745
   28SAPC   H2S 3703   4.933   2.969   6.659  0.0683 -1.1098 -0.9714
   28SAPC    C3 3704   5.454   2.919   6.626  0.4793 -0.0732 -0.2606
   28SAPC    HX 3705   5.467   3.028   6.610  1.3310 -0.2108 -0.4994
   28SAPC    HY 3706   5.535   2.867   6.570  2.6356  2.4000  0.4789
   28SAPC   O31 3707   5.455   2.881   6.763 -0.0859 -0.5810  0.3125
   28SAPC   C31 3708   5.414   2.975   6.844 -1.0606 -0.3542  0.1891
   28SAPC   O32 3709   5.403   3.092   6.818  0.2052  0.4201 -0.1452
   28SAPC   C32 3710   5.395   2.919   6.979  0.0818  0.4400  0.0515
   28SAPC   H2X 3711   5.482   2.856   7.004  0.3581  0.0520 -1.8470
   28SAPC   H2Y 3712   5.306   2.854   6.965  1.3135 -1.2771  0.0656
   28SAPC   C23 3713   4.924   2.817   6.820  0.4329 -0.3275 -0.8797
   28SAPC   H3R 3714   4.888   2.726   6.769 -1.2366  0.5621 -1.3320
   28SAPC   H3S 3715   4.826   2.861   6.849  1.4890  2.0770 -0.7742
   28SAPC   C24 3716   5.000   2.777   6.946 -0.1673 -0.3880  0.3846
   28SAPC   H4R 3717   4.922   2.717   6.997 -0.6142 -0.8941 -0.8694
   28SAPC   H4S 3718   5.090   2.716   6.924 -1.9967 -2.6292 -1.0574
   28SAPC   C25 3719   5.037   2.892   7.038  0.0205 -0.0363 -0.1504
   28SAPC   H5R 3720   5.081   2.979   6.987 -2.5119  1.4499  0.0811
   28SAPC   C26 3721   5.019   2.903   7.171  0.3137 -0.4393 -0.1227
   28SAPC   H6R 3722   5.047   2.994   7.226 -1.5568 -1.6622  3.0195
   28SAPC   C27 3723   4.957   2.806   7.270  0.1809 -0.3648 -0.5603
   28SAPC   H7R 3724   4.913   2.711   7.231 -0.0604 -0.1374 -0.8437
   28SAPC   H7S 3725   4.872   2.858   7.319  1.1587  0.1734  0.5846
   28SAPC   C28 3726   5.049   2.764   7.380  0.5804 -0.4716 -0.0425
   28SAPC   H8R 3727   5.140   2.722   7.335  1.0893 -0.0931  0.6341
   28SAPC   C29 3728   5.027   2.775   7.516  0.4280  0.1134 -0.1765
   28SAPC   H9R 3729   5.104   2.725   7.578 -0.8808  0.5001  1.7907
   28SAPC  C210 3730   4.912   2.835   7.592 -0.4290  0.2414  1.1716
   28SAPC  H10R 3731   4.821   2.858   7.532  0.9860 -0.9269 -1.5322
   28SAPC  H10S 3732   4.929   2.941   7.618  1.5759  0.2331 -0.0168
   28SAPC  C211 3733   4.859   2.749   7.709 -0.3674 -0.1058 -0.1959
   28SAPC  H11R 3734   4.772   2.684   7.694 -1.3649  1.3562 -0.8675
   28SAPC  C212 3735   4.906   2.776   7.828  0.2964 -0.5173 -0.0443
   28SAPC  H12R 3736   4.860   2.716   7.908 -2.7145  0.3738 -1.0392
   28SAPC  C213 3737   5.002   2.884   7.870 -0.1008 -0.1908 -0.1244
   28SAPC  H13R 3738   5.065   2.914   7.784  0.2899 -1.3093 -0.2427
   28SAPC  H13S 3739   5.063   2.851   7.957 -0.9169 -2.3556 -0.3190
   28SAPC  C214 3740   4.919   3.004   7.907  0.4462 -0.6543  0.0265
   28SAPC  H14R 3741   4.904   3.075   7.824 -0.1945 -0.3514  0.3983
   28SAPC  C215 3742   4.886   3.050   8.026 -1.2768 -0.1960  0.1605
   28SAPC  H15R 3743   4.835   3.146   8.046 -0.9128 -0.2615  1.4609
   28SAPC  C216 3744   4.914   2.991   8.159 -0.5376  0.7936  0.7176
   28SAPC  H16R 3745   5.004   3.033   8.209  0.1945  1.3849 -1.0557
   28SAPC  H16S 3746   4.940   2.883   8.147 -1.4796  0.9554 -3.5372
   28SAPC  C217 3747   4.804   2.986   8.261  0.0930 -0.8377 -0.1342
   28SAPC  H17R 3748   4.776   3.093   8.277 -2.0471 -1.3757 -0.1169
   28SAPC  H17S 3749   4.838   2.942   8.357  2.6632 -0.2122 -0.7168
   28SAPC  C218 3750   4.681   2.911   8.217 -0.6864  0.3017 -0.6213
   28SAPC  H18R 3751   4.640   2.964   8.128  0.9360  0.9612 -0.9925
   28SAPC  H18S 3752   4.606   2.906   8.299  1.2598  2.4773  1.3412
   28SAPC  C219 3753   4.700   2.766   8.179 -0.3804 -0.4235  0.0231
   28SAPC  H19R 3754   4.788   2.751   8.113  0.1355 -3.1086  1.2612
   28SAPC  H19S 3755   4.612   2.729   8.124 -0.9294 -1.5023  1.5966
   28SAPC  C220 3756   4.728   2.676   8.295 -0.1216 -0.2751  0.6106
   28SAPC  H20R 3757   4.802   2.715   8.368  0.2312  1.5093 -0.6782
   28SAPC  H20S 3758   4.759   2.585   8.239 -1.9121 -1.0184  0.8033
   28SAPC  H20T 3759   4.629   2.652   8.340 -0.1557 -1.9558 -0.3372
   28SAPC   C33 3760   5.374   3.022   7.097  0.3003  0.1114  0.6918
   28SAPC   H3X 3761   5.268   3.056   7.086 -0.8534 -3.3663  0.3043
   28SAPC   H3Y 3762   5.450   3.103   7.088  2.5143 -1.9804  0.1420
   28SAPC   C34 3763   5.385   2.963   7.237 -0.4950  0.6860 -0.4333
   28SAPC   H4X 3764   5.474   2.897   7.238 -1.4679 -0.6813 -1.2366
   28SAPC   H4Y 3765   5.292   2.901   7.234 -0.2519  0.3388 -0.9479
   28SAPC   C35 3766   5.373   3.061   7.354 -0.5994  0.3389 -0.3888
   28SAPC   H5X 3767   5.279   3.119   7.346 -0.5881  0.1327 -2.1718
   28SAPC   H5Y 3768   5.462   3.127   7.352  0.1155 -0.5404  1.0995
   28SAPC   C36 3769   5.375   3.001   7.496  0.0064  0.6675 -0.3800
   28SAPC   H6X 3770   5.475   2.961   7.524  0.3501  1.8438  0.1427
   28SAPC   H6Y 3771   5.303   2.917   7.501  0.6160  0.2462  1.9945
   28SAPC   C37 3772   5.337   3.113   7.604 -0.1693 -0.1226 -0.6443
   28SAPC   H7X 3773   5.227   3.124   7.594  0.1499  3.7245 -0.7647
   28SAPC   H7Y 3774   5.393   3.209   7.592  0.5593 -0.5452 -0.6567
   28SAPC   C38 3775   5.356   3.070   7.750  0.3054  0.1541 -0.4217
   28SAPC   H8X 3776   5.464   3.051   7.764  0.2387  0.3268  0.3888
   28SAPC   H8Y 3777   5.310   2.970   7.756  1.4233 -0.2659  1.7473
   28SAPC   C39 3778   5.292   3.171   7.850 -1.0137  0.2211  0.2522
   28SAPC   H9X 3779   5.184   3.145   7.849 -1.0428  0.3449 -0.1386
   28SAPC   H9Y 3780   5.315   3.277   7.825  0.5225  0.7462  3.6804
   28SAPC  C310 3781   5.333   3.144   7.988 -0.2924 -0.2048 -0.1648
   28SAPC  H10X 3782   5.439   3.173   8.002 -0.5747  1.7512 -1.9783
   28SAPC  H10Y 3783   5.327   3.036   8.014  2.5812 -0.7990 -1.7383
   28SAPC  C311 3784   5.240   3.222   8.087 -0.0288  0.1410 -0.7623
   28SAPC  H11X 3785   5.136   3.186   8.073  0.2910 -1.4267  0.7427
   28SAPC  H11Y 3786   5.258   3.328   8.057 -1.2213 -0.4196 -3.6585
   28SAPC  C312 3787   5.278   3.195   8.236  0.0852  0.0564  0.5925
   28SAPC  H12X 3788   5.253   3.088   8.248 -0.5772  0.0606 -0.7129
   28SAPC  H12Y 3789   5.206   3.247   8.304  1.0423  1.7456  0.3412
   28SAPC  C313 3790   5.426   3.227   8.276 -0.0977  0.0186 -0.7885
   28SAPC  H13X 3791   5.481   3.306   8.221  0.2482  0.6425  0.4277
   28SAPC  H13Y 3792   5.481   3.132   8.258  0.3529  0.0849  0.1834
   28SAPC  C314 3793   5.441   3.275   8.421  0.2787  0.3761  0.1412
   28SAPC  H14X 3794   5.384   3.370   8.434 -1.9501 -0.7950 -0.7675
   28SAPC  H14Y 3795   5.551   3.283   8.437  1.0069 -2.0697 -3.0463
   28SAPC  C315 3796   5.402   3.169   8.520 -0.0803 -1.1481  0.0527
   28SAPC  H15X 3797   5.482   3.091   8.521 -0.0709 -1.1957 -1.9766
   28SAPC  H15Y 3798   5.302   3.127   8.497 -1.0444  2.0105 -1.8136
   28SAPC  C316 3799   5.399   3.215   8.665 -0.0542 -0.4822  0.1566
   28SAPC  H16X 3800   5.351   3.134   8.724  0.7493  0.2922  1.9203
   28SAPC  H16Y 3801   5.337   3.307   8.662  1.8818  0.8539 -0.2170
   28SAPC  C317 3802   5.528   3.275   8.727 -0.1874  0.1922  0.2713
   28SAPC  H17X 3803   5.569   3.360   8.667  1.2670 -0.3304  0.5141
   28SAPC  H17Y 3804   5.600   3.190   8.717  0.8819  1.1138 -0.0285
   28SAPC  C318 3805   5.511   3.318   8.870 -0.2193  0.5202 -0.5627
   28SAPC  H18X 3806   5.611   3.348   8.907 -0.0641 -1.4166  0.6737
   28SAPC  H18Y 3807   5.479   3.232   8.934 -0.5775  0.9007 -0.2280
   28SAPC  H18Z 3808   5.452   3.408   8.897 -0.1045 -0.8120  4.6793
   29SAPC     N 3809   1.860   0.117   6.329 -0.5156  0.1210  0.0160
   29SAPC   C12 3810   1.738   0.091   6.244 -0.1969  0.2498 -0.6305
   29SAPC  H12A 3811   1.687   0.008   6.292  0.4607  0.9218  1.2940
   29SAPC  H12B 3812   1.779   0.083   6.145 -0.7220  1.1612 -0.9306
   29SAPC   C13 3813   1.927   0.233   6.271  0.5129 -0.1444 -0.7545
   29SAPC  H13A 3814   1.911   0.241   6.165 -1.0114  1.5534 -0.4243
   29SAPC  H13B 3815   1.888   0.323   6.317 -0.7100  0.2660 -2.5411
   29SAPC  H13C 3816   2.035   0.237   6.273  0.6185  0.1738 -4.1434
   29SAPC   C14 3817   1.823   0.149   6.472  1.0421  0.9446  0.1771
   29SAPC  H14A 3818   1.915   0.165   6.527  0.7799  0.2784  0.8099
   29SAPC  H14B 3819   1.756   0.233   6.470 -1.3117 -0.9021 -0.0206
   29SAPC  H14C 3820   1.775   0.067   6.524  1.2712  1.1124  0.6516
   29SAPC   C15 3821   1.953   0.007   6.323  0.8489 -0.4124 -0.1002
   29SAPC  H15A 3822   1.983   0.004   6.219  0.1148  2.3828 -0.4397
   29SAPC  H15B 3823   2.037   0.028   6.387  0.6993  1.2042 -0.4014
   29SAPC  H15C 3824   1.912  -0.088   6.355  2.1694 -1.1799 -0.6596
   29SAPC   C11 3825   1.633   0.208   6.247 -0.6813 -0.0039  0.0860
   29SAPC  H11A 3826   1.571   0.176   6.160  2.2907 -1.0186 -1.7567
   29SAPC  H11B 3827   1.678   0.309   6.236 -1.7743  0.7857  2.6941
   29SAPC     P 3828   1.446   0.095   6.393  0.8773  0.0450  0.0348
   29SAPC   O13 3829   1.333   0.136   6.306 -0.6555  0.4372  0.0922
   29SAPC   O14 3830   1.494  -0.043   6.397 -0.8000  0.9512  0.0461
   29SAPC   O12 3831   1.563   0.207   6.371 -0.4408  0.0692  0.0154
   29SAPC   O11 3832   1.413   0.132   6.541  0.0745  0.3322 -0.0539
   29SAPC    C1 3833   1.347   0.255   6.580 -0.4842  0.0316 -0.0038
   29SAPC    HA 3834   1.413   0.336   6.542 -0.0278 -0.9576 -1.3406
   29SAPC    HB 3835   1.249   0.259   6.528 -1.6165  1.5752  2.1692
   29SAPC    C2 3836   1.327   0.269   6.741  0.2377  0.2307  0.6998
   29SAPC    HS 3837   1.380   0.361   6.772  2.3322 -0.4783 -0.6599
   29SAPC   O21 3838   1.378   0.160   6.809 -0.6075  0.7267  0.2575
   29SAPC   C21 3839   1.518   0.159   6.817  0.3687  0.0776  0.0138
   29SAPC   O22 3840   1.588   0.251   6.781 -0.4223  0.2026  0.0960
   29SAPC   C22 3841   1.560   0.018   6.872 -0.7968 -0.4994 -0.2008
   29SAPC   H2R 3842   1.506  -0.015   6.963 -1.3096  1.3032  0.1592
   29SAPC   H2S 3843   1.524  -0.053   6.794 -3.2899 -2.1492  2.3898
   29SAPC    C3 3844   1.179   0.298   6.791  0.4983  0.2642 -0.2499
   29SAPC    HX 3845   1.116   0.211   6.762  1.9129 -0.5167 -1.0472
   29SAPC    HY 3846   1.158   0.386   6.727 -0.7136 -0.8977 -1.4833
   29SAPC   O31 3847   1.181   0.340   6.924  0.0916  0.7391  0.5849
   29SAPC   C31 3848   1.146   0.257   7.015  0.6716 -0.5161  0.2360
   29SAPC   O32 3849   1.120   0.137   6.997  0.3956  0.1349  0.3717
   29SAPC   C32 3850   1.173   0.319   7.147  0.0495 -0.2653 -0.7572
   29SAPC   H2X 3851   1.132   0.422   7.147  0.5831 -0.0450  0.8801
   29SAPC   H2Y 3852   1.282   0.339   7.155  0.4037 -1.2880 -2.6061
   29SAPC   C23 3853   1.709  -0.002   6.895 -0.0117  0.1100  0.3498
   29SAPC   H3R 3854   1.763   0.032   6.805  0.0526  1.5054  0.9106
   29SAPC   H3S 3855   1.724  -0.112   6.898 -0.8527  0.0011  0.6469
   29SAPC   C24 3856   1.777   0.055   7.030 -0.0597 -0.8181 -0.2201
   29SAPC   H4R 3857   1.888   0.053   7.021  0.1289 -0.7596  1.8574
   29SAPC   H4S 3858   1.737  -0.016   7.105  0.1918  0.1063  0.7973
   29SAPC   C25 3859   1.744   0.194   7.070 -0.2116 -0.0907 -0.0164
   29SAPC   H5R 3860   1.759   0.264   6.987 -0.4352 -1.5293 -1.2994
   29SAPC   C26 3861   1.704   0.240   7.190  0.4253 -0.1934  0.0397
   29SAPC   H6R 3862   1.675   0.346   7.195  0.5144 -0.1241 -0.8016
   29SAPC   C27 3863   1.680   0.155   7.315 -0.7843  0.2420 -0.4616
   29SAPC   H7R 3864   1.758   0.078   7.330 -1.8432 -0.1417  3.5145
   29SAPC   H7S 3865   1.578   0.114   7.302 -0.1318 -1.1091 -1.4102
   29SAPC   C28 3866   1.684   0.234   7.449 -0.1899 -0.1880  0.3604
   29SAPC   H8R 3867   1.614   0.318   7.463 -1.6696 -1.1870 -0.8432
   29SAPC   C29 3868   1.756   0.211   7.555 -0.5491  0.3672  0.0307
   29SAPC   H9R 3869   1.746   0.287   7.633 -1.9986 -0.5813  0.7823
   29SAPC  C210 3870   1.851   0.093   7.586 -0.3017 -0.3276 -0.3742
   29SAPC  H10R 3871   1.952   0.115   7.544  0.5366 -3.8349 -0.3776
   29SAPC  H10S 3872   1.818  -0.006   7.550 -2.4594 -0.2924  1.4193
   29SAPC  C211 3873   1.875   0.073   7.733 -0.0942 -0.0338 -0.4311
   29SAPC  H11R 3874   1.928   0.153   7.786  0.2300  0.4607 -1.4764
   29SAPC  C212 3875   1.843  -0.031   7.805  0.0874  0.4064  0.3922
   29SAPC  H12R 3876   1.871  -0.025   7.911 -0.0309  2.1781  0.3480
   29SAPC  C213 3877   1.771  -0.156   7.755  0.3342  0.9040 -0.2660
   29SAPC  H13R 3878   1.725  -0.142   7.655  3.2677  0.0780 -1.8048
   29SAPC  H13S 3879   1.680  -0.156   7.818  1.2711 -1.2802  1.1497
   29SAPC  C214 3880   1.853  -0.284   7.767 -0.3424 -1.1198  0.3318
   29SAPC  H14R 3881   1.834  -0.341   7.860 -0.3281  1.0688  1.7136
   29SAPC  C215 3882   1.918  -0.347   7.666  0.2583  0.4079  0.4315
   29SAPC  H15R 3883   1.969  -0.444   7.674 -0.2424  0.0380 -0.7435
   29SAPC  C216 3884   1.928  -0.301   7.521 -0.2843 -0.0756  0.0329
   29SAPC  H16R 3885   2.033  -0.300   7.485 -0.2511  2.7422  0.0772
   29SAPC  H16S 3886   1.885  -0.199   7.512 -0.4692 -0.1585 -0.0247
   29SAPC  C217 3887   1.858  -0.398   7.433  0.1902  0.1030  0.3472
   29SAPC  H17R 3888   1.759  -0.415   7.479  0.2687 -0.0217  0.4686
   29SAPC  H17S 3889   1.916  -0.494   7.431  0.8794  0.5101  0.4579
   29SAPC  C218 3890   1.832  -0.350   7.288 -0.0615  0.1222 -0.1902
   29SAPC  H18R 3891   1.760  -0.266   7.299  1.4210  1.5239 -0.9774
   29SAPC  H18S 3892   1.787  -0.425   7.220  3.5969 -1.5904 -0.8133
   29SAPC  C219 3893   1.955  -0.310   7.203 -0.0147  0.1726 -0.8844
   29SAPC  H19R 3894   2.029  -0.392   7.210  0.9220  1.1532  1.4366
   29SAPC  H19S 3895   2.001  -0.216   7.240  1.3021 -0.9129  0.2696
   29SAPC  C220 3896   1.924  -0.285   7.046 -0.2289 -0.3226 -0.5378
   29SAPC  H20R 3897   1.845  -0.352   7.007 -1.4392 -0.0704  1.3811
   29SAPC  H20S 3898   2.009  -0.299   6.976 -1.0285 -0.9438 -1.4017
   29SAPC  H20T 3899   1.893  -0.180   7.030  1.9417  0.1893 -1.6079
   29SAPC   C33 3900   1.114   0.224   7.255 -0.5230  0.5315 -0.4923
   29SAPC   H3X 3901   1.152   0.120   7.241  0.9118  0.3934  3.8797
   29SAPC   H3Y 3902   1.004   0.220   7.239 -0.3033 -2.8883 -1.5568
   29SAPC   C34 3903   1.162   0.262   7.396  0.0508 -0.2570  0.1056
   29SAPC   H4X 3904   1.104   0.345   7.442 -0.3821 -1.1386  1.1834
   29SAPC   H4Y 3905   1.272   0.279   7.402  0.1786 -1.0055 -0.0435
   29SAPC   C35 3906   1.134   0.153   7.503  0.8156  0.2729  0.5995
   29SAPC   H5X 3907   1.202   0.067   7.486 -1.1737 -0.5678 -3.7561
   29SAPC   H5Y 3908   1.032   0.111   7.491  0.9130  0.6947 -2.0506
   29SAPC   C36 3909   1.152   0.190   7.645  0.1590  0.0450 -0.0344
   29SAPC   H6X 3910   1.138   0.099   7.707 -0.5880 -1.5485 -2.4757
   29SAPC   H6Y 3911   1.094   0.276   7.683  0.1107  0.6086 -1.3637
   29SAPC   C37 3912   1.305   0.216   7.677  0.0524  0.0665  0.0291
   29SAPC   H7X 3913   1.337   0.301   7.611 -1.3171  1.6085  1.3092
   29SAPC   H7Y 3914   1.366   0.130   7.643 -0.9731 -0.2547 -1.0294
   29SAPC   C38 3915   1.348   0.247   7.821 -0.0810 -0.0095 -0.4758
   29SAPC   H8X 3916   1.338   0.155   7.883 -0.0703  1.0954  1.1878
   29SAPC   H8Y 3917   1.283   0.328   7.859 -1.6111 -0.5953 -1.8042
   29SAPC   C39 3918   1.494   0.293   7.827  0.0273 -0.1997  0.1467
   29SAPC   H9X 3919   1.513   0.386   7.769  2.1300 -1.3591 -1.1226
   29SAPC   H9Y 3920   1.555   0.212   7.781 -1.5949 -1.0016 -0.6126
   29SAPC  C310 3921   1.542   0.318   7.969  0.3009 -0.9272 -0.1333
   29SAPC  H10X 3922   1.651   0.338   7.972  0.6655 -2.5216 -2.0877
   29SAPC  H10Y 3923   1.515   0.225   8.024 -2.3817  0.4513  0.9860
   29SAPC  C311 3924   1.469   0.435   8.035  0.6291  0.0395  0.8544
   29SAPC  H11X 3925   1.364   0.404   8.055  1.2726 -2.6759  0.1459
   29SAPC  H11Y 3926   1.470   0.527   7.973 -0.2087 -1.2566 -1.1362
   29SAPC  C312 3927   1.532   0.471   8.166  0.0479  0.3847  0.1507
   29SAPC  H12X 3928   1.642   0.456   8.155 -0.1573 -2.1320  1.2195
   29SAPC  H12Y 3929   1.503   0.387   8.232 -2.0756 -0.1998 -1.4814
   29SAPC  C313 3930   1.476   0.605   8.220 -0.1903 -0.1554 -0.1752
   29SAPC  H13X 3931   1.369   0.620   8.194 -0.3995 -0.5058  0.4893
   29SAPC  H13Y 3932   1.532   0.691   8.177 -2.5938  1.5756  0.0601
   29SAPC  C314 3933   1.494   0.613   8.375  0.0226 -0.5532 -0.3048
   29SAPC  H14X 3934   1.599   0.585   8.395 -0.2894 -1.7043 -0.2483
   29SAPC  H14Y 3935   1.429   0.539   8.428  0.0620  1.5989  2.8997
   29SAPC  C315 3936   1.456   0.759   8.422  0.1828  0.2841  0.0129
   29SAPC  H15X 3937   1.450   0.753   8.533 -0.5645 -1.3600 -0.0968
   29SAPC  H15Y 3938   1.356   0.792   8.386  0.2390  2.0340  1.3996
   29SAPC  C316 3939   1.561   0.867   8.403  0.3455 -0.4869  0.0194
   29SAPC  H16X 3940   1.522   0.965   8.438  0.5810  0.2517 -1.7598
   29SAPC  H16Y 3941   1.588   0.884   8.297 -1.0725  0.8136 -0.1472
   29SAPC  C317 3942   1.686   0.836   8.491 -0.9632 -0.2042 -0.1952
   29SAPC  H17X 3943   1.751   0.760   8.442 -1.5650 -1.4422  0.8997
   29SAPC  H17Y 3944   1.663   0.801   8.594 -0.8515 -1.4260 -0.5759
   29SAPC  C318 3945   1.765   0.962   8.500 -0.2897  0.7507  0.1087
   29SAPC  H18X 3946   1.857   0.956   8.562 -0.0097 -0.0897 -0.3777
   29SAPC  H18Y 3947   1.706   1.044   8.546 -1.6232 -0.6584  0.9089
   29SAPC  H18Z 3948   1.798   1.001   8.401  0.6945 -0.2765  0.0275
   30SAPC     N 3949   2.906   0.219   6.139  0.5558  0.0194  0.7329
   30SAPC   C12 3950   2.767   0.172   6.182  0.7229  0.0670 -0.2423
   30SAPC  H12A 3951   2.781   0.069   6.212 -1.0660 -0.9801 -2.8357
   30SAPC  H12B 3952   2.704   0.175   6.094  0.7428  0.6000 -0.2404
   30SAPC   C13 3953   2.908   0.354   6.073 -0.0800  0.0958 -0.6958
   30SAPC  H13A 3954   3.009   0.385   6.053 -0.5620  1.6156 -0.8603
   30SAPC  H13B 3955   2.868   0.352   5.972 -0.5068  0.3754 -0.5334
   30SAPC  H13C 3956   2.857   0.432   6.127 -1.3371 -0.8957 -0.4362
   30SAPC   C14 3957   2.994   0.209   6.253 -0.4649 -0.5818 -0.2426
   30SAPC  H14A 3958   2.999   0.107   6.289 -2.0704  0.1157  2.1025
   30SAPC  H14B 3959   3.094   0.233   6.222 -0.0654 -1.8174  0.0598
   30SAPC  H14C 3960   2.970   0.270   6.338  1.3403 -1.6940  1.0925
   30SAPC   C15 3961   2.960   0.128   6.035 -0.3892  0.2482 -0.4908
   30SAPC  H15A 3962   2.890   0.128   5.953 -2.5467  1.7031  1.2703
   30SAPC  H15B 3963   3.044   0.177   5.988  1.5074 -0.2313  2.2303
   30SAPC  H15C 3964   2.982   0.029   6.072  1.2531  1.0379  0.7464
   30SAPC   C11 3965   2.692   0.245   6.295 -0.4769  0.2394  0.9894
   30SAPC  H11A 3966   2.759   0.236   6.383  4.0936  1.0017 -2.2496
   30SAPC  H11B 3967   2.601   0.188   6.325 -1.5396 -0.0200 -2.5559
   30SAPC     P 3968   2.539   0.409   6.181 -0.3566  0.1884  0.1083
   30SAPC   O13 3969   2.533   0.554   6.144 -0.1884  0.1799 -0.2390
   30SAPC   O14 3970   2.527   0.308   6.071 -0.4014 -0.9773  0.1523
   30SAPC   O12 3971   2.674   0.379   6.259  0.2684 -0.0013  0.1783
   30SAPC   O11 3972   2.427   0.381   6.286  0.5434  0.1222 -0.1065
   30SAPC    C1 3973   2.402   0.478   6.394 -0.8487 -0.6471  0.2522
   30SAPC    HA 3974   2.404   0.588   6.374  2.7509 -0.4406  1.3946
   30SAPC    HB 3975   2.299   0.461   6.433 -0.4560 -1.9421  0.7404
   30SAPC    C2 3976   2.495   0.442   6.516 -0.4513  0.4430 -0.7988
   30SAPC    HS 3977   2.597   0.465   6.477 -0.8753  3.0566 -0.4672
   30SAPC   O21 3978   2.489   0.300   6.552 -0.2027  0.1097  0.3503
   30SAPC   C21 3979   2.607   0.252   6.602  0.2271  0.1208  0.1376
   30SAPC   O22 3980   2.704   0.322   6.628 -0.3050  0.2669 -0.4596
   30SAPC   C22 3981   2.578   0.106   6.644 -0.6674 -0.0186  0.7412
   30SAPC   H2R 3982   2.472   0.110   6.677 -0.4318  0.2263  1.5018
   30SAPC   H2S 3983   2.582   0.037   6.558 -2.3458  0.5932  0.1570
   30SAPC    C3 3984   2.465   0.536   6.635  0.6179  0.9779  0.8396
   30SAPC    HX 3985   2.357   0.529   6.662  0.6875  2.0232  1.4168
   30SAPC    HY 3986   2.480   0.640   6.599  2.3584  0.1927 -0.7593
   30SAPC   O31 3987   2.536   0.504   6.755  0.6180 -0.0117 -0.2296
   30SAPC   C31 3988   2.635   0.585   6.784 -0.2834  0.1670  0.3987
   30SAPC   O32 3989   2.684   0.672   6.712  0.0619  0.5892 -0.1815
   30SAPC   C32 3990   2.683   0.561   6.927 -0.1587  0.1770  0.0307
   30SAPC   H2X 3991   2.744   0.468   6.922  0.8276  0.8678 -0.8887
   30SAPC   H2Y 3992   2.595   0.548   6.995 -1.5100 -0.2490 -1.7653
   30SAPC   C23 3993   2.666   0.055   6.760 -0.7584 -0.7957 -0.0185
   30SAPC   H3R 3994   2.773   0.063   6.730 -0.8493 -0.4677 -0.2573
   30SAPC   H3S 3995   2.644  -0.054   6.750  0.4725 -1.0202 -0.5060
   30SAPC   C24 3996   2.642   0.108   6.901 -0.0995 -0.5119  0.2635
   30SAPC   H4R 3997   2.545   0.061   6.926 -1.5903  1.3593 -1.7954
   30SAPC   H4S 3998   2.628   0.218   6.893 -0.7937 -0.5814  0.4696
   30SAPC   C25 3999   2.741   0.060   7.002 -0.3787  0.6324  0.0178
   30SAPC   H5R 4000   2.797  -0.032   6.976 -0.6458  1.5060 -4.0367
   30SAPC   C26 4001   2.771   0.121   7.117 -0.1798 -0.5535 -0.9357
   30SAPC   H6R 4002   2.845   0.070   7.180  0.9097  0.1237 -1.6297
   30SAPC   C27 4003   2.713   0.253   7.163 -0.0556  0.3429 -0.0875
   30SAPC   H7R 4004   2.690   0.313   7.071  0.7475  2.3146  0.9712
   30SAPC   H7S 4005   2.787   0.316   7.217 -0.2118 -1.1076  1.8464
   30SAPC   C28 4006   2.590   0.233   7.252 -0.7559 -0.0559 -0.3081
   30SAPC   H8R 4007   2.496   0.243   7.196 -1.9053 -0.6489  1.4631
   30SAPC   C29 4008   2.589   0.194   7.384  0.2101 -1.1805  0.0018
   30SAPC   H9R 4009   2.489   0.173   7.424 -0.2131 -0.4191 -0.6430
   30SAPC  C210 4010   2.707   0.159   7.469 -0.5692  0.1019 -0.2109
   30SAPC  H10R 4011   2.718   0.247   7.536 -0.3716 -0.0357 -0.0599
   30SAPC  H10S 4012   2.806   0.163   7.419  0.3675 -1.8540  1.4350
   30SAPC  C211 4013   2.693   0.040   7.565 -0.2746 -0.5806  0.3567
   30SAPC  H11R 4014   2.696  -0.060   7.521  0.3078 -0.1939 -0.4842
   30SAPC  C212 4015   2.665   0.042   7.697 -0.5123  0.0941  0.1347
   30SAPC  H12R 4016   2.654  -0.054   7.751  1.3060 -0.3760 -0.3097
   30SAPC  C213 4017   2.656   0.174   7.776  0.2599 -0.1140  0.2690
   30SAPC  H13R 4018   2.570   0.169   7.846 -0.0685 -0.7914 -0.1756
   30SAPC  H13S 4019   2.628   0.265   7.719  0.3468  0.8262  1.7096
   30SAPC  C214 4020   2.778   0.201   7.853  0.6857 -0.5913  0.1427
   30SAPC  H14R 4021   2.870   0.178   7.797 -0.1999  0.1425 -1.6641
   30SAPC  C215 4022   2.786   0.250   7.977  1.0645 -0.3239  0.0783
   30SAPC  H15R 4023   2.889   0.267   8.013  1.0624 -0.9543  0.3801
   30SAPC  C216 4024   2.683   0.300   8.073  0.5044 -0.9402 -0.1449
   30SAPC  H16R 4025   2.584   0.284   8.026  1.2692  0.9658 -2.4939
   30SAPC  H16S 4026   2.697   0.410   8.082 -1.1070 -0.7017 -0.4080
   30SAPC  C217 4027   2.694   0.239   8.216 -0.3917 -0.1841 -0.3859
   30SAPC  H17R 4028   2.803   0.242   8.239 -0.9416  2.7093  2.0603
   30SAPC  H17S 4029   2.659   0.134   8.223  2.0888 -0.9858  0.6299
   30SAPC  C218 4030   2.625   0.317   8.327  0.4380 -0.4327  0.4288
   30SAPC  H18R 4031   2.627   0.255   8.420 -2.6478 -1.3705 -0.1042
   30SAPC  H18S 4032   2.521   0.339   8.296 -0.1660 -1.0991  1.9029
   30SAPC  C219 4033   2.695   0.451   8.348 -0.6561  0.4227  0.2208
   30SAPC  H19R 4034   2.710   0.511   8.256  2.9446 -0.1873  0.3366
   30SAPC  H19S 4035   2.798   0.424   8.381 -0.5027 -0.0943 -0.6777
   30SAPC  C220 4036   2.637   0.538   8.457 -0.2765  0.2280 -0.7765
   30SAPC  H20R 4037   2.638   0.478   8.551  0.0104  0.4445 -0.6399
   30SAPC  H20S 4038   2.535   0.564   8.421 -0.1646  1.2346 -0.3731
   30SAPC  H20T 4039   2.688   0.633   8.482 -0.5317  0.4863 -1.2333
   30SAPC   C33 4040   2.779   0.664   6.975  0.6959 -0.6060  0.0774
   30SAPC   H3X 4041   2.728   0.762   6.966  0.0210 -1.1231 -2.0380
   30SAPC   H3Y 4042   2.868   0.679   6.910  1.6034  2.7900  1.9997
   30SAPC   C34 4043   2.822   0.649   7.123 -0.3290 -0.3384 -0.3613
   30SAPC   H4X 4044   2.900   0.726   7.135 -1.9511  0.7866  3.5249
   30SAPC   H4Y 4045   2.873   0.550   7.124 -0.5959 -0.5053 -2.0128
   30SAPC   C35 4046   2.716   0.667   7.232 -0.1393  0.6326 -0.0230
   30SAPC   H5X 4047   2.631   0.598   7.215  0.2245 -0.0346  0.8523
   30SAPC   H5Y 4048   2.681   0.772   7.222  2.1051  1.7296  2.8585
   30SAPC   C36 4049   2.753   0.612   7.367 -0.3696 -0.2995 -0.5061
   30SAPC   H6X 4050   2.852   0.654   7.395 -0.8585  0.1439  0.6408
   30SAPC   H6Y 4051   2.766   0.502   7.368 -1.8351 -0.4879  1.1503
   30SAPC   C37 4052   2.653   0.656   7.477 -0.0477 -0.0375  0.2697
   30SAPC   H7X 4053   2.555   0.607   7.458  1.5023 -2.5326 -1.5596
   30SAPC   H7Y 4054   2.634   0.765   7.469 -1.1856 -0.3546 -1.7040
   30SAPC   C38 4055   2.689   0.619   7.615 -0.1267  0.2297  0.2611
   30SAPC   H8X 4056   2.785   0.663   7.650  0.3280 -0.6808  0.1640
   30SAPC   H8Y 4057   2.703   0.510   7.629  0.7105  0.2040 -0.7610
   30SAPC   C39 4058   2.568   0.653   7.707  0.0082  0.0181 -0.1747
   30SAPC   H9X 4059   2.483   0.586   7.686  2.0140 -2.6231 -0.1673
   30SAPC   H9Y 4060   2.544   0.756   7.673  1.9216  0.7009  0.4400
   30SAPC  C310 4061   2.610   0.666   7.850  0.2807  0.4446  0.3290
   30SAPC  H10X 4062   2.706   0.722   7.861 -1.4325  3.1380  2.1478
   30SAPC  H10Y 4063   2.626   0.566   7.894  0.3851 -1.3221 -3.4675
   30SAPC  C311 4064   2.502   0.723   7.940  0.3400 -0.4081 -0.5107
   30SAPC  H11X 4065   2.408   0.665   7.929  0.3397 -0.4217 -0.4361
   30SAPC  H11Y 4066   2.486   0.827   7.904 -1.1134 -0.3231  0.3106
   30SAPC  C312 4067   2.551   0.736   8.081  0.4571  0.4728  1.0657
   30SAPC  H12X 4068   2.645   0.792   8.066  1.2993 -2.1743 -4.7516
   30SAPC  H12Y 4069   2.565   0.631   8.114 -0.4843 -0.7358 -2.2509
   30SAPC  C313 4070   2.450   0.819   8.164 -0.1314  0.6689  0.4944
   30SAPC  H13X 4071   2.360   0.760   8.191  0.3443  0.1441  0.9594
   30SAPC  H13Y 4072   2.429   0.910   8.103 -0.5901 -1.0050 -1.9450
   30SAPC  C314 4073   2.518   0.869   8.295  0.2783 -0.0673  0.1001
   30SAPC  H14X 4074   2.529   0.789   8.372  0.2796 -2.4269 -2.2833
   30SAPC  H14Y 4075   2.448   0.946   8.331 -0.1495  0.0423 -0.9651
   30SAPC  C315 4076   2.649   0.940   8.269 -0.0288 -0.4765  0.1708
   30SAPC  H15X 4077   2.624   1.012   8.188 -0.7915  0.2619  1.0503
   30SAPC  H15Y 4078   2.729   0.868   8.243  1.7560  0.7018  2.2453
   30SAPC  C316 4079   2.687   1.037   8.387 -0.1708 -1.0494  0.2894
   30SAPC  H16X 4080   2.609   1.117   8.390 -1.0177 -1.7462 -1.9503
   30SAPC  H16Y 4081   2.781   1.088   8.356 -1.1833 -0.2458 -1.5118
   30SAPC  C317 4082   2.712   0.973   8.527  0.5975  0.0194 -0.6663
   30SAPC  H17X 4083   2.802   0.909   8.513 -0.7463 -2.3653  1.1292
   30SAPC  H17Y 4084   2.629   0.906   8.560  0.2847  0.5951 -0.2937
   30SAPC  C318 4085   2.737   1.082   8.633  0.7061  0.1446 -0.1447
   30SAPC  H18X 4086   2.819   1.152   8.609  1.4438 -1.2536 -1.7598
   30SAPC  H18Y 4087   2.750   1.026   8.728  3.5571 -0.1135 -0.6372
   30SAPC  H18Z 4088   2.649   1.149   8.643  0.6303  0.2052 -1.2145
   31SAPC     N 4089   4.011   0.374   6.075  0.7926 -0.5756 -0.3550
   31SAPC   C12 4090   3.951   0.384   6.219  0.0439  0.0325  0.9574
   31SAPC  H12A 4091   4.019   0.338   6.289 -2.0576 -1.2116  2.2382
   31SAPC  H12B 4092   3.866   0.317   6.220 -0.8086  1.1014  0.9886
   31SAPC   C13 4093   4.043   0.237   6.028 -0.1165  0.1055  0.2952
   31SAPC  H13A 4094   3.965   0.170   6.057  0.2806  0.0325  1.1907
   31SAPC  H13B 4095   4.059   0.241   5.921 -0.3816 -1.0420  0.2104
   31SAPC  H13C 4096   4.129   0.189   6.073 -0.3700 -0.5167  0.1213
   31SAPC   C14 4097   3.910   0.428   5.974  0.2049  1.1264 -0.4454
   31SAPC  H14A 4098   3.948   0.440   5.873 -2.0610 -0.4395 -1.5317
   31SAPC  H14B 4099   3.817   0.373   5.984  0.9508 -0.0226  0.2494
   31SAPC  H14C 4100   3.889   0.530   6.003  1.1873  1.2561 -0.1735
   31SAPC   C15 4101   4.136   0.462   6.067  0.0686  0.0758  0.8246
   31SAPC  H15A 4102   4.169   0.477   5.965 -1.3945  0.0274  0.3258
   31SAPC  H15B 4103   4.113   0.557   6.113  0.1507  0.6868 -0.3767
   31SAPC  H15C 4104   4.216   0.415   6.122  1.0871 -1.0003 -1.4982
   31SAPC   C11 4105   3.910   0.529   6.273 -0.6088  0.3220 -0.1394
   31SAPC  H11A 4106   3.867   0.500   6.371 -0.7994 -0.0002 -0.3174
   31SAPC  H11B 4107   3.839   0.586   6.209 -1.6495 -1.1394 -0.3225
   31SAPC     P 4108   4.017   0.769   6.264  0.1918  0.1908  0.0200
   31SAPC   O13 4109   4.154   0.822   6.279 -0.5753 -0.2238 -0.1673
   31SAPC   O14 4110   3.952   0.789   6.136  0.4953 -0.1387 -0.0836
   31SAPC   O12 4111   4.020   0.613   6.305 -0.0553 -0.5190  0.1150
   31SAPC   O11 4112   3.920   0.837   6.365 -0.3854 -0.4898 -0.2387
   31SAPC    C1 4113   3.967   0.877   6.492 -0.1269 -0.3639  0.2143
   31SAPC    HA 4114   4.035   0.800   6.533 -0.9571 -0.5077  1.3411
   31SAPC    HB 4115   4.029   0.968   6.475 -0.6204  0.2569  1.7302
   31SAPC    C2 4116   3.863   0.918   6.588  0.6797 -0.2611  1.0016
   31SAPC    HS 4117   3.901   0.999   6.654 -1.1899  0.5184  1.1556
   31SAPC   O21 4118   3.826   0.813   6.678 -0.3608 -0.1494  0.4055
   31SAPC   C21 4119   3.921   0.787   6.767 -0.2560 -0.3343 -0.0322
   31SAPC   O22 4120   4.025   0.846   6.787  0.2793  0.4425 -0.4121
   31SAPC   C22 4121   3.882   0.664   6.849  0.3538 -0.4485  0.0794
   31SAPC   H2R 4122   3.772   0.652   6.854  0.3222 -0.7908 -1.4099
   31SAPC   H2S 4123   3.926   0.578   6.794 -0.7882 -1.8816  1.3446
   31SAPC    C3 4124   3.739   0.972   6.522 -0.1196 -0.3438  0.3519
   31SAPC    HX 4125   3.695   0.890   6.462 -0.0486  1.0524 -1.6717
   31SAPC    HY 4126   3.774   1.043   6.444 -1.2247 -2.6080 -2.2891
   31SAPC   O31 4127   3.647   1.033   6.621  0.5830 -0.2463  0.4761
   31SAPC   C31 4128   3.531   0.969   6.644 -0.4173  0.2813  0.3597
   31SAPC   O32 4129   3.492   0.879   6.580  0.5702 -0.2146  0.0033
   31SAPC   C32 4130   3.485   1.025   6.776 -0.3937  0.1042 -0.7158
   31SAPC   H2X 4131   3.488   1.136   6.777  0.6263  0.0742 -0.8177
   31SAPC   H2Y 4132   3.555   1.003   6.859 -1.1779 -1.3596 -0.4143
   31SAPC   C23 4133   3.930   0.654   6.993  0.4283  0.2607 -0.4844
   31SAPC   H3R 4134   4.041   0.650   6.993  0.4399  0.5950 -0.1596
   31SAPC   H3S 4135   3.896   0.562   7.045  0.1020 -0.2378 -1.5522
   31SAPC   C24 4136   3.882   0.777   7.077  0.0308  0.3022  0.1723
   31SAPC   H4R 4137   3.933   0.870   7.042 -0.5698  0.4207 -0.3979
   31SAPC   H4S 4138   3.912   0.766   7.183 -1.0907  0.0233  0.4617
   31SAPC   C25 4139   3.734   0.801   7.061  0.0401 -0.5732  0.2592
   31SAPC   H5R 4140   3.706   0.854   6.968  0.2213 -0.5307  0.2279
   31SAPC   C26 4141   3.631   0.763   7.145  0.1965  0.1468  1.7178
   31SAPC   H6R 4142   3.524   0.771   7.117  0.5251 -1.6372 -0.2584
   31SAPC   C27 4143   3.649   0.695   7.280  0.2859 -0.3213 -0.0078
   31SAPC   H7R 4144   3.752   0.713   7.317  0.2145  0.4684 -0.1885
   31SAPC   H7S 4145   3.640   0.587   7.256 -2.8013 -0.7477  2.5805
   31SAPC   C28 4146   3.537   0.726   7.388 -0.0874  0.6127 -0.0684
   31SAPC   H8R 4147   3.440   0.764   7.354 -0.4406 -0.3286 -0.1252
   31SAPC   C29 4148   3.548   0.676   7.509 -0.3175  0.2522 -0.3017
   31SAPC   H9R 4149   3.466   0.686   7.581  0.3202 -1.6980  0.7420
   31SAPC  C210 4150   3.664   0.589   7.557 -0.4438  0.6098 -0.3260
   31SAPC  H10R 4151   3.710   0.545   7.467 -0.6912 -1.6199  0.5871
   31SAPC  H10S 4152   3.628   0.498   7.610 -1.5362  1.0494 -0.2824
   31SAPC  C211 4153   3.764   0.670   7.637 -0.3254  0.2085  1.1055
   31SAPC  H11R 4154   3.803   0.757   7.583 -0.3620 -0.5598 -0.1855
   31SAPC  C212 4155   3.809   0.651   7.762 -0.0967  1.2338  0.0262
   31SAPC  H12R 4156   3.880   0.716   7.815  0.6014  0.0469  0.5614
   31SAPC  C213 4157   3.781   0.533   7.850 -0.4575 -0.1576 -0.5534
   31SAPC  H13R 4158   3.873   0.478   7.877 -2.4993 -2.7099  1.4181
   31SAPC  H13S 4159   3.707   0.464   7.803  0.9695 -0.5701 -2.2756
   31SAPC  C214 4160   3.728   0.584   7.981  0.2429 -0.0123  0.7289
   31SAPC  H14R 4161   3.722   0.693   7.992  0.4393  0.1527 -0.7056
   31SAPC  C215 4162   3.705   0.517   8.099  0.1059 -0.0645  0.1821
   31SAPC  H15R 4163   3.670   0.570   8.189  0.9642 -2.3610  1.9345
   31SAPC  C216 4164   3.737   0.363   8.113  1.1896  1.0941 -0.2937
   31SAPC  H16R 4165   3.834   0.360   8.167  0.1992 -0.2665  1.4770
   31SAPC  H16S 4166   3.745   0.321   8.010  1.0751  2.1044 -0.7180
   31SAPC  C217 4167   3.620   0.287   8.178 -0.3910 -0.6090  0.7378
   31SAPC  H17R 4168   3.627   0.178   8.159 -1.3781 -0.3634 -1.1811
   31SAPC  H17S 4169   3.522   0.309   8.130  0.2268  1.1308  0.2131
   31SAPC  C218 4170   3.607   0.319   8.329 -0.8326 -0.2920 -0.5879
   31SAPC  H18R 4171   3.509   0.367   8.351 -1.6292 -1.6919 -1.0450
   31SAPC  H18S 4172   3.677   0.401   8.355 -1.8527  0.3435  0.1799
   31SAPC  C219 4173   3.629   0.188   8.414  0.4944 -0.3617 -0.6265
   31SAPC  H19R 4174   3.661   0.220   8.515 -0.2065  0.4374 -0.6482
   31SAPC  H19S 4175   3.709   0.129   8.364  1.1577 -0.3728  0.4360
   31SAPC  C220 4176   3.502   0.110   8.431  0.0904 -0.5082  0.0919
   31SAPC  H20R 4177   3.522   0.005   8.463 -3.0658 -1.2635 -0.1720
   31SAPC  H20S 4178   3.447   0.105   8.335  2.3078 -2.0615 -1.1377
   31SAPC  H20T 4179   3.431   0.157   8.503  0.2162  3.0929 -2.0496
   31SAPC   C33 4180   3.351   0.968   6.829  1.3051  0.0225 -0.1197
   31SAPC   H3X 4181   3.371   0.859   6.816 -2.6721 -0.8736  0.7895
   31SAPC   H3Y 4182   3.270   0.991   6.757  1.3997 -0.1159 -0.2715
   31SAPC   C34 4183   3.324   1.014   6.978 -0.3155 -0.0728  0.8515
   31SAPC   H4X 4184   3.332   1.124   6.971  0.3304 -0.0469  1.7681
   31SAPC   H4Y 4185   3.411   0.980   7.040 -0.3912 -1.7068  0.0929
   31SAPC   C35 4186   3.183   0.983   7.023  0.8050 -0.0842  0.2092
   31SAPC   H5X 4187   3.156   0.880   6.992 -1.3082  0.4344  0.2194
   31SAPC   H5Y 4188   3.112   1.052   6.973  0.6136 -0.1386  0.4020
   31SAPC   C36 4189   3.149   1.020   7.170 -0.4241 -0.2029 -0.3199
   31SAPC   H6X 4190   3.046   0.986   7.195 -0.0404  0.5067  2.4458
   31SAPC   H6Y 4191   3.160   1.128   7.192  0.1860 -0.7532  2.2620
   31SAPC   C37 4192   3.233   0.948   7.278  0.2332  0.4975 -0.1427
   31SAPC   H7X 4193   3.333   0.997   7.290 -0.2299  1.0561  1.6117
   31SAPC   H7Y 4194   3.256   0.848   7.235 -0.1915 -0.0778  0.9643
   31SAPC   C38 4195   3.157   0.932   7.402 -0.6285  0.3571  0.3316
   31SAPC   H8X 4196   3.188   0.843   7.460  3.1659  2.6285  1.9693
   31SAPC   H8Y 4197   3.048   0.921   7.386 -0.4893 -1.5343  0.5807
   31SAPC   C39 4198   3.172   1.049   7.502  1.1848 -0.2063 -0.5873
   31SAPC   H9X 4199   3.110   1.128   7.454  0.2691 -0.1468  0.6725
   31SAPC   H9Y 4200   3.277   1.084   7.511  0.9173  0.7065 -0.9642
   31SAPC  C310 4201   3.116   1.021   7.642  0.6512 -0.4455 -0.3976
   31SAPC  H10X 4202   3.182   0.943   7.687 -2.0717 -0.6929  3.3441
   31SAPC  H10Y 4203   3.014   0.976   7.640  0.6441 -0.4594  0.1750
   31SAPC  C311 4204   3.116   1.140   7.738  0.0238  0.0173  0.0655
   31SAPC  H11X 4205   3.060   1.221   7.687 -0.0467  1.0885  1.8011
   31SAPC  H11Y 4206   3.217   1.186   7.745 -0.1886  0.6580 -0.9996
   31SAPC  C312 4207   3.044   1.117   7.872  0.0845  0.8540 -0.1883
   31SAPC  H12X 4208   2.946   1.069   7.850 -0.0213  1.6398 -1.4974
   31SAPC  H12Y 4209   3.020   1.214   7.920 -3.0753  0.5693 -1.0682
   31SAPC  C313 4210   3.138   1.049   7.972  0.2639  0.3774  0.6605
   31SAPC  H13X 4211   3.243   1.083   7.970 -0.1153  1.5697 -1.7368
   31SAPC  H13Y 4212   3.134   0.939   7.957 -1.6453  0.2184  2.2036
   31SAPC  C314 4213   3.069   1.059   8.110  0.1446  0.4386  0.3756
   31SAPC  H14X 4214   3.094   0.966   8.166 -0.7536  0.2014  0.4000
   31SAPC  H14Y 4215   2.959   1.041   8.106  0.5872 -2.7089  0.8957
   31SAPC  C315 4216   3.098   1.192   8.184 -0.5592  0.5381  0.5365
   31SAPC  H15X 4217   3.040   1.279   8.147 -0.2767  0.8133  0.7403
   31SAPC  H15Y 4218   3.203   1.209   8.154 -0.4855 -0.2240  0.3446
   31SAPC  C316 4219   3.073   1.176   8.330  0.2617  0.2546  0.0035
   31SAPC  H16X 4220   2.964   1.165   8.345  0.5303 -2.2696  0.3335
   31SAPC  H16Y 4221   3.108   1.271   8.375 -0.9963  0.7787 -0.1261
   31SAPC  C317 4222   3.142   1.062   8.417 -0.6158  0.0961  0.4035
   31SAPC  H17X 4223   3.092   0.967   8.388 -0.4074 -0.1270  0.7798
   31SAPC  H17Y 4224   3.114   1.090   8.521  0.0986 -0.9853  0.8872
   31SAPC  C318 4225   3.289   1.056   8.405 -0.7292  0.2614  0.1368
   31SAPC  H18X 4226   3.324   0.964   8.457 -1.7163 -0.5537 -0.6046
   31SAPC  H18Y 4227   3.339   1.146   8.445  1.2698 -1.8765  2.6729
   31SAPC  H18Z 4228   3.319   1.037   8.300 -3.7137  2.2787 -1.1530
   32SAPC     N 4229   4.749   1.780   6.181 -0.2057 -0.2544 -0.5213
   32SAPC   C12 4230   4.869   1.694   6.202 -0.0548  0.2125  0.8436
   32SAPC  H12A 4231   4.884   1.653   6.103 -0.5286  1.4244  0.2624
   32SAPC  H12B 4232   4.846   1.613   6.270 -1.9538  0.8928  1.0389
   32SAPC   C13 4233   4.627   1.703   6.148 -0.0114 -0.1617 -0.2364
   32SAPC  H13A 4234   4.628   1.614   6.209 -0.7248 -0.1697 -0.2320
   32SAPC  H13B 4235   4.535   1.754   6.173  2.3108  2.7445  3.0199
   32SAPC  H13C 4236   4.633   1.681   6.043 -1.2464  0.0319 -0.3528
   32SAPC   C14 4237   4.710   1.847   6.305 -0.3922 -0.2805  0.4143
   32SAPC  H14A 4238   4.631   1.919   6.294 -0.6405 -0.6507 -0.3139
   32SAPC  H14B 4239   4.691   1.774   6.383  0.7886 -2.8614 -1.6279
   32SAPC  H14C 4240   4.797   1.893   6.349 -1.0922  0.9293  0.5458
   32SAPC   C15 4241   4.787   1.886   6.081 -0.4181  0.1375  0.0551
   32SAPC  H15A 4242   4.779   1.846   5.981  0.5824 -0.3103  0.1476
   32SAPC  H15B 4243   4.713   1.963   6.091  1.6129  2.4402 -1.9049
   32SAPC  H15C 4244   4.887   1.921   6.102  0.2902  0.5787 -3.5949
   32SAPC   C11 4245   5.006   1.753   6.247  0.3527  0.1871 -0.6484
   32SAPC  H11A 4246   5.072   1.683   6.303 -1.7087 -1.8338 -0.7008
   32SAPC  H11B 4247   4.971   1.822   6.326  1.9216  1.6569 -1.1968
   32SAPC     P 4248   5.159   1.950   6.175 -0.3985  0.2765  0.4370
   32SAPC   O13 4249   5.284   1.908   6.240 -0.1654  0.3858 -0.3319
   32SAPC   O14 4250   5.174   2.026   6.055 -0.2904  0.4717  0.4172
   32SAPC   O12 4251   5.076   1.818   6.146 -0.1921  0.2230  0.1706
   32SAPC   O11 4252   5.067   2.027   6.280  0.2515  0.0898 -0.0885
   32SAPC    C1 4253   5.118   2.083   6.397 -0.7637 -0.3858 -0.1877
   32SAPC    HA 4254   5.229   2.089   6.401 -0.6615 -0.9984 -1.7204
   32SAPC    HB 4255   5.070   2.183   6.406 -1.4555 -0.7608  0.3151
   32SAPC    C2 4256   5.084   2.009   6.524  0.3811 -0.2684 -0.5908
   32SAPC    HS 4257   5.134   2.052   6.613 -0.0086 -0.3160 -0.3459
   32SAPC   O21 4258   5.100   1.873   6.507  0.1983 -0.1295  0.3194
   32SAPC   C21 4259   5.211   1.831   6.554 -0.0318 -0.3666 -0.0536
   32SAPC   O22 4260   5.304   1.900   6.599  0.2508 -0.1782  0.6543
   32SAPC   C22 4261   5.212   1.681   6.571  0.7010  0.0724 -0.2898
   32SAPC   H2R 4262   5.112   1.632   6.563  0.7109 -0.4199  2.3608
   32SAPC   H2S 4263   5.261   1.634   6.483 -2.5770 -0.8494 -1.7195
   32SAPC    C3 4264   4.936   2.035   6.571  0.6589 -0.1501  0.0322
   32SAPC    HX 4265   4.875   1.995   6.487 -0.7588 -3.0462  2.3551
   32SAPC    HY 4266   4.908   2.143   6.572 -2.4411 -0.8947 -0.1983
   32SAPC   O31 4267   4.896   1.963   6.694 -0.6163  0.1824 -0.2977
   32SAPC   C31 4268   4.857   1.838   6.684  0.6361 -0.8332  0.1690
   32SAPC   O32 4269   4.873   1.774   6.581 -0.0227  0.0862 -0.2502
   32SAPC   C32 4270   4.793   1.795   6.816  0.3129  0.4003 -0.2635
   32SAPC   H2X 4271   4.814   1.686   6.829  0.1155  0.2224 -1.4180
   32SAPC   H2Y 4272   4.684   1.807   6.797  0.4295  0.7675 -0.6868
   32SAPC   C23 4273   5.287   1.634   6.700  0.1977 -0.0833 -0.4428
   32SAPC   H3R 4274   5.374   1.693   6.734 -0.2594  1.2030 -1.4806
   32SAPC   H3S 4275   5.317   1.529   6.680  0.3184 -0.4597  1.6151
   32SAPC   C24 4276   5.210   1.638   6.835 -0.1917  0.7644 -0.2279
   32SAPC   H4R 4277   5.173   1.742   6.843 -2.9419  0.0441 -2.9938
   32SAPC   H4S 4278   5.290   1.628   6.912 -0.5640 -0.6674 -0.0046
   32SAPC   C25 4279   5.093   1.538   6.839 -0.4137 -0.1913 -0.1155
   32SAPC   H5R 4280   5.031   1.524   6.749 -2.2624 -3.2223  1.5606
   32SAPC   C26 4281   5.083   1.454   6.936 -0.2253 -0.1290 -0.1053
   32SAPC   H6R 4282   4.993   1.390   6.940 -0.3326  0.1293  2.1957
   32SAPC   C27 4283   5.167   1.458   7.065  0.2436  0.3434  0.2801
   32SAPC   H7R 4284   5.271   1.452   7.027  1.1593 -0.3618  2.7852
   32SAPC   H7S 4285   5.152   1.360   7.116  0.3501 -0.3688 -1.0289
   32SAPC   C28 4286   5.139   1.572   7.154 -0.2895 -0.2951 -0.4813
   32SAPC   H8R 4287   5.108   1.661   7.097 -1.3149 -2.6588 -3.7496
   32SAPC   C29 4288   5.163   1.574   7.286 -0.5803  0.4652  0.1038
   32SAPC   H9R 4289   5.126   1.660   7.343 -1.1272  0.6794 -0.5696
   32SAPC  C210 4290   5.211   1.456   7.381 -0.2521 -0.0098  0.4409
   32SAPC  H10R 4291   5.229   1.369   7.315  0.2014  2.1426 -2.4002
   32SAPC  H10S 4292   5.138   1.446   7.464  0.5313  3.9871  1.7594
   32SAPC  C211 4293   5.335   1.497   7.450 -0.4125 -0.3039 -0.2228
   32SAPC  H11R 4294   5.416   1.533   7.384  0.1938  0.2916  0.8372
   32SAPC  C212 4295   5.362   1.497   7.581  0.0771  0.0151 -0.0573
   32SAPC  H12R 4296   5.459   1.540   7.610 -1.5662  1.2351  4.0913
   32SAPC  C213 4297   5.270   1.466   7.694 -0.2452 -0.2285  0.2003
   32SAPC  H13R 4298   5.315   1.382   7.751 -1.0871  0.3517  1.7288
   32SAPC  H13S 4299   5.178   1.414   7.661  0.0255  0.8948 -2.4823
   32SAPC  C214 4300   5.266   1.591   7.785  0.0671 -0.1422  0.1421
   32SAPC  H14R 4301   5.182   1.657   7.760  1.7064  1.5846 -0.9244
   32SAPC  C215 4302   5.356   1.622   7.879 -0.0311  0.1958  0.1249
   32SAPC  H15R 4303   5.336   1.699   7.956  1.9487 -0.2987  1.1621
   32SAPC  C216 4304   5.480   1.534   7.916 -0.9359 -0.4046  0.9027
   32SAPC  H16R 4305   5.568   1.596   7.888  0.1057 -0.9584  2.8855
   32SAPC  H16S 4306   5.497   1.448   7.849 -1.6515  1.8972 -2.3443
   32SAPC  C217 4307   5.494   1.503   8.067 -0.5533  0.6139  0.1082
   32SAPC  H17R 4308   5.404   1.450   8.105  0.5208 -1.4983 -0.2225
   32SAPC  H17S 4309   5.510   1.601   8.117  0.7193 -0.1747  1.2946
   32SAPC  C218 4310   5.606   1.402   8.105  0.1284 -0.8073 -0.0657
   32SAPC  H18R 4311   5.705   1.441   8.075 -0.7822  1.7811  0.1937
   32SAPC  H18S 4312   5.564   1.319   8.043  0.4174 -0.7765 -0.3022
   32SAPC  C219 4313   5.592   1.341   8.242 -0.4021 -0.0094 -0.4139
   32SAPC  H19R 4314   5.653   1.250   8.257  0.5940  0.7710  0.2810
   32SAPC  H19S 4315   5.485   1.313   8.252 -0.2616  0.2172  2.0315
   32SAPC  C220 4316   5.624   1.449   8.351  0.6086 -0.6800  0.5579
   32SAPC  H20R 4317   5.586   1.417   8.450  1.8626 -0.2378  1.1947
   32SAPC  H20S 4318   5.573   1.541   8.317 -0.0827 -0.1826  2.8831
   32SAPC  H20T 4319   5.734   1.464   8.351  0.7684 -1.7402 -0.0444
   32SAPC   C33 4320   4.838   1.864   6.944 -0.4587 -0.1649 -0.2171
   32SAPC   H3X 4321   4.825   1.974   6.937 -2.0728 -0.4057 -1.4031
   32SAPC   H3Y 4322   4.943   1.830   6.955 -0.3156  0.9900  2.4166
   32SAPC   C34 4323   4.753   1.809   7.070 -0.0044  0.6020  0.0209
   32SAPC   H4X 4324   4.763   1.699   7.070  0.6383  0.6416 -1.8230
   32SAPC   H4Y 4325   4.648   1.835   7.044 -0.0927  1.1214  0.8934
   32SAPC   C35 4326   4.787   1.880   7.205  0.2306 -0.0632  0.3109
   32SAPC   H5X 4327   4.806   1.987   7.185  1.8378 -0.4200 -0.1585
   32SAPC   H5Y 4328   4.879   1.831   7.244 -0.3014  0.9128  2.8927
   32SAPC   C36 4329   4.668   1.868   7.309 -0.1477 -0.0010 -0.5437
   32SAPC   H6X 4330   4.645   1.760   7.320 -2.3934  0.4185 -0.7836
   32SAPC   H6Y 4331   4.578   1.925   7.277 -0.6974 -0.6607 -0.1918
   32SAPC   C37 4332   4.709   1.934   7.444 -0.0515 -0.1478  0.0497
   32SAPC   H7X 4333   4.711   2.045   7.438 -0.6876 -0.1590 -0.4786
   32SAPC   H7Y 4334   4.812   1.907   7.474  0.5421 -0.7641 -2.4650
   32SAPC   C38 4335   4.620   1.898   7.566 -0.3268 -0.0461 -0.1055
   32SAPC   H8X 4336   4.613   1.789   7.586 -1.9514  0.1132  0.2812
   32SAPC   H8Y 4337   4.522   1.949   7.564  0.1333  0.8514 -0.2732
   32SAPC   C39 4338   4.700   1.948   7.692  0.5701  0.5231 -0.4395
   32SAPC   H9X 4339   4.703   2.059   7.692 -2.4430  0.6641 -0.8432
   32SAPC   H9Y 4340   4.802   1.906   7.688  0.0565 -0.5917 -3.2232
   32SAPC  C310 4341   4.635   1.903   7.820 -0.2337  0.0186 -0.3145
   32SAPC  H10X 4342   4.610   1.795   7.823 -0.1468 -0.0187 -0.8911
   32SAPC  H10Y 4343   4.537   1.949   7.846 -0.2414 -1.4587  2.4358
   32SAPC  C311 4344   4.720   1.916   7.945 -0.2183  0.0488  0.2898
   32SAPC  H11X 4345   4.673   1.891   8.043 -1.3393  0.5858 -0.0985
   32SAPC  H11Y 4346   4.758   2.021   7.949  2.9858 -1.0523  0.0440
   32SAPC  C312 4347   4.839   1.819   7.953 -0.0277 -0.1106 -1.1924
   32SAPC  H12X 4348   4.918   1.823   7.875  0.2814  0.4769 -0.8602
   32SAPC  H12Y 4349   4.800   1.715   7.951 -0.2949 -0.0513  0.4598
   32SAPC  C313 4350   4.921   1.847   8.084 -0.2717 -0.1651 -0.5008
   32SAPC  H13X 4351   4.874   1.822   8.181  0.8049  1.0844  0.3683
   32SAPC  H13Y 4352   4.934   1.958   8.087 -0.0404 -0.2394  1.5707
   32SAPC  C314 4353   5.062   1.791   8.090 -0.4292  0.0186  0.6414
   32SAPC  H14X 4354   5.111   1.778   7.991 -0.4930 -0.8756  0.7206
   32SAPC  H14Y 4355   5.055   1.685   8.123  0.9269 -0.2908 -0.0602
   32SAPC  C315 4356   5.161   1.860   8.189 -0.0235 -0.2363 -0.3657
   32SAPC  H15X 4357   5.194   1.963   8.163  0.9085 -0.6552 -0.8339
   32SAPC  H15Y 4358   5.250   1.795   8.181 -0.0431 -0.4211  0.8132
   32SAPC  C316 4359   5.108   1.860   8.334 -0.2113  0.3713 -0.7626
   32SAPC  H16X 4360   5.086   1.753   8.355 -0.3418 -0.0862 -3.1030
   32SAPC  H16Y 4361   5.018   1.925   8.338 -1.0942 -0.6628 -3.2329
   32SAPC  C317 4362   5.226   1.909   8.423 -0.4479  0.5114 -0.9019
   32SAPC  H17X 4363   5.174   1.920   8.521 -2.4955 -1.5964 -1.7104
   32SAPC  H17Y 4364   5.273   2.007   8.397 -0.8618  0.9087 -0.1733
   32SAPC  C318 4365   5.331   1.794   8.444  0.4080  0.3836  0.1334
   32SAPC  H18X 4366   5.434   1.828   8.467  1.1447 -1.6746 -0.0279
   32SAPC  H18Y 4367   5.342   1.729   8.354 -1.0675  2.3145 -1.5013
   32SAPC  H18Z 4368   5.300   1.729   8.528 -2.0517  0.9197 -0.3122
   33POPC     N 4369   2.147   3.945  10.825 -0.0538 -0.1379  0.1158
   33POPC   C12 4370   2.049   3.949  10.708  0.1862  0.1703 -0.4053
   33POPC  H12A 4371   2.099   3.991  10.622  0.2254 -1.7339 -1.3449
   33POPC  H12B 4372   1.967   4.012  10.738 -1.9568 -1.8126 -1.8624
   33POPC   C13 4373   2.212   4.084  10.861  0.1900 -0.0899  0.4220
   33POPC  H13A 4374   2.276   4.084  10.948  1.4661  1.9489 -0.4929
   33POPC  H13B 4375   2.271   4.120  10.778  1.0771  1.2974  1.6293
   33POPC  H13C 4376   2.131   4.146  10.895 -1.4361 -1.8170 -0.1420
   33POPC   C14 4377   2.087   3.894  10.948 -0.1422 -0.7455  0.4299
   33POPC  H14A 4378   2.009   3.950  10.997  0.0571  0.6442 -0.8274
   33POPC  H14B 4379   2.052   3.793  10.931  0.7309 -1.5640  3.2115
   33POPC  H14C 4380   2.170   3.874  11.015 -0.1217  1.3801  1.0822
   33POPC   C15 4381   2.263   3.861  10.779 -0.6273 -0.2932 -0.2683
   33POPC  H15A 4382   2.339   3.915  10.725 -0.8657 -0.4286 -0.7484
   33POPC  H15B 4383   2.232   3.773  10.723 -2.0749  0.1066 -0.1133
   33POPC  H15C 4384   2.314   3.819  10.864  1.2820  0.2459 -1.1272
   33POPC   C11 4385   1.976   3.813  10.662 -0.1932 -0.0062 -0.5373
   33POPC  H11A 4386   1.934   3.831  10.561  0.2872  1.1995 -0.5372
   33POPC  H11B 4387   1.888   3.809  10.729 -0.5182  4.5118 -0.5257
   33POPC     P 4388   2.008   3.569  10.733  0.4578  0.2412 -0.4476
   33POPC   O13 4389   2.006   3.584  10.881  0.0623 -0.0752 -0.7601
   33POPC   O14 4390   2.094   3.462  10.686 -0.1821 -0.4484 -0.4592
   33POPC   O12 4391   2.060   3.699  10.662 -0.3582  0.3547  0.0004
   33POPC   O11 4392   1.863   3.548  10.680  0.1727  0.0957  0.1609
   33POPC    C1 4393   1.813   3.421  10.677 -0.4265  0.7457  0.1913
   33POPC    HA 4394   1.863   3.348  10.745 -0.7191 -0.1673 -0.5504
   33POPC    HB 4395   1.710   3.427  10.719 -0.7232  2.0191 -0.6943
   33POPC    C2 4396   1.807   3.356  10.535  0.0691 -0.4287  0.8476
   33POPC    HS 4397   1.747   3.262  10.542  2.2419 -2.0150 -1.0511
   33POPC   O21 4398   1.928   3.314  10.492  0.0710 -0.1137 -0.1088
   33POPC   C21 4399   1.984   3.214  10.551  0.6021  0.1265 -0.3641
   33POPC   O22 4400   1.936   3.142  10.640  0.0460 -0.3632  0.1346
   33POPC   C22 4401   2.112   3.180  10.474  0.5323  0.1841  0.3474
   33POPC   H2R 4402   2.174   3.154  10.562 -1.1866 -2.5021  0.7976
   33POPC   H2S 4403   2.146   3.266  10.411  2.5826 -0.9168 -0.0643
   33POPC    C3 4404   1.737   3.444  10.437  0.0470 -0.4720 -0.1806
   33POPC    HX 4405   1.782   3.545  10.441  0.2099 -0.4962 -1.3096
   33POPC    HY 4406   1.629   3.451  10.463 -0.4772  0.6926 -2.5235
   33POPC   O31 4407   1.739   3.369  10.314  0.0217 -0.5453 -0.1421
   33POPC   C31 4408   1.768   3.436  10.207 -0.1077 -0.4166 -0.0191
   33POPC   O32 4409   1.825   3.546  10.205 -0.0974 -0.1774  0.3082
   33POPC   C32 4410   1.742   3.349  10.084  0.0617 -0.8255 -0.2482
   33POPC   H2X 4411   1.633   3.358  10.063 -0.0222  0.9794  0.7988
   33POPC   H2Y 4412   1.764   3.242  10.103  1.0455 -0.4878  0.5445
   33POPC   C23 4413   2.102   3.058  10.376  0.4952 -0.4296  0.2102
   33POPC   H3R 4414   2.055   2.970  10.425  0.8510  0.0859  1.5127
   33POPC   H3S 4415   2.206   3.024  10.362  0.6056  0.0190 -0.0658
   33POPC   C24 4416   2.060   3.093  10.234 -0.4003  0.2807 -0.7754
   33POPC   H4R 4417   2.106   3.181  10.183 -0.4409  0.7351 -0.0411
   33POPC   H4S 4418   1.952   3.113  10.245 -0.5335 -0.6968 -0.2433
   33POPC   C25 4419   2.078   2.966  10.153 -0.7738 -0.4783  1.2056
   33POPC   H5R 4420   2.010   2.889  10.196  0.9664 -4.0232 -2.0490
   33POPC   H5S 4421   2.176   2.919  10.179 -1.4248 -1.8716  1.1774
   33POPC   C26 4422   2.070   2.985  10.000  0.8671  0.5875  0.8496
   33POPC   H6R 4423   2.159   3.048   9.978  1.5083 -0.4110  0.5705
   33POPC   H6S 4424   1.974   3.038   9.982 -0.5560 -2.3957 -0.6552
   33POPC   C27 4425   2.088   2.849   9.925  0.6984 -0.4433 -0.5900
   33POPC   H7R 4426   1.998   2.786   9.934 -1.6147  2.7002 -1.0087
   33POPC   H7S 4427   2.162   2.781   9.973  1.5738 -0.3592 -1.7994
   33POPC   C28 4428   2.122   2.877   9.780  0.0047  0.3542  0.1879
   33POPC   H8R 4429   2.169   2.784   9.741  1.8741  1.8448 -1.2365
   33POPC   H8S 4430   2.207   2.948   9.788  1.8717 -1.7988 -0.1937
   33POPC   C29 4431   2.026   2.948   9.694 -0.3581  0.2364  0.0010
   33POPC   H91 4432   2.007   3.045   9.743  1.5891  1.6537 -1.9526
   33POPC  C210 4433   1.963   2.909   9.579  0.2012  0.0159  0.1746
   33POPC  H101 4434   1.905   2.982   9.522 -0.3924 -0.0630  0.6682
   33POPC  C211 4435   2.000   2.776   9.515 -0.2409  1.0727 -0.6938
   33POPC  H11R 4436   1.919   2.758   9.440  0.1368 -1.7960 -0.4504
   33POPC  H11S 4437   1.989   2.685   9.577 -1.6640  0.0201 -2.4519
   33POPC  C212 4438   2.141   2.779   9.439  0.3975 -0.8406 -0.4158
   33POPC  H12R 4439   2.141   2.673   9.404  2.6085 -1.2994  0.8851
   33POPC  H12S 4440   2.222   2.794   9.514  0.8813  1.4958 -1.3711
   33POPC  C213 4441   2.151   2.871   9.311 -0.2421  0.5092 -0.3867
   33POPC  H13R 4442   2.247   2.841   9.264 -1.2354 -0.8297 -1.5668
   33POPC  H13S 4443   2.153   2.974   9.353 -0.6550  0.7116 -0.8715
   33POPC  C214 4444   2.048   2.854   9.202 -0.2007  0.4467 -0.0736
   33POPC  H14R 4445   1.960   2.895   9.256 -0.7884  0.9011 -1.3443
   33POPC  H14S 4446   2.044   2.751   9.161 -0.5515  0.9199 -1.2513
   33POPC  C215 4447   2.092   2.937   9.074  0.2052 -0.2953 -0.3304
   33POPC  H15R 4448   2.032   2.893   8.992 -1.4090 -0.5725  0.9629
   33POPC  H15S 4449   2.200   2.926   9.052  0.9752  2.0093  2.0296
   33POPC  C216 4450   2.057   3.089   9.085 -0.0413  0.0799  0.0888
   33POPC  H16R 4451   2.119   3.121   9.171  1.6397 -1.2005 -0.6128
   33POPC  H16S 4452   1.950   3.095   9.113  0.2167  0.4403  0.9959
   33POPC  C217 4453   2.102   3.168   8.961  0.0898 -0.0405  0.4354
   33POPC  H17R 4454   2.209   3.145   8.941  0.5279  3.7359 -2.0794
   33POPC  H17S 4455   2.115   3.275   8.987  1.3286 -0.4384  1.4755
   33POPC  C218 4456   2.018   3.153   8.837  0.1060 -0.1852  0.2919
   33POPC  H18R 4457   1.912   3.162   8.871  0.0056  1.0006 -0.3190
   33POPC  H18S 4458   2.032   3.054   8.788  0.5945  0.3376 -0.6332
   33POPC  H18T 4459   2.040   3.239   8.772  0.5535  0.1194  0.8439
   33POPC   C33 4460   1.825   3.394   9.971  0.0440 -0.4694  0.7159
   33POPC   H3X 4461   1.932   3.373   9.993  0.3210 -0.4224 -0.5233
   33POPC   H3Y 4462   1.806   3.502   9.953  0.4383 -0.6457 -0.8606
   33POPC   C34 4463   1.783   3.330   9.836 -0.3413 -0.7441  0.2490
   33POPC   H4X 4464   1.676   3.329   9.806  0.6333  0.0482 -3.5891
   33POPC   H4Y 4465   1.814   3.225   9.852 -2.1926 -1.0911  1.7276
   33POPC   C35 4466   1.848   3.398   9.720  0.3090 -0.5521  1.6393
   33POPC   H5X 4467   1.929   3.470   9.744 -0.1042  0.1240  1.0112
   33POPC   H5Y 4468   1.774   3.466   9.672  1.7473  0.5967  1.0075
   33POPC   C36 4469   1.905   3.289   9.633  0.1643 -0.1304  0.6539
   33POPC   H6X 4470   1.834   3.215   9.592 -0.7500  1.0610  0.0475
   33POPC   H6Y 4471   1.983   3.228   9.683  0.0576 -1.8071 -1.1701
   33POPC   C37 4472   1.967   3.344   9.505  0.5636 -0.0754 -0.4122
   33POPC   H7X 4473   2.056   3.287   9.471  0.8829 -0.3739  0.8701
   33POPC   H7Y 4474   1.992   3.451   9.526 -0.2796  0.1546 -0.5905
   33POPC   C38 4475   1.854   3.345   9.393 -0.0079  0.3162 -0.0524
   33POPC   H8X 4476   1.770   3.408   9.430 -0.7324  0.1541 -1.3849
   33POPC   H8Y 4477   1.827   3.243   9.359 -0.4663  1.1783 -2.3833
   33POPC   C39 4478   1.917   3.412   9.267  0.5809  0.5279 -0.1189
   33POPC   H9X 4479   1.995   3.340   9.232 -0.0563 -0.0743 -0.3115
   33POPC   H9Y 4480   1.963   3.510   9.291 -0.4956  0.7155  1.1871
   33POPC  C310 4481   1.819   3.436   9.149 -0.4905 -0.2308  0.0725
   33POPC  H10X 4482   1.716   3.453   9.187  0.0220  0.6443  1.0766
   33POPC  H10Y 4483   1.810   3.336   9.101 -1.3890 -0.7144  1.1962
   33POPC  C311 4484   1.864   3.544   9.049 -0.0324  0.5234  0.1125
   33POPC  H11X 4485   1.961   3.519   9.000 -1.6847 -0.8270 -2.5870
   33POPC  H11Y 4486   1.879   3.643   9.096  0.4408 -0.8533  3.0129
   33POPC  C312 4487   1.767   3.559   8.927 -0.2297  0.5339 -0.1716
   33POPC  H12X 4488   1.785   3.660   8.886 -1.7643  1.0889  0.4959
   33POPC  H12Y 4489   1.663   3.568   8.965  0.1155  0.1583  0.8853
   33POPC  C313 4490   1.772   3.444   8.822  0.0795 -0.9047  0.5103
   33POPC  H13X 4491   1.740   3.349   8.869 -0.7933 -0.4183  0.9081
   33POPC  H13Y 4492   1.874   3.438   8.776 -0.1760 -0.0802 -0.1860
   33POPC  C314 4493   1.671   3.476   8.708  0.0637  0.5840 -0.2888
   33POPC  H14X 4494   1.691   3.578   8.668 -0.8890  1.0699  0.4528
   33POPC  H14Y 4495   1.566   3.487   8.741 -0.9369 -0.1001 -3.0883
   33POPC  C315 4496   1.676   3.378   8.586 -0.2755 -0.1002  0.6323
   33POPC  H15X 4497   1.687   3.278   8.632 -0.1570  0.6488  2.2943
   33POPC  H15Y 4498   1.770   3.397   8.530  0.6542 -3.7460  0.8627
   33POPC  C316 4499   1.559   3.404   8.483 -0.7627 -0.4464  0.7846
   33POPC  H16X 4500   1.580   3.345   8.391 -2.6354 -3.2236  2.0807
   33POPC  H16Y 4501   1.546   3.510   8.452  2.1842  0.2641  1.8212
   33POPC  H16Z 4502   1.470   3.373   8.541 -0.4051 -0.7950  1.1416
   34POPC     N 4503   1.533   4.092  10.691 -0.4504  0.7113  0.1449
   34POPC   C12 4504   1.592   4.193  10.593 -0.3898  0.7173  0.5052
   34POPC  H12A 4505   1.619   4.135  10.506 -3.6929 -3.5588  2.1114
   34POPC  H12B 4506   1.688   4.229  10.628  1.1295 -0.2566 -2.4809
   34POPC   C13 4507   1.389   4.060  10.654 -0.4054 -0.3282  0.0897
   34POPC  H13A 4508   1.409   4.016  10.557  4.1923 -2.8736  2.0114
   34POPC  H13B 4509   1.342   3.986  10.718 -3.6036 -0.6639 -2.5328
   34POPC  H13C 4510   1.332   4.150  10.667  1.9883  0.9883  1.9816
   34POPC   C14 4511   1.624   3.967  10.700 -0.0240 -0.3267  0.0937
   34POPC  H14A 4512   1.621   3.920  10.603 -0.8048  1.8353 -0.9578
   34POPC  H14B 4513   1.726   3.981  10.730  0.8964 -0.3129 -2.8789
   34POPC  H14C 4514   1.585   3.892  10.768 -0.4062  0.1417  0.3957
   34POPC   C15 4515   1.528   4.146  10.825 -0.3662  0.2711 -0.5177
   34POPC  H15A 4516   1.475   4.087  10.899  0.2886 -1.5202 -1.4504
   34POPC  H15B 4517   1.495   4.248  10.822 -0.5849  0.1921 -0.7429
   34POPC  H15C 4518   1.626   4.158  10.869 -0.9331  2.9320  0.1050
   34POPC   C11 4519   1.514   4.324  10.562  0.1504  0.1306  0.2940
   34POPC  H11A 4520   1.423   4.300  10.503  1.0898  0.7691 -1.4471
   34POPC  H11B 4521   1.580   4.384  10.496 -0.2083 -0.2729 -0.4280
   34POPC     P 4522   1.581   4.495  10.741 -0.0794  0.1067  0.9461
   34POPC   O13 4523   1.706   4.424  10.765  0.0325 -0.3484 -0.2464
   34POPC   O14 4524   1.524   4.560  10.856 -0.5058 -0.3156  0.3687
   34POPC   O12 4525   1.471   4.399  10.680 -0.5445  0.4369 -0.5512
   34POPC   O11 4526   1.611   4.603  10.629  0.0582 -1.0202 -0.2184
   34POPC    C1 4527   1.506   4.699  10.595  0.5247 -0.3623  0.5069
   34POPC    HA 4528   1.484   4.778  10.670 -0.1558  1.3699 -1.4816
   34POPC    HB 4529   1.407   4.649  10.601 -0.3462  1.2443 -0.0616
   34POPC    C2 4530   1.527   4.771  10.461 -0.0596  0.3007 -0.7654
   34POPC    HS 4531   1.446   4.847  10.456  1.4503  1.8676 -2.5413
   34POPC   O21 4532   1.523   4.669  10.353  0.1235  0.0656 -0.3254
   34POPC   C21 4533   1.409   4.659  10.303 -0.1908  0.5136 -0.3571
   34POPC   O22 4534   1.303   4.709  10.343  0.4110 -0.5425 -0.2389
   34POPC   C22 4535   1.408   4.538  10.203  0.2222  0.2096  0.3198
   34POPC   H2R 4536   1.319   4.473  10.217 -0.8148  1.6863  0.7628
   34POPC   H2S 4537   1.495   4.472  10.223  0.2868  0.5117  1.0548
   34POPC    C3 4538   1.664   4.846  10.445  0.2212  0.2157 -0.5531
   34POPC    HX 4539   1.741   4.773  10.480 -0.6635 -0.1068  0.7621
   34POPC    HY 4540   1.654   4.937  10.509 -1.5364  0.3906 -1.0605
   34POPC   O31 4541   1.701   4.892  10.311  0.1669  0.0110  0.0304
   34POPC   C31 4542   1.638   4.986  10.248  0.6138  0.0110 -0.3352
   34POPC   O32 4543   1.544   5.053  10.291 -0.1608  0.0344  0.0975
   34POPC   C32 4544   1.691   5.003  10.110  0.9730 -0.3058 -0.3970
   34POPC   H2X 4545   1.779   4.938  10.088  0.4603 -1.1538 -0.0017
   34POPC   H2Y 4546   1.714   5.110  10.093  1.1336 -0.4454 -1.0676
   34POPC   C23 4547   1.398   4.584  10.057 -0.3487 -0.1748 -0.9540
   34POPC   H3R 4548   1.444   4.511   9.987 -0.3313 -0.8785 -0.2116
   34POPC   H3S 4549   1.434   4.689  10.055  0.0820 -0.3002 -0.1038
   34POPC   C24 4550   1.258   4.587  10.008  0.2786 -0.1692 -0.4847
   34POPC   H4R 4551   1.190   4.626  10.086 -0.4992 -1.7297 -0.3662
   34POPC   H4S 4552   1.226   4.482   9.991  0.1002 -0.3173  0.7597
   34POPC   C25 4553   1.241   4.657   9.873 -0.1170  0.6891 -0.3512
   34POPC   H5R 4554   1.302   4.619   9.789 -0.1920 -0.5066  0.1331
   34POPC   H5S 4555   1.270   4.762   9.899  1.7909  0.6948 -2.3244
   34POPC   C26 4556   1.097   4.652   9.832 -0.0938  0.3654  0.2749
   34POPC   H6R 4557   1.035   4.650   9.924 -0.8112 -1.8407 -0.2131
   34POPC   H6S 4558   1.072   4.578   9.752 -0.4526  1.0760 -0.2788
   34POPC   C27 4559   1.051   4.780   9.765  0.7376  0.0566 -0.4284
   34POPC   H7R 4560   1.095   4.795   9.664 -0.9025 -1.1778 -1.3653
   34POPC   H7S 4561   1.081   4.865   9.829  0.3819 -0.5955  0.6259
   34POPC   C28 4562   0.900   4.785   9.752 -0.0322 -0.3543  0.1228
   34POPC   H8R 4563   0.854   4.719   9.829 -0.6105  1.5288  1.4365
   34POPC   H8S 4564   0.850   4.742   9.663  1.3212  0.9749 -1.3259
   34POPC   C29 4565   0.835   4.920   9.768  0.2825  0.2179 -0.1895
   34POPC   H91 4566   0.785   4.937   9.864 -0.9195  0.2497 -0.8152
   34POPC  C210 4567   0.837   5.025   9.683 -0.2736 -0.7258 -0.0236
   34POPC  H101 4568   0.785   5.116   9.717  2.5346  0.5780  0.8854
   34POPC  C211 4569   0.899   5.032   9.550 -0.2797 -0.4606  0.1072
   34POPC  H11R 4570   0.988   4.966   9.543  0.1142  0.1864 -1.1616
   34POPC  H11S 4571   0.934   5.134   9.524 -1.4345  0.1765  0.9872
   34POPC  C212 4572   0.798   5.006   9.445  0.2770 -0.3562 -0.4449
   34POPC  H12R 4573   0.721   5.087   9.452 -0.6538 -1.2531 -0.0810
   34POPC  H12S 4574   0.754   4.905   9.461  1.6753 -0.9776 -0.4628
   34POPC  C213 4575   0.845   5.019   9.308  0.4767 -0.6581 -0.3471
   34POPC  H13R 4576   0.914   4.935   9.287  0.2487 -1.2697  1.2827
   34POPC  H13S 4577   0.903   5.110   9.283  0.8325 -0.4268  1.2369
   34POPC  C214 4578   0.722   5.009   9.216  0.6308 -0.0063 -0.9090
   34POPC  H14R 4579   0.655   5.095   9.237  2.4941  1.6542 -1.6041
   34POPC  H14S 4580   0.660   4.923   9.248 -0.5791  1.4558  0.8051
   34POPC  C215 4581   0.762   5.009   9.067 -0.0364 -0.0223  0.0205
   34POPC  H15R 4582   0.672   4.983   9.007 -1.5195  0.6028  1.9184
   34POPC  H15S 4583   0.841   4.932   9.053  0.8526  0.5438  1.8060
   34POPC  C216 4584   0.816   5.145   9.017  0.6851  0.2018 -0.1546
   34POPC  H16R 4585   0.925   5.127   9.026  0.4366 -0.0241  2.8739
   34POPC  H16S 4586   0.761   5.230   9.064 -0.8738 -0.4329 -0.7876
   34POPC  C217 4587   0.794   5.159   8.866 -0.4644  0.0575  0.0496
   34POPC  H17R 4588   0.686   5.139   8.849 -0.4578  1.5182 -1.9579
   34POPC  H17S 4589   0.847   5.072   8.819 -0.0767  0.3181  0.0030
   34POPC  C218 4590   0.825   5.292   8.811 -0.6542  0.2601  0.2998
   34POPC  H18R 4591   0.933   5.304   8.832 -0.8438 -1.0901  2.2303
   34POPC  H18S 4592   0.774   5.380   8.855  1.2996  2.3618 -1.5686
   34POPC  H18T 4593   0.811   5.296   8.701  0.4047  1.0152  0.1929
   34POPC   C33 4594   1.592   4.965   9.997  0.4722  0.4122  0.0961
   34POPC   H3X 4595   1.488   4.990  10.024 -0.0236  0.0367 -1.4250
   34POPC   H3Y 4596   1.594   4.855   9.982  1.3155  0.5916 -1.2076
   34POPC   C34 4597   1.615   5.046   9.865 -0.4795  0.7030 -0.6015
   34POPC   H4X 4598   1.702   5.007   9.809 -1.7754 -1.1625 -1.3676
   34POPC   H4Y 4599   1.631   5.154   9.887 -1.0453  0.6289  0.1867
   34POPC   C35 4600   1.490   5.026   9.771  0.2868 -0.0293 -0.4922
   34POPC   H5X 4601   1.414   5.092   9.819 -0.9075 -0.5142 -1.6535
   34POPC   H5Y 4602   1.459   4.920   9.763  1.8837 -0.5519  0.2639
   34POPC   C36 4603   1.524   5.071   9.624  0.2045  0.1104  0.0282
   34POPC   H6X 4604   1.591   4.989   9.591  0.4756  0.6566 -0.7745
   34POPC   H6Y 4605   1.577   5.169   9.632 -0.6582  0.5640  0.3504
   34POPC   C37 4606   1.408   5.067   9.522  0.0308  0.3109  0.4597
   34POPC   H7X 4607   1.331   5.138   9.560  0.2960  1.1015 -0.4411
   34POPC   H7Y 4608   1.362   4.967   9.515 -1.8839  1.2749 -1.2541
   34POPC   C38 4609   1.458   5.133   9.388 -0.0447 -0.2200 -0.0614
   34POPC   H8X 4610   1.520   5.059   9.333 -2.7073 -1.8507 -0.9766
   34POPC   H8Y 4611   1.518   5.225   9.401 -1.9276  0.6280  3.0158
   34POPC   C39 4612   1.337   5.165   9.296 -0.2157  0.3016  0.2952
   34POPC   H9X 4613   1.292   5.258   9.337 -2.4077 -0.7036  0.2232
   34POPC   H9Y 4614   1.271   5.076   9.301 -0.2323  0.3705  1.4391
   34POPC  C310 4615   1.372   5.190   9.144  0.8324 -0.2499  0.5387
   34POPC  H10X 4616   1.419   5.096   9.107  1.7104 -0.6893  2.6379
   34POPC  H10Y 4617   1.441   5.274   9.124  0.1271  0.6377  1.7293
   34POPC  C311 4618   1.239   5.206   9.075 -0.7321  0.1536 -0.4149
   34POPC  H11X 4619   1.198   5.298   9.120  1.2010 -0.4248  2.6528
   34POPC  H11Y 4620   1.163   5.134   9.111 -1.7368 -0.2970 -3.2662
   34POPC  C312 4621   1.232   5.206   8.920  0.0195  0.6664  0.9275
   34POPC  H12X 4622   1.130   5.182   8.885  0.9195  0.1155 -1.3508
   34POPC  H12Y 4623   1.294   5.128   8.871 -1.4619  0.4192 -0.5537
   34POPC  C313 4624   1.279   5.332   8.851  0.3197 -0.5691  0.0188
   34POPC  H13X 4625   1.228   5.425   8.882 -1.0560 -0.7543 -1.6142
   34POPC  H13Y 4626   1.254   5.322   8.743  0.3950  2.3452 -0.3049
   34POPC  C314 4627   1.439   5.354   8.854  0.8324  0.5494 -0.0720
   34POPC  H14X 4628   1.485   5.256   8.833  2.2826  0.7187  2.1683
   34POPC  H14Y 4629   1.472   5.387   8.955  0.7893  3.4832 -0.9583
   34POPC  C315 4630   1.487   5.467   8.759  0.3114 -0.1562  0.0157
   34POPC  H15X 4631   1.428   5.557   8.787 -0.8214 -0.5941 -0.9146
   34POPC  H15Y 4632   1.464   5.435   8.655  1.9199 -1.5710  0.0642
   34POPC  C316 4633   1.634   5.481   8.769  0.1254 -0.3950 -0.2334
   34POPC  H16X 4634   1.671   5.561   8.701  0.4150 -0.9348 -0.7157
   34POPC  H16Y 4635   1.691   5.389   8.747  0.0962 -0.8460  1.5492
   34POPC  H16Z 4636   1.657   5.501   8.876  1.2033 -0.5851 -0.4214
   35POPC     N 4637   0.901   1.402  10.933  0.7608 -0.0442 -0.3122
   35POPC   C12 4638   0.766   1.338  10.890  0.5045  0.8250 -0.4140
   35POPC  H12A 4639   0.727   1.372  10.795  0.8042 -1.8683 -1.5348
   35POPC  H12B 4640   0.703   1.385  10.964  1.3665  3.1823 -1.1288
   35POPC   C13 4641   0.937   1.355  11.069 -0.3081  0.4220 -0.0927
   35POPC  H13A 4642   1.038   1.386  11.092  0.5055 -0.4163 -2.3819
   35POPC  H13B 4643   0.876   1.399  11.146  2.8172 -0.0055  2.7744
   35POPC  H13C 4644   0.932   1.248  11.078 -0.3249  0.4578  0.3179
   35POPC   C14 4645   1.015   1.365  10.838 -0.0790 -0.4249 -0.7144
   35POPC  H14A 4646   1.026   1.258  10.834  0.1271 -0.5077  1.3419
   35POPC  H14B 4647   0.995   1.396  10.736 -0.8986  0.4337 -0.2996
   35POPC  H14C 4648   1.112   1.403  10.866 -0.4766  0.8623 -1.0269
   35POPC   C15 4649   0.886   1.557  10.930 -0.4099  0.5340 -0.2392
   35POPC  H15A 4650   0.974   1.603  10.973 -0.2131  0.9467 -1.0687
   35POPC  H15B 4651   0.802   1.584  10.992  0.0423 -1.0946  1.1054
   35POPC  H15C 4652   0.868   1.588  10.828 -0.9629 -0.7897 -0.5520
   35POPC   C11 4653   0.754   1.190  10.903 -0.0954 -0.5505 -0.8084
   35POPC  H11A 4654   0.833   1.128  10.855  1.6801  1.4593 -0.5467
   35POPC  H11B 4655   0.668   1.171  10.834 -0.4000  3.7596 -1.7255
   35POPC     P 4656   0.591   1.151  11.102 -0.0958  0.0538  0.4417
   35POPC   O13 4657   0.572   1.289  11.140 -0.2181 -0.9704  0.0859
   35POPC   O14 4658   0.584   1.055  11.213 -0.6059 -0.3341  0.6919
   35POPC   O12 4659   0.732   1.142  11.036 -0.2268  0.0146 -0.5430
   35POPC   O11 4660   0.490   1.115  10.986  1.0783  0.7358 -0.5260
   35POPC    C1 4661   0.400   1.207  10.933 -0.4048  0.7401 -0.0523
   35POPC    HA 4662   0.442   1.306  10.907  1.9411 -0.0249  0.7096
   35POPC    HB 4663   0.315   1.233  11.001 -1.2575 -0.6172 -0.5736
   35POPC    C2 4664   0.347   1.149  10.792 -0.0510  0.0860 -0.3691
   35POPC    HS 4665   0.306   1.047  10.808  0.4764 -0.0021  0.4605
   35POPC   O21 4666   0.454   1.129  10.699  0.1514 -0.0807  0.0082
   35POPC   C21 4667   0.456   1.037  10.606 -0.2241  0.2474  0.2773
   35POPC   O22 4668   0.372   0.952  10.582  0.4005 -1.1473  0.3382
   35POPC   C22 4669   0.592   1.049  10.524  0.1488  0.6972  0.4208
   35POPC   H2R 4670   0.665   1.014  10.599 -0.7894  1.1491  1.5483
   35POPC   H2S 4671   0.616   1.157  10.525  0.2282  0.6739  2.0107
   35POPC    C3 4672   0.235   1.241  10.736  0.0268 -0.2836 -0.5003
   35POPC    HX 4673   0.276   1.344  10.743  2.3842 -1.2531  0.2543
   35POPC    HY 4674   0.142   1.247  10.796  0.9185  0.5084  0.8333
   35POPC   O31 4675   0.211   1.206  10.600 -0.2636  0.0282  0.9849
   35POPC   C31 4676   0.104   1.128  10.568  0.6515 -0.9046 -0.3082
   35POPC   O32 4677   0.030   1.077  10.650  0.0832  0.2297 -0.6957
   35POPC   C32 4678   0.107   1.117  10.417 -0.1100  0.8052  0.0402
   35POPC   H2X 4679   0.207   1.152  10.383  0.6993  1.7779  3.2454
   35POPC   H2Y 4680   0.031   1.187  10.378  1.1739  1.6266 -1.0430
   35POPC   C23 4681   0.601   0.966  10.391  0.5533 -0.0199  0.7229
   35POPC   H3R 4682   0.561   0.863  10.404  1.0087 -0.4249 -0.9673
   35POPC   H3S 4683   0.706   0.960  10.356  0.5505  2.3319  0.2165
   35POPC   C24 4684   0.523   1.024  10.268 -0.0863 -0.7591  0.4106
   35POPC   H4R 4685   0.550   1.128  10.241 -0.5172 -0.9620 -0.8107
   35POPC   H4S 4686   0.416   1.035  10.298 -0.0306  1.8951 -0.3020
   35POPC   C25 4687   0.538   0.928  10.149  0.2843  0.0025  0.0498
   35POPC   H5R 4688   0.485   0.838  10.188 -1.4655  1.6650  1.6235
   35POPC   H5S 4689   0.647   0.918  10.133 -0.0297  1.9462 -3.8468
   35POPC   C26 4690   0.481   0.985  10.016 -0.2047 -0.1793 -0.0751
   35POPC   H6R 4691   0.545   1.074   9.997 -0.5539 -0.2379 -1.5842
   35POPC   H6S 4692   0.375   1.013  10.036 -0.7691 -1.2174 -1.5443
   35POPC   C27 4693   0.510   0.890   9.903  0.1408  0.3270 -0.5725
   35POPC   H7R 4694   0.467   0.792   9.931 -0.0024  0.2617 -1.0138
   35POPC   H7S 4695   0.620   0.871   9.911  0.4417  1.7508 -1.1671
   35POPC   C28 4696   0.484   0.948   9.761  0.3854  0.0905 -0.3483
   35POPC   H8R 4697   0.514   1.055   9.757  0.6096  0.0323 -0.2354
   35POPC   H8S 4698   0.376   0.941   9.737  0.3710 -1.4279  0.1489
   35POPC   C29 4699   0.558   0.860   9.664 -0.5833  0.3388  0.1997
   35POPC   H91 4700   0.660   0.851   9.703 -0.1952 -1.1894 -1.1010
   35POPC  C210 4701   0.516   0.812   9.547  0.5782  0.7250  0.1853
   35POPC  H101 4702   0.587   0.764   9.478 -1.2599  0.2376 -1.4291
   35POPC  C211 4703   0.384   0.840   9.473 -0.0150  0.6126 -0.3142
   35POPC  H11R 4704   0.303   0.867   9.543  0.4743 -0.4078  0.6557
   35POPC  H11S 4705   0.355   0.750   9.414 -2.2243  0.6550  0.6572
   35POPC  C212 4706   0.390   0.964   9.383  0.2397  0.0757 -0.3900
   35POPC  H12R 4707   0.470   0.952   9.306 -0.0034  0.1039 -0.6488
   35POPC  H12S 4708   0.397   1.053   9.448  0.5429 -0.5363  0.4201
   35POPC  C213 4709   0.264   0.969   9.298 -0.2103  0.1553 -0.8293
   35POPC  H13R 4710   0.180   0.988   9.368  1.1864  0.4309  0.7966
   35POPC  H13S 4711   0.234   0.876   9.246 -0.7588 -0.4221  0.5018
   35POPC  C214 4712   0.264   1.093   9.203 -0.1410  0.2996  0.2477
   35POPC  H14R 4713   0.369   1.102   9.166  0.2046 -1.0034  0.8892
   35POPC  H14S 4714   0.255   1.181   9.269  0.7531 -0.0131  0.7941
   35POPC  C215 4715   0.154   1.094   9.097 -0.9168 -0.1925  0.7618
   35POPC  H15R 4716   0.054   1.122   9.135 -1.4396 -0.7810 -0.1438
   35POPC  H15S 4717   0.145   0.990   9.058  2.5138  0.1191 -1.0640
   35POPC  C216 4718   0.193   1.185   8.979  0.3810  0.1975 -0.1474
   35POPC  H16R 4719   0.290   1.155   8.933  0.7405 -0.1752  0.8336
   35POPC  H16S 4720   0.201   1.288   9.019  0.7173  1.5507 -3.5054
   35POPC  C217 4721   0.090   1.184   8.861 -0.4378  0.3808  0.5341
   35POPC  H17R 4722   0.136   1.238   8.776 -0.4537 -2.5217 -1.3998
   35POPC  H17S 4723   0.004   1.249   8.887 -0.5444  0.3748  0.1944
   35POPC  C218 4724   0.036   1.052   8.814 -0.0611  0.2647 -0.6617
   35POPC  H18R 4725  -0.021   0.999   8.894  0.6841  0.6954  0.1569
   35POPC  H18S 4726   0.116   0.984   8.779 -2.0589 -1.2615 -2.4476
   35POPC  H18T 4727  -0.041   1.066   8.734  0.4123 -1.4165 -1.4494
   35POPC   C33 4728   0.091   0.977  10.359 -0.3510  0.3519 -0.6921
   35POPC   H3X 4729  -0.005   0.941  10.402 -0.0329  1.4183  0.9570
   35POPC   H3Y 4730   0.163   0.914  10.414 -2.3437  1.3827  3.3212
   35POPC   C34 4731   0.095   0.960  10.205 -0.0918  0.0168  0.2340
   35POPC   H4X 4732   0.102   0.849  10.192 -0.9996 -0.2264  1.7031
   35POPC   H4Y 4733   0.187   1.007  10.163 -0.3032  1.1939  1.0859
   35POPC   C35 4734  -0.025   1.011  10.134 -0.4457  0.0374 -0.1147
   35POPC   H5X 4735  -0.025   1.122  10.139 -2.3449  0.0498 -0.1124
   35POPC   H5Y 4736  -0.116   0.965  10.177 -1.0389  2.3419  1.2043
   35POPC   C36 4737  -0.013   0.989   9.980  0.1838  0.0565  0.8462
   35POPC   H6X 4738   0.092   1.009   9.946 -0.0719  1.3416  0.7919
   35POPC   H6Y 4739  -0.086   1.049   9.922 -0.2366 -1.3513 -0.1310
   35POPC   C37 4740  -0.067   0.852   9.944 -0.9355  0.4516  1.0569
   35POPC   H7X 4741  -0.173   0.843   9.975 -0.9412  2.3328  1.6377
   35POPC   H7Y 4742  -0.015   0.770   9.997 -3.5974 -2.0514 -0.0585
   35POPC   C38 4743  -0.043   0.805   9.798  0.7502  0.0406 -0.5233
   35POPC   H8X 4744  -0.080   0.701   9.781 -0.1163  0.1326  0.6462
   35POPC   H8Y 4745   0.065   0.822   9.784  1.0740 -0.6547  1.0452
   35POPC   C39 4746  -0.114   0.884   9.691  0.2470 -0.2444 -0.0975
   35POPC   H9X 4747  -0.077   0.989   9.700 -0.2097 -0.0856 -0.0496
   35POPC   H9Y 4748  -0.220   0.880   9.725  0.0397  1.6819 -0.4216
   35POPC  C310 4749  -0.102   0.844   9.542 -0.1200  0.9457  0.3890
   35POPC  H10X 4750  -0.004   0.795   9.522 -1.4755 -1.0422 -1.5456
   35POPC  H10Y 4751  -0.093   0.935   9.479  0.3430 -0.1819 -1.2131
   35POPC  C311 4752  -0.228   0.771   9.486 -0.1625 -0.5540 -0.0799
   35POPC  H11X 4753  -0.308   0.847   9.504  0.5698  0.3927 -0.7504
   35POPC  H11Y 4754  -0.262   0.688   9.551 -0.8574  0.5817  1.0412
   35POPC  C312 4755  -0.231   0.725   9.343 -0.0111 -0.1359  0.1762
   35POPC  H12X 4756  -0.337   0.723   9.312  0.2446 -1.3457 -0.6539
   35POPC  H12Y 4757  -0.187   0.623   9.345 -1.4822 -0.7834 -0.0770
   35POPC  C313 4758  -0.145   0.801   9.246  0.0081  0.3592 -0.1989
   35POPC  H13X 4759  -0.044   0.793   9.291 -0.4824  0.1023  0.8803
   35POPC  H13Y 4760  -0.176   0.907   9.234 -2.6285 -0.4796 -1.3100
   35POPC  C314 4761  -0.140   0.741   9.109  0.0731  0.3392  0.8830
   35POPC  H14X 4762  -0.111   0.633   9.111 -1.5120 -0.1185 -0.2003
   35POPC  H14Y 4763  -0.057   0.790   9.053  0.4499 -1.5435 -0.2386
   35POPC  C315 4764  -0.278   0.753   9.039 -0.0792  0.5747  0.2688
   35POPC  H15X 4765  -0.293   0.855   8.997  0.8753  0.5855 -0.0514
   35POPC  H15Y 4766  -0.370   0.734   9.098 -0.6161 -2.1023 -1.3361
   35POPC  C316 4767  -0.292   0.652   8.919 -0.2442  0.5196 -0.2563
   35POPC  H16X 4768  -0.395   0.650   8.879 -0.1659 -0.1655 -0.4314
   35POPC  H16Y 4769  -0.288   0.549   8.962  0.7912  0.4671 -0.4610
   35POPC  H16Z 4770  -0.215   0.666   8.840  1.5147 -1.6625  1.0094
   36POPC     N 4771   0.802   6.313  10.790  0.2170 -0.5950  0.1596
   36POPC   C12 4772   0.903   6.434  10.781 -0.4348  0.2337 -0.3630
   36POPC  H12A 4773   0.834   6.513  10.753 -0.9842  0.3509  1.2813
   36POPC  H12B 4774   0.983   6.417  10.711  1.8107  2.3302  1.6015
   36POPC   C13 4775   0.692   6.335  10.888 -0.3095  0.2739  0.9439
   36POPC  H13A 4776   0.614   6.404  10.859 -0.3126  0.6504  1.8462
   36POPC  H13B 4777   0.638   6.246  10.917  0.3085 -1.2047 -2.0963
   36POPC  H13C 4778   0.728   6.377  10.980 -0.0325  0.7702  0.6135
   36POPC   C14 4779   0.756   6.260  10.659  0.1303  0.0138  0.2751
   36POPC  H14A 4780   0.701   6.337  10.608  0.2344  0.0682  0.2472
   36POPC  H14B 4781   0.842   6.233  10.599  1.4374 -1.4475  2.7105
   36POPC  H14C 4782   0.693   6.172  10.665 -1.5547  0.9227 -3.2398
   36POPC   C15 4783   0.891   6.212  10.846  0.3582 -0.0311 -0.0780
   36POPC  H15A 4784   0.931   6.233  10.944  0.0665  1.0110 -0.1716
   36POPC  H15B 4785   0.967   6.192  10.772  1.7204  1.1340  0.9813
   36POPC  H15C 4786   0.833   6.123  10.864  0.2308 -0.1625 -1.0991
   36POPC   C11 4787   0.966   6.491  10.913  0.0998  0.2470 -0.5136
   36POPC  H11A 4788   1.033   6.573  10.882 -0.6984  0.6500 -1.1682
   36POPC  H11B 4789   1.031   6.415  10.963  1.2537  1.7346  0.2694
   36POPC     P 4790   0.795   6.679  10.985 -0.3807  0.1833 -0.3193
   36POPC   O13 4791   0.868   6.780  11.061  0.4402  0.1473 -0.1780
   36POPC   O14 4792   0.648   6.665  11.012 -0.3008 -0.1907  0.3227
   36POPC   O12 4793   0.863   6.535  11.004 -0.5047 -0.4043  0.1578
   36POPC   O11 4794   0.806   6.708  10.830 -0.4783 -0.2514  0.1902
   36POPC    C1 4795   0.819   6.843  10.782 -0.7127  0.0101 -0.6913
   36POPC    HA 4796   0.919   6.885  10.805 -1.3593  0.7513  0.8069
   36POPC    HB 4797   0.753   6.914  10.836  1.8198  2.5503 -0.8207
   36POPC    C2 4798   0.781   6.856  10.638 -0.0870 -0.0311 -0.0138
   36POPC    HS 4799   0.701   6.782  10.617 -0.3701  0.8581 -2.2176
   36POPC   O21 4800   0.889   6.814  10.557 -0.0087  0.0822 -0.3109
   36POPC   C21 4801   0.879   6.777  10.435 -0.0866  0.1654  0.4000
   36POPC   O22 4802   0.782   6.746  10.374 -0.3581  0.6999 -0.3490
   36POPC   C22 4803   1.020   6.769  10.369  0.2746 -0.1261 -1.0395
   36POPC   H2R 4804   1.086   6.720  10.444 -0.6681  3.3253  2.1522
   36POPC   H2S 4805   1.063   6.870  10.354  0.8035 -0.3206 -0.8470
   36POPC    C3 4806   0.738   7.002  10.608  0.0752 -0.1552 -0.2313
   36POPC    HX 4807   0.819   7.068  10.645  0.3540 -0.9309  0.5544
   36POPC    HY 4808   0.647   7.027  10.665 -0.3709 -0.0124 -0.9973
   36POPC   O31 4809   0.713   7.023  10.468 -0.2984  0.8763  0.0592
   36POPC   C31 4810   0.589   6.980  10.428 -0.2533  0.0916 -0.3320
   36POPC   O32 4811   0.505   6.937  10.504  0.1451  0.4510 -0.2665
   36POPC   C32 4812   0.570   6.999  10.280  0.3136 -0.1377 -0.0717
   36POPC   H2X 4813   0.663   6.951  10.244  0.3595  0.8116 -1.2572
   36POPC   H2Y 4814   0.566   7.107  10.250  2.1807 -0.5105 -1.7751
   36POPC   C23 4815   1.034   6.690  10.239 -0.1225  0.2204  0.1760
   36POPC   H3R 4816   0.979   6.594  10.247  1.5870 -0.8514 -0.5830
   36POPC   H3S 4817   1.141   6.661  10.230 -0.0427  0.5302  0.1436
   36POPC   C24 4818   0.984   6.756  10.109 -0.0031 -0.7010 -0.1711
   36POPC   H4R 4819   1.056   6.838  10.089 -1.8542  1.0697  0.2981
   36POPC   H4S 4820   0.882   6.783  10.143  0.0099  1.5886 -1.9016
   36POPC   C25 4821   0.982   6.663   9.988 -0.1661  0.0951 -0.4173
   36POPC   H5R 4822   0.904   6.700   9.919  1.4707  1.3949 -1.6062
   36POPC   H5S 4823   0.966   6.560  10.024  1.1515  0.0116 -0.0335
   36POPC   C26 4824   1.121   6.667   9.932  0.0984  0.3931  1.0307
   36POPC   H6R 4825   1.191   6.646  10.015 -0.6472 -0.5676  1.4197
   36POPC   H6S 4826   1.153   6.768   9.898  0.4085 -0.0317  0.0595
   36POPC   C27 4827   1.153   6.563   9.828 -0.1331  0.1557  0.4896
   36POPC   H7R 4828   1.174   6.465   9.875 -0.6380  0.0848  0.5691
   36POPC   H7S 4829   1.255   6.596   9.796 -0.6349  1.1899 -0.0614
   36POPC   C28 4830   1.046   6.537   9.720  0.2978  0.2681  0.5144
   36POPC   H8R 4831   0.950   6.516   9.772  0.5419  1.4101  1.4528
   36POPC   H8S 4832   1.070   6.445   9.663  0.7138  0.4667  0.3623
   36POPC   C29 4833   1.008   6.654   9.630  0.1018 -0.1804  0.1353
   36POPC   H91 4834   0.987   6.753   9.672  1.7945  0.6109 -0.8744
   36POPC  C210 4835   1.002   6.659   9.501  0.1429  0.1100  0.4385
   36POPC  H101 4836   0.967   6.756   9.460 -1.4599  0.8099  3.3223
   36POPC  C211 4837   1.026   6.556   9.391  0.4762  0.4151  0.4392
   36POPC  H11R 4838   1.063   6.462   9.437 -1.2295  0.1609  1.3227
   36POPC  H11S 4839   1.110   6.592   9.328  0.1811  0.7649  0.2504
   36POPC  C212 4840   0.896   6.519   9.314  0.1492  0.3105 -0.0088
   36POPC  H12R 4841   0.816   6.476   9.377  0.5685 -0.3575  0.0801
   36POPC  H12S 4842   0.917   6.436   9.243  2.7171 -0.5477  1.6670
   36POPC  C213 4843   0.842   6.645   9.235  0.1230  0.6881  0.1179
   36POPC  H13R 4844   0.918   6.684   9.164  0.5580 -0.5924 -0.1388
   36POPC  H13S 4845   0.821   6.722   9.312 -0.3164 -1.1198  1.8542
   36POPC  C214 4846   0.713   6.616   9.153  0.2107  0.3645 -0.8856
   36POPC  H14R 4847   0.638   6.602   9.234  0.6851  1.1816 -0.2925
   36POPC  H14S 4848   0.718   6.521   9.096 -1.1044 -0.0522 -0.3191
   36POPC  C215 4849   0.666   6.739   9.078 -0.6764 -0.4238  0.4013
   36POPC  H15R 4850   0.738   6.770   9.000  0.3446  0.4640  1.6781
   36POPC  H15S 4851   0.665   6.830   9.143 -1.3158  2.2783 -3.1952
   36POPC  C216 4852   0.524   6.731   9.013  0.0012  0.2124 -0.1304
   36POPC  H16R 4853   0.442   6.727   9.088  1.3709 -2.1403  1.2991
   36POPC  H16S 4854   0.528   6.642   8.946  0.9911  2.4790 -3.2269
   36POPC  C217 4855   0.501   6.851   8.931 -0.1007  0.5251 -0.3517
   36POPC  H17R 4856   0.555   6.856   8.834 -0.0244  2.2640 -0.2457
   36POPC  H17S 4857   0.555   6.925   8.993 -0.1674  0.6061 -0.3908
   36POPC  C218 4858   0.357   6.902   8.913  0.1224 -0.4366 -0.0899
   36POPC  H18R 4859   0.302   6.894   9.009 -0.5827  0.6355 -0.4031
   36POPC  H18S 4860   0.312   6.840   8.833  1.2178 -1.6455  0.1974
   36POPC  H18T 4861   0.363   7.008   8.882 -0.7103 -0.3697 -0.0318
   36POPC   C33 4862   0.448   6.923  10.219  0.7020  0.9324  0.3854
   36POPC   H3X 4863   0.348   6.957  10.253 -0.8560 -2.2239 -0.8821
   36POPC   H3Y 4864   0.446   6.816  10.249 -0.2675  0.6619 -0.5987
   36POPC   C34 4865   0.437   6.937  10.065 -0.6584  0.0260 -0.2152
   36POPC   H4X 4866   0.542   6.923  10.031 -0.7231  0.8245 -0.7679
   36POPC   H4Y 4867   0.412   7.043  10.044  3.2128  0.9070 -0.8880
   36POPC   C35 4868   0.339   6.842   9.998  0.5416  0.6548  0.3356
   36POPC   H5X 4869   0.244   6.829  10.053 -0.1133 -0.0971 -0.9631
   36POPC   H5Y 4870   0.381   6.740   9.986 -2.0117 -0.4737  0.8201
   36POPC   C36 4871   0.300   6.890   9.855  0.0537 -0.1202  0.9467
   36POPC   H6X 4872   0.389   6.883   9.790 -1.1162  0.4820 -0.7492
   36POPC   H6Y 4873   0.256   6.992   9.856  0.0355 -0.1070 -0.1808
   36POPC   C37 4874   0.199   6.793   9.776 -0.1576  0.6708 -0.4032
   36POPC   H7X 4875   0.110   6.789   9.842  0.9405  1.1166  1.1478
   36POPC   H7Y 4876   0.254   6.697   9.768  1.2857  1.4794 -0.4725
   36POPC   C38 4877   0.164   6.841   9.633 -0.1312  0.0824  0.1464
   36POPC   H8X 4878   0.264   6.841   9.586  0.3931 -2.4642  1.2058
   36POPC   H8Y 4879   0.112   6.940   9.634 -2.8099 -1.2686  2.5610
   36POPC   C39 4880   0.071   6.742   9.571  0.3046 -0.0956  0.8081
   36POPC   H9X 4881  -0.015   6.729   9.640  0.6737 -1.3530  1.0526
   36POPC   H9Y 4882   0.106   6.638   9.590 -2.2566 -0.9362  1.1775
   36POPC  C310 4883   0.040   6.789   9.427 -0.1275  0.2263 -0.6417
   36POPC  H10X 4884   0.125   6.753   9.364  0.2385 -0.7087  0.3688
   36POPC  H10Y 4885   0.049   6.899   9.421  1.2384  0.1575 -0.1179
   36POPC  C311 4886  -0.082   6.719   9.368 -0.4108 -0.0018 -0.5591
   36POPC  H11X 4887  -0.173   6.738   9.430 -1.5604 -0.4094 -2.0915
   36POPC  H11Y 4888  -0.053   6.612   9.364  0.2114  0.1687 -0.5896
   36POPC  C312 4889  -0.123   6.772   9.229  0.5583 -0.4773  0.2965
   36POPC  H12X 4890  -0.108   6.881   9.239 -0.2814 -0.1648 -1.6236
   36POPC  H12Y 4891  -0.232   6.752   9.216  0.1639  1.4414  0.5532
   36POPC  C313 4892  -0.047   6.721   9.110 -0.8688  0.1562  0.0778
   36POPC  H13X 4893  -0.032   6.611   9.116 -2.7175 -0.2626 -2.2748
   36POPC  H13Y 4894   0.059   6.755   9.113 -0.2431 -1.8339  1.6722
   36POPC  C314 4895  -0.110   6.739   8.980 -0.4240 -0.2888 -0.5333
   36POPC  H14X 4896  -0.125   6.844   8.946  3.2701  0.5734  0.3185
   36POPC  H14Y 4897  -0.211   6.692   8.975  0.0311 -1.1974 -1.2541
   36POPC  C315 4898  -0.031   6.673   8.862  0.4340 -0.3836 -0.2901
   36POPC  H15X 4899   0.073   6.693   8.894 -0.6161 -0.9363  3.6998
   36POPC  H15Y 4900  -0.058   6.732   8.771  0.9988  0.5163  0.1226
   36POPC  C316 4901  -0.054   6.532   8.822 -0.2936 -0.4271 -0.0802
   36POPC  H16X 4902  -0.047   6.462   8.908 -2.7010 -0.9339 -0.2647
   36POPC  H16Y 4903   0.014   6.501   8.740  0.1196  0.0182  0.0949
   36POPC  H16Z 4904  -0.160   6.526   8.788 -0.3750  2.3437 -0.4154
   37POPC     N 4905   5.664   1.725   6.577  0.9215  0.3820  0.4339
   37POPC   C12 4906   5.814   1.734   6.534 -0.1962 -0.9873  0.5124
   37POPC  H12A 4907   5.823   1.745   6.427  0.9965  2.4064  0.9057
   37POPC  H12B 4908   5.861   1.639   6.556 -0.1042 -1.8569 -3.1967
   37POPC   C13 4909   5.660   1.708   6.721 -0.1032  0.1685  0.0214
   37POPC  H13A 4910   5.684   1.606   6.750  1.8291  0.1224 -1.5925
   37POPC  H13B 4911   5.733   1.776   6.764  1.6865 -2.2539  0.9509
   37POPC  H13C 4912   5.562   1.731   6.759  1.0427  2.0536  1.9439
   37POPC   C14 4913   5.595   1.849   6.535 -0.6338 -0.2416  0.2255
   37POPC  H14A 4914   5.490   1.844   6.557 -1.1723  0.3227 -2.0615
   37POPC  H14B 4915   5.637   1.937   6.583  0.5589 -1.9408  2.3594
   37POPC  H14C 4916   5.596   1.869   6.429 -0.8548 -1.6385 -0.0428
   37POPC   C15 4917   5.601   1.598   6.521  0.3588 -0.1854  0.0942
   37POPC  H15A 4918   5.668   1.518   6.548 -0.4383 -0.5852  0.8957
   37POPC  H15B 4919   5.600   1.608   6.414  0.7695 -2.1329 -0.0957
   37POPC  H15C 4920   5.503   1.578   6.560  1.4412 -1.4495  2.2834
   37POPC   C11 4921   5.888   1.847   6.605  0.4552 -0.8459  0.3071
   37POPC  H11A 4922   5.827   1.940   6.610 -1.9042 -2.3257 -0.4490
   37POPC  H11B 4923   5.976   1.879   6.544  1.4541  0.4063  2.3554
   37POPC     P 4924   6.074   1.756   6.758 -0.1650 -0.1295 -0.1532
   37POPC   O13 4925   6.159   1.876   6.760 -0.7924  0.0338  0.2172
   37POPC   O14 4926   6.094   1.652   6.653  0.0500 -0.4070 -0.0715
   37POPC   O12 4927   5.927   1.812   6.735  0.4223  0.0460 -0.1266
   37POPC   O11 4928   6.068   1.693   6.903 -0.4807 -0.1603 -0.3110
   37POPC    C1 4929   6.172   1.718   7.004  0.2260 -0.3904  1.2984
   37POPC    HA 4930   6.264   1.762   6.961 -1.4865  1.6360 -0.4223
   37POPC    HB 4931   6.191   1.619   7.051  2.3044 -2.1740 -2.9998
   37POPC    C2 4932   6.109   1.817   7.104  0.1940 -0.2748  0.4717
   37POPC    HS 4933   6.120   1.918   7.061 -1.1830  0.1818  1.1646
   37POPC   O21 4934   6.184   1.805   7.228  0.6129  0.5365  0.1625
   37POPC   C21 4935   6.299   1.861   7.230  0.7066 -0.0248 -0.2517
   37POPC   O22 4936   6.343   1.942   7.149  0.3844  0.2037  0.6440
   37POPC   C22 4937   6.376   1.817   7.354 -1.0280  0.1307 -0.2657
   37POPC   H2R 4938   6.467   1.769   7.312 -1.8900 -0.9901 -0.8981
   37POPC   H2S 4939   6.315   1.745   7.412  0.6837 -2.2416 -1.3208
   37POPC    C3 4940   5.959   1.787   7.136 -0.3986 -0.4872 -0.2930
   37POPC    HX 4941   5.960   1.682   7.174  2.1646 -0.7441 -0.9613
   37POPC    HY 4942   5.900   1.797   7.043  0.4132  2.5762 -0.5293
   37POPC   O31 4943   5.909   1.876   7.237  0.0575  0.0054 -0.1332
   37POPC   C31 4944   5.782   1.874   7.267  0.5569  0.3357 -0.6812
   37POPC   O32 4945   5.704   1.802   7.204 -0.1219 -0.4073  0.1423
   37POPC   C32 4946   5.751   1.951   7.398 -0.0665  0.1738 -0.1471
   37POPC   H2X 4947   5.779   2.059   7.399 -1.7708  0.6386  1.5589
   37POPC   H2Y 4948   5.814   1.903   7.476 -0.1502  1.8409  0.9707
   37POPC   C23 4949   6.410   1.937   7.441 -0.1555 -0.0365  0.2173
   37POPC   H3R 4950   6.322   2.003   7.454 -1.0926 -1.3867  0.7832
   37POPC   H3S 4951   6.482   2.004   7.390  0.3325  0.6611  1.7929
   37POPC   C24 4952   6.461   1.914   7.589 -0.3752  0.3820  0.8348
   37POPC   H4R 4953   6.561   1.866   7.584 -0.4291  0.5683 -3.8404
   37POPC   H4S 4954   6.384   1.844   7.629 -0.0961 -0.2205  0.3217
   37POPC   C25 4955   6.462   2.035   7.677 -0.8859  0.2143  0.2143
   37POPC   H5R 4956   6.374   2.102   7.662 -1.8225 -0.9118  0.5894
   37POPC   H5S 4957   6.550   2.087   7.635 -0.7442  1.2337  1.7326
   37POPC   C26 4958   6.478   1.996   7.827  0.2105  0.2343  0.5231
   37POPC   H6R 4959   6.426   1.900   7.844 -1.4589  1.0605  0.1854
   37POPC   H6S 4960   6.417   2.071   7.883  0.8342  1.2402 -0.1290
   37POPC   C27 4961   6.624   1.994   7.878 -0.2307  0.4266  0.3921
   37POPC   H7R 4962   6.657   2.098   7.857 -1.1451  0.4449 -1.0249
   37POPC   H7S 4963   6.677   1.915   7.820  0.7557 -0.5161  2.4923
   37POPC   C28 4964   6.647   1.956   8.029 -0.0212  0.1333 -0.9338
   37POPC   H8R 4965   6.744   1.902   8.036  0.3304  0.5853 -2.3151
   37POPC   H8S 4966   6.562   1.893   8.065  0.6990 -1.1964 -1.5246
   37POPC   C29 4967   6.649   2.079   8.119  0.1611  0.2319 -0.1234
   37POPC   H91 4968   6.558   2.138   8.103  0.9450  1.3730 -0.4651
   37POPC  C210 4969   6.737   2.118   8.210 -0.0212 -0.1623 -0.0851
   37POPC  H101 4970   6.706   2.199   8.277  1.5263  0.5585 -0.2062
   37POPC  C211 4971   6.869   2.061   8.253  0.4908 -0.1545 -0.5116
   37POPC  H11R 4972   6.902   1.980   8.183 -0.0834  0.1622 -1.1557
   37POPC  H11S 4973   6.865   2.027   8.358 -0.6233  3.3842  0.6603
   37POPC  C212 4974   6.973   2.175   8.242 -0.0578  0.5520  0.1593
   37POPC  H12R 4975   7.053   2.134   8.307  1.3877  0.4160 -1.6795
   37POPC  H12S 4976   6.939   2.268   8.293 -0.1175  0.2900  0.6035
   37POPC  C213 4977   7.019   2.207   8.103  0.1330  0.0817  0.0338
   37POPC  H13R 4978   6.951   2.264   8.035 -0.5315 -2.2918 -1.3623
   37POPC  H13S 4979   7.051   2.128   8.032 -1.3129 -1.1527  0.7382
   37POPC  C214 4980   7.143   2.299   8.111 -0.4761  0.0207 -0.2675
   37POPC  H14R 4981   7.205   2.283   8.019 -0.4257 -0.3315 -0.1744
   37POPC  H14S 4982   7.195   2.256   8.199 -0.9869 -1.2052 -0.5433
   37POPC  C215 4983   7.116   2.446   8.121 -0.2688 -0.8461  0.6038
   37POPC  H15R 4984   7.055   2.474   8.209  1.2284  1.3025  0.9927
   37POPC  H15S 4985   7.062   2.487   8.032 -0.5984  1.8218  1.9847
   37POPC  C216 4986   7.249   2.516   8.143 -0.2205 -0.0531 -0.4744
   37POPC  H16R 4987   7.320   2.481   8.065  1.5189  0.7536  0.7128
   37POPC  H16S 4988   7.275   2.498   8.249  3.2650  2.4331 -0.8142
   37POPC  C217 4989   7.243   2.673   8.127  0.2407  0.0629 -0.2087
   37POPC  H17R 4990   7.333   2.720   8.173 -0.0507  1.1629 -0.7357
   37POPC  H17S 4991   7.156   2.705   8.188 -1.5229 -1.4389 -1.8897
   37POPC  C218 4992   7.225   2.723   7.982  0.3578  0.1598 -0.4423
   37POPC  H18R 4993   7.222   2.833   7.970  1.3950  0.4149  1.5365
   37POPC  H18S 4994   7.133   2.676   7.941 -2.1095  3.0937  1.5563
   37POPC  H18T 4995   7.310   2.693   7.916 -0.3735  0.7169 -1.6555
   37POPC   C33 4996   5.602   1.948   7.432  0.1265 -0.1879 -0.2691
   37POPC   H3X 4997   5.558   1.846   7.429  1.5516 -0.7965 -0.8150
   37POPC   H3Y 4998   5.540   2.016   7.370 -1.2657 -0.5636  0.6890
   37POPC   C34 4999   5.587   2.005   7.572 -0.2750 -0.4178 -0.1018
   37POPC   H4X 5000   5.481   2.013   7.607 -0.6427 -0.3016 -1.2322
   37POPC   H4Y 5001   5.633   2.106   7.573 -0.5331 -0.2900 -1.2465
   37POPC   C35 5002   5.648   1.906   7.675  0.1003 -0.4039 -0.3885
   37POPC   H5X 5003   5.759   1.901   7.669  0.3594  2.1135  1.4011
   37POPC   H5Y 5004   5.618   1.803   7.647 -0.9036  1.0334 -4.9955
   37POPC   C36 5005   5.612   1.940   7.820 -0.4178 -0.0944 -0.0938
   37POPC   H6X 5006   5.512   1.899   7.845 -0.9928  2.2157  1.5335
   37POPC   H6Y 5007   5.607   2.050   7.837  0.2476 -0.2047  0.8567
   37POPC   C37 5008   5.730   1.888   7.913 -0.0469  0.1372  0.5469
   37POPC   H7X 5009   5.827   1.931   7.880 -0.6342 -0.2480 -1.7981
   37POPC   H7Y 5010   5.724   1.778   7.901  0.9340  0.2335 -0.9384
   37POPC   C38 5011   5.695   1.923   8.056 -0.1713 -0.4419 -0.2150
   37POPC   H8X 5012   5.588   1.912   8.084  0.5777 -0.1387  2.8793
   37POPC   H8Y 5013   5.723   2.028   8.076  0.3026 -0.2828 -1.6046
   37POPC   C39 5014   5.782   1.835   8.148 -0.1368  0.4154  0.8605
   37POPC   H9X 5015   5.885   1.843   8.105  0.0587 -0.8266  1.0695
   37POPC   H9Y 5016   5.749   1.729   8.143  2.6650 -0.4968  0.8129
   37POPC  C310 5017   5.779   1.870   8.295 -0.9567 -0.7002  0.3347
   37POPC  H10X 5018   5.671   1.870   8.324 -1.0799 -1.5346 -0.1066
   37POPC  H10Y 5019   5.825   1.971   8.297  0.1544 -1.2153  1.9343
   37POPC  C311 5020   5.857   1.762   8.372 -0.6603 -0.8761  0.0066
   37POPC  H11X 5021   5.948   1.741   8.310  0.7147  2.0543  0.9572
   37POPC  H11Y 5022   5.807   1.664   8.386 -4.0014  0.6136 -1.0418
   37POPC  C312 5023   5.896   1.825   8.509 -0.3971  0.3893  0.3883
   37POPC  H12X 5024   5.797   1.845   8.555  0.2646  2.2371  1.0324
   37POPC  H12Y 5025   5.949   1.920   8.484  0.9110 -0.0022  1.6378
   37POPC  C313 5026   5.978   1.747   8.607 -0.0709  0.0823 -0.9940
   37POPC  H13X 5027   6.084   1.723   8.584 -0.8336 -3.2993 -1.2511
   37POPC  H13Y 5028   5.937   1.644   8.609  0.0128  0.0207 -2.1346
   37POPC  C314 5029   5.986   1.811   8.746 -0.1923  0.1712  0.5276
   37POPC  H14X 5030   6.012   1.743   8.829 -1.2156 -0.3533  0.4181
   37POPC  H14Y 5031   5.883   1.837   8.778 -1.2852 -2.9733 -0.2824
   37POPC  C315 5032   6.079   1.930   8.741  0.3988 -0.2326 -0.0028
   37POPC  H15X 5033   6.040   2.015   8.680 -3.0272 -0.9005  1.1946
   37POPC  H15Y 5034   6.173   1.897   8.692  2.8730  1.0806  3.6675
   37POPC  C316 5035   6.098   1.994   8.878 -0.6825  0.1621  0.1440
   37POPC  H16X 5036   6.182   2.067   8.877 -1.5639  1.2134  1.2769
   37POPC  H16Y 5037   6.110   1.911   8.952  0.8384 -0.1733 -0.4503
   37POPC  H16Z 5038   6.007   2.053   8.903 -1.0476 -0.8164  1.1886
   38POPC     N 5039   0.921   5.929   5.939 -0.6488 -0.7386 -0.0402
   38POPC   C12 5040   0.929   5.874   6.080 -0.0543 -0.4637  0.3185
   38POPC  H12A 5041   0.836   5.832   6.115 -0.7716  0.7272 -0.1494
   38POPC  H12B 5042   0.926   5.959   6.146 -0.7616 -0.2289 -0.0086
   38POPC   C13 5043   0.804   6.027   5.937  0.1979 -0.1403 -0.3154
   38POPC  H13A 5044   0.829   6.119   5.988  1.7347 -1.3858  1.2522
   38POPC  H13B 5045   0.775   6.042   5.834  2.9502  0.6252 -1.0364
   38POPC  H13C 5046   0.723   5.972   5.982  0.6573  1.3345  2.4760
   38POPC   C14 5047   1.047   6.005   5.909 -0.1278  0.1783 -0.0458
   38POPC  H14A 5048   1.030   6.070   5.824  1.4439  0.5595 -0.0869
   38POPC  H14B 5049   1.078   6.066   5.993  2.0325 -0.5701 -0.2489
   38POPC  H14C 5050   1.129   5.938   5.887  1.0895  1.7375 -0.4019
   38POPC   C15 5051   0.901   5.821   5.836 -0.1380  0.6616 -0.5592
   38POPC  H15A 5052   0.805   5.773   5.848  1.5206 -2.8631 -0.7193
   38POPC  H15B 5053   0.983   5.751   5.843  0.3110  1.2981  0.7670
   38POPC  H15C 5054   0.906   5.863   5.737 -1.2322  1.0518 -0.4586
   38POPC   C11 5055   1.042   5.771   6.121  0.0986  0.1915  0.3763
   38POPC  H11A 5056   1.042   5.707   6.029 -1.1217 -1.7068  1.6441
   38POPC  H11B 5057   0.998   5.713   6.205  0.8095  0.8558  1.2126
   38POPC     P 5058   1.210   5.886   6.284  0.4591  0.1810 -0.7441
   38POPC   O13 5059   1.168   6.027   6.278  0.0803 -0.3170  0.0396
   38POPC   O14 5060   1.358   5.859   6.315  0.5133 -0.1643 -0.3279
   38POPC   O12 5061   1.171   5.818   6.147 -0.2883 -0.3517  0.4252
   38POPC   O11 5062   1.120   5.817   6.399 -0.0630 -0.0512  0.3609
   38POPC    C1 5063   1.130   5.677   6.422 -0.0841  0.1046  0.2603
   38POPC    HA 5064   1.204   5.628   6.355 -1.8754 -1.7808 -0.3764
   38POPC    HB 5065   1.029   5.638   6.398  0.5642 -0.6885 -1.2756
   38POPC    C2 5066   1.173   5.651   6.569 -0.3507 -0.2436 -0.8387
   38POPC    HS 5067   1.183   5.544   6.597 -0.0038  0.4307  1.7458
   38POPC   O21 5068   1.082   5.702   6.665  0.3284  0.3495  0.4203
   38POPC   C21 5069   0.957   5.661   6.664  0.2766  0.0639  0.1769
   38POPC   O22 5070   0.915   5.567   6.603  1.1491  0.1985  0.4652
   38POPC   C22 5071   0.869   5.746   6.758 -0.1799 -0.0364  0.9621
   38POPC   H2R 5072   0.794   5.811   6.708  0.0854 -0.1614  0.3945
   38POPC   H2S 5073   0.931   5.809   6.825  1.0421  0.1403 -0.3079
   38POPC    C3 5074   1.317   5.704   6.604  0.0059 -0.3646 -0.0276
   38POPC    HX 5075   1.298   5.810   6.631  0.1525 -0.4300  0.3289
   38POPC    HY 5076   1.385   5.691   6.517  0.0331 -2.8213  0.3233
   38POPC   O31 5077   1.370   5.632   6.716  0.2826  0.7890 -0.0583
   38POPC   C31 5078   1.495   5.673   6.746  0.1469 -0.3864 -0.3637
   38POPC   O32 5079   1.563   5.739   6.676 -0.3213 -0.0349  0.2210
   38POPC   C32 5080   1.536   5.618   6.881 -0.4999  0.2492  0.2538
   38POPC   H2X 5081   1.513   5.509   6.869  2.4320 -0.3642 -0.0900
   38POPC   H2Y 5082   1.466   5.660   6.957 -0.0046  0.2896  0.6896
   38POPC   C23 5083   0.783   5.650   6.847  0.1984  0.1995  0.0846
   38POPC   H3R 5084   0.757   5.549   6.808  0.3503 -0.6907  2.2375
   38POPC   H3S 5085   0.684   5.701   6.850 -1.5277 -2.8051 -2.1119
   38POPC   C24 5086   0.838   5.636   6.991  0.2627  0.2718  0.1648
   38POPC   H4R 5087   0.756   5.605   7.059 -1.0709  2.0495 -0.5828
   38POPC   H4S 5088   0.864   5.742   7.009  1.2637  0.5501 -2.6299
   38POPC   C25 5089   0.959   5.548   7.000  0.1230 -0.2672 -0.0116
   38POPC   H5R 5090   1.040   5.596   6.941 -0.4957 -1.0143 -1.4951
   38POPC   H5S 5091   0.933   5.452   6.951  0.5076 -0.7674  0.7559
   38POPC   C26 5092   1.014   5.531   7.139  0.6263 -0.6458 -0.4531
   38POPC   H6R 5093   0.945   5.470   7.201  1.2195 -0.0215  0.8560
   38POPC   H6S 5094   1.005   5.634   7.181  4.6392  0.2558 -1.6053
   38POPC   C27 5095   1.162   5.495   7.142  0.1225 -0.3285  0.2552
   38POPC   H7R 5096   1.223   5.573   7.091 -0.0252  1.1803  2.3244
   38POPC   H7S 5097   1.171   5.403   7.081  0.3389  0.2678 -0.6214
   38POPC   C28 5098   1.215   5.454   7.276 -0.4259  0.2449 -0.4115
   38POPC   H8R 5099   1.320   5.421   7.260  0.4247  3.1061 -1.0765
   38POPC   H8S 5100   1.165   5.366   7.323  0.1296  0.2583  0.2198
   38POPC   C29 5101   1.201   5.562   7.371 -0.5865  0.1381  0.0989
   38POPC   H91 5102   1.182   5.659   7.324 -1.4088 -0.2682 -0.4148
   38POPC  C210 5103   1.211   5.564   7.506  0.4749  1.0856 -0.3487
   38POPC  H101 5104   1.191   5.654   7.567  1.4169 -0.8555  2.9687
   38POPC  C211 5105   1.252   5.440   7.591 -0.4516  0.2723  1.0133
   38POPC  H11R 5106   1.311   5.370   7.529  0.4900  1.5858  0.4012
   38POPC  H11S 5107   1.163   5.379   7.616 -0.8579 -0.7149 -2.5912
   38POPC  C212 5108   1.329   5.485   7.713  0.6932 -1.0178 -0.8443
   38POPC  H12R 5109   1.395   5.571   7.690  0.3656 -0.0770  1.5247
   38POPC  H12S 5110   1.396   5.405   7.750  0.3885 -0.7832  0.2585
   38POPC  C213 5111   1.230   5.514   7.828  0.5008 -0.3487  0.6487
   38POPC  H13R 5112   1.198   5.410   7.854  0.7023 -0.1662  1.6549
   38POPC  H13S 5113   1.138   5.569   7.798  0.6754  0.2155  1.1382
   38POPC  C214 5114   1.286   5.591   7.949  0.3808 -0.0798  0.1543
   38POPC  H14R 5115   1.303   5.695   7.915  0.1561 -0.4725 -1.1932
   38POPC  H14S 5116   1.388   5.548   7.960  1.6456  2.3170 -1.7413
   38POPC  C215 5117   1.201   5.584   8.071 -0.0414  0.4904 -0.1227
   38POPC  H15R 5118   1.196   5.479   8.107  1.4639  0.2249 -0.6083
   38POPC  H15S 5119   1.095   5.606   8.049 -1.2413 -2.0054  2.8576
   38POPC  C216 5120   1.249   5.669   8.191  0.1539  0.7273  1.1402
   38POPC  H16R 5121   1.160   5.692   8.255 -1.9971  0.5472 -1.6749
   38POPC  H16S 5122   1.275   5.767   8.147 -1.9356  1.2966  1.0926
   38POPC  C217 5123   1.364   5.626   8.271  0.0387 -0.4348 -0.0517
   38POPC  H17R 5124   1.439   5.610   8.190 -1.4096  0.6420 -1.6500
   38POPC  H17S 5125   1.338   5.528   8.316 -0.4230  0.0552  0.7434
   38POPC  C218 5126   1.406   5.726   8.371 -0.4737  0.6279  0.4483
   38POPC  H18R 5127   1.512   5.714   8.402 -0.0131 -0.5041 -1.5114
   38POPC  H18S 5128   1.353   5.716   8.468 -0.0380 -0.3465  0.5827
   38POPC  H18T 5129   1.407   5.828   8.325 -0.2835  0.8352  0.9002
   38POPC   C33 5130   1.684   5.632   6.930  0.1199  0.5662  0.2956
   38POPC   H3X 5131   1.713   5.737   6.953 -0.7243  0.5147  1.6197
   38POPC   H3Y 5132   1.743   5.591   6.845 -0.5889  1.9978 -0.9069
   38POPC   C34 5133   1.721   5.538   7.047 -0.5632  0.4165  0.0542
   38POPC   H4X 5134   1.832   5.541   7.044 -0.5095 -0.5279  0.7795
   38POPC   H4Y 5135   1.692   5.434   7.021  1.8123 -0.8872  2.3144
   38POPC   C35 5136   1.663   5.576   7.178  0.9453  0.2227  0.5155
   38POPC   H5X 5137   1.553   5.558   7.173  1.3979 -2.6626 -0.1910
   38POPC   H5Y 5138   1.677   5.682   7.206  0.9203 -0.0799  1.6895
   38POPC   C36 5139   1.712   5.482   7.291 -0.1891  0.1730  0.1795
   38POPC   H6X 5140   1.822   5.495   7.308 -0.8316  4.4851  1.9161
   38POPC   H6Y 5141   1.696   5.379   7.254  1.5911  0.2310 -0.8237
   38POPC   C37 5142   1.669   5.504   7.435 -0.2062 -0.1613 -0.0997
   38POPC   H7X 5143   1.628   5.407   7.472  2.2742 -1.1795  0.0525
   38POPC   H7Y 5144   1.579   5.569   7.429 -0.5469 -0.5194  1.0680
   38POPC   C38 5145   1.775   5.562   7.530  0.0963 -0.5502  0.2903
   38POPC   H8X 5146   1.790   5.667   7.496 -0.7922 -0.2633  0.7623
   38POPC   H8Y 5147   1.866   5.498   7.526  0.9456  0.6063  0.5126
   38POPC   C39 5148   1.732   5.579   7.678 -0.4773 -0.5414 -0.1195
   38POPC   H9X 5149   1.705   5.483   7.727 -1.8966  0.8823  1.9711
   38POPC   H9Y 5150   1.654   5.659   7.683  0.4744  0.4321 -0.5667
   38POPC  C310 5151   1.843   5.624   7.774  0.0502  0.7038 -0.2346
   38POPC  H10X 5152   1.871   5.729   7.749  1.2101  0.9442  1.9491
   38POPC  H10Y 5153   1.927   5.553   7.759  0.7899  1.3981  0.5213
   38POPC  C311 5154   1.811   5.601   7.927 -0.4824 -0.0274  0.3418
   38POPC  H11X 5155   1.829   5.494   7.949 -1.0768 -0.2280 -0.1441
   38POPC  H11Y 5156   1.701   5.602   7.942 -0.8458 -2.5847 -1.7948
   38POPC  C312 5157   1.889   5.698   8.014 -0.2311  0.6701 -0.1695
   38POPC  H12X 5158   1.884   5.801   7.972 -2.6760 -0.3806 -2.6257
   38POPC  H12Y 5159   1.997   5.671   8.012  0.2150  2.4115 -2.1224
   38POPC  C313 5160   1.825   5.702   8.154 -0.3805  0.2288  0.2442
   38POPC  H13X 5161   1.815   5.602   8.201 -0.9012  0.0848 -0.1674
   38POPC  H13Y 5162   1.721   5.738   8.139 -0.1381 -0.0653 -2.5033
   38POPC  C314 5163   1.887   5.800   8.256  0.0717 -0.4363 -0.3486
   38POPC  H14X 5164   1.854   5.901   8.222 -0.3180 -0.1981  0.7324
   38POPC  H14Y 5165   1.998   5.795   8.259  0.0325 -1.3078 -0.2909
   38POPC  C315 5166   1.816   5.795   8.396  0.8945  0.2752 -0.0802
   38POPC  H15X 5167   1.707   5.803   8.376  0.6648  0.8464  1.3242
   38POPC  H15Y 5168   1.853   5.883   8.452 -0.2661 -0.0168  1.1561
   38POPC  C316 5169   1.850   5.674   8.472 -0.1262  0.6377 -0.5119
   38POPC  H16X 5170   1.816   5.578   8.427  0.2387  0.8017 -1.1376
   38POPC  H16Y 5171   1.803   5.669   8.573 -0.7491 -1.0756 -0.8603
   38POPC  H16Z 5172   1.960   5.666   8.483 -0.5272 -2.3340  2.1426
   39POPC     N 5173   4.923   3.013   6.086 -0.1686  0.5189  0.4155
   39POPC   C12 5174   4.817   3.006   6.202  0.7521 -0.8784 -0.2199
   39POPC  H12A 5175   4.723   2.979   6.156  0.7256  0.8494 -1.2286
   39POPC  H12B 5176   4.801   3.105   6.241 -0.2965 -1.1405  0.0273
   39POPC   C13 5177   4.869   3.104   5.987 -0.3429 -1.1860 -0.2876
   39POPC  H13A 5178   4.929   3.127   5.900 -2.7713 -0.6899 -1.8847
   39POPC  H13B 5179   4.772   3.066   5.959 -0.1821 -2.5336  0.9052
   39POPC  H13C 5180   4.844   3.197   6.036  0.5058 -1.0636 -0.0763
   39POPC   C14 5181   5.055   3.070   6.135  0.8244 -0.7761 -0.3042
   39POPC  H14A 5182   5.120   3.095   6.053 -0.3973  0.9767 -0.7655
   39POPC  H14B 5183   5.046   3.163   6.189  1.9027 -0.1722 -1.1509
   39POPC  H14C 5184   5.113   3.001   6.196  3.3447 -0.5892 -2.4007
   39POPC   C15 5185   4.943   2.881   6.022 -0.1351 -0.6726 -0.2911
   39POPC  H15A 5186   4.969   2.797   6.085 -0.7374 -2.1478 -1.9605
   39POPC  H15B 5187   5.011   2.889   5.939 -0.5937 -0.6749 -0.6727
   39POPC  H15C 5188   4.845   2.852   5.986 -1.1703  1.7343  0.4782
   39POPC   C11 5189   4.854   2.923   6.330 -0.3174 -0.7610  0.0172
   39POPC  H11A 5190   4.950   2.959   6.374 -0.0206 -0.2135 -1.0486
   39POPC  H11B 5191   4.876   2.820   6.296  1.9933 -0.3258  0.0858
   39POPC     P 5192   4.619   2.820   6.391  0.3253 -0.2940  0.1447
   39POPC   O13 5193   4.584   2.842   6.244  0.4557 -0.0472 -0.4827
   39POPC   O14 5194   4.513   2.833   6.498 -0.2841  0.0236  0.3725
   39POPC   O12 5195   4.742   2.917   6.418  0.4317 -0.1005 -0.0074
   39POPC   O11 5196   4.673   2.671   6.405 -0.3730 -0.4323  0.4586
   39POPC    C1 5197   4.800   2.629   6.459 -0.0718 -0.3815  0.5258
   39POPC    HA 5198   4.857   2.706   6.516 -1.6480  1.2043  0.0314
   39POPC    HB 5199   4.862   2.581   6.380  0.3778 -0.0661  0.6806
   39POPC    C2 5200   4.779   2.526   6.576 -0.1510  0.5258 -0.2920
   39POPC    HS 5201   4.726   2.439   6.532  1.9599 -0.2718 -1.3384
   39POPC   O21 5202   4.707   2.592   6.682  0.0567  0.1035  0.4856
   39POPC   C21 5203   4.588   2.549   6.706  0.3674  0.7617 -0.8650
   39POPC   O22 5204   4.540   2.449   6.651 -0.4337 -0.2087  0.1147
   39POPC   C22 5205   4.541   2.632   6.827 -0.6736  0.2052  0.5392
   39POPC   H2R 5206   4.431   2.616   6.837 -0.6256  0.1949  1.0557
   39POPC   H2S 5207   4.572   2.738   6.814  1.1124 -0.2093  1.3637
   39POPC    C3 5208   4.911   2.460   6.632  0.4972 -0.4104  0.7096
   39POPC    HX 5209   4.980   2.535   6.674  0.2450  0.0621  0.2922
   39POPC    HY 5210   4.954   2.409   6.543  2.6904 -1.7191  2.4919
   39POPC   O31 5211   4.867   2.363   6.733 -0.1025  1.1372  0.4540
   39POPC   C31 5212   4.962   2.305   6.797 -0.1705  0.4332  0.0725
   39POPC   O32 5213   5.077   2.294   6.765  0.5042  0.2350  0.4256
   39POPC   C32 5214   4.905   2.253   6.935 -0.1893 -0.3170  0.2667
   39POPC   H2X 5215   4.798   2.225   6.921 -0.3875  0.3181  0.5062
   39POPC   H2Y 5216   4.969   2.165   6.954  1.2203  1.2766  3.1843
   39POPC   C23 5217   4.597   2.592   6.965 -0.2375 -0.3846 -0.9442
   39POPC   H3R 5218   4.708   2.598   6.953 -0.2589 -0.2146 -1.0527
   39POPC   H3S 5219   4.566   2.491   7.000 -0.8536  0.2685  0.4127
   39POPC   C24 5220   4.551   2.688   7.076 -0.3456 -0.2424 -0.7656
   39POPC   H4R 5221   4.440   2.690   7.086 -0.3680  1.5871 -1.2168
   39POPC   H4S 5222   4.584   2.792   7.054  0.2383  0.0094  1.1899
   39POPC   C25 5223   4.612   2.652   7.213 -0.0760 -0.5322  0.5008
   39POPC   H5R 5224   4.719   2.681   7.212  0.2606 -1.7644 -0.4650
   39POPC   H5S 5225   4.597   2.542   7.221  0.7003 -0.6973 -0.2017
   39POPC   C26 5226   4.548   2.733   7.331 -0.6118  0.0090 -0.4540
   39POPC   H6R 5227   4.543   2.840   7.301  1.3456  0.2939  0.1935
   39POPC   H6S 5228   4.625   2.724   7.410 -1.2704 -1.1502  0.0705
   39POPC   C27 5229   4.413   2.670   7.369 -0.7689  0.0952 -0.0406
   39POPC   H7R 5230   4.424   2.564   7.339 -0.2204 -0.2562  1.3883
   39POPC   H7S 5231   4.332   2.714   7.307 -0.5173 -0.8136 -1.0250
   39POPC   C28 5232   4.384   2.669   7.520  0.0426  0.3364 -0.2983
   39POPC   H8R 5233   4.475   2.670   7.585 -0.9223  1.7925  1.0692
   39POPC   H8S 5234   4.332   2.576   7.552 -0.4967  0.9213  0.5606
   39POPC   C29 5235   4.270   2.767   7.555 -0.1886 -0.4561 -0.5156
   39POPC   H91 5236   4.175   2.775   7.500 -0.8336  2.4262  0.8963
   39POPC  C210 5237   4.283   2.855   7.660  0.5513 -0.3520  0.8027
   39POPC  H101 5238   4.193   2.917   7.676 -0.3830 -1.1201 -1.2140
   39POPC  C211 5239   4.396   2.863   7.754 -0.5663  0.1997 -0.6288
   39POPC  H11R 5240   4.410   2.973   7.765  3.0451 -0.3772  1.3488
   39POPC  H11S 5241   4.492   2.825   7.714  0.5357 -0.0113  2.1021
   39POPC  C212 5242   4.373   2.800   7.891  0.0953  0.2277 -0.0426
   39POPC  H12R 5243   4.447   2.860   7.949  1.9969 -0.2791 -1.8646
   39POPC  H12S 5244   4.386   2.690   7.888 -2.1503 -0.0839  1.1141
   39POPC  C213 5245   4.233   2.818   7.957  0.1468  0.0749 -0.4395
   39POPC  H13R 5246   4.160   2.766   7.893  0.3964  0.4606 -1.0409
   39POPC  H13S 5247   4.210   2.927   7.962  1.2182  0.2865  0.0951
   39POPC  C214 5248   4.216   2.739   8.094  0.9253  0.1180 -0.4285
   39POPC  H14R 5249   4.253   2.634   8.088 -1.5001 -0.7827 -0.2110
   39POPC  H14S 5250   4.108   2.727   8.117  1.2202 -0.8580  0.4687
   39POPC  C215 5251   4.300   2.803   8.204  0.9010 -0.0911 -0.9392
   39POPC  H15R 5252   4.272   2.910   8.220  0.0977 -0.4837  0.3103
   39POPC  H15S 5253   4.410   2.798   8.191  0.8913  0.1530 -1.1278
   39POPC  C216 5254   4.285   2.733   8.339  0.0249  0.9596  0.0287
   39POPC  H16R 5255   4.306   2.625   8.330 -0.3656  0.7852  1.1268
   39POPC  H16S 5256   4.181   2.743   8.378  0.5962  1.5090  1.4481
   39POPC  C217 5257   4.368   2.790   8.454  0.1763 -0.0018  0.2833
   39POPC  H17R 5258   4.343   2.897   8.466 -1.2039  0.0292 -2.4226
   39POPC  H17S 5259   4.477   2.779   8.439  0.1021 -0.7839  0.2960
   39POPC  C218 5260   4.346   2.719   8.591  0.0582 -0.4247  0.6254
   39POPC  H18R 5261   4.399   2.621   8.597  1.0041  0.1100  1.1082
   39POPC  H18S 5262   4.238   2.709   8.616 -0.4192 -0.4351 -1.3614
   39POPC  H18T 5263   4.400   2.779   8.667 -0.0235  0.4162  0.0137
   39POPC   C33 5264   4.921   2.349   7.058 -0.1121 -0.1611  0.1760
   39POPC   H3X 5265   4.854   2.438   7.047 -0.4857 -0.5254 -0.4902
   39POPC   H3Y 5266   5.027   2.380   7.071  0.7393 -2.3244 -1.3697
   39POPC   C34 5267   4.872   2.289   7.190 -0.7302  0.1555  0.0450
   39POPC   H4X 5268   4.939   2.210   7.229 -0.0946  1.6384  2.0199
   39POPC   H4Y 5269   4.768   2.250   7.180 -1.1188  1.1391  0.1286
   39POPC   C35 5270   4.874   2.406   7.293  0.3072 -0.0037 -0.2644
   39POPC   H5X 5271   4.806   2.485   7.256  0.1224 -0.3488 -0.6591
   39POPC   H5Y 5272   4.973   2.455   7.306  0.1417  0.4592 -0.7322
   39POPC   C36 5273   4.838   2.353   7.427  0.2402  0.1350  0.1396
   39POPC   H6X 5274   4.908   2.270   7.453 -0.4100 -0.8980 -1.3435
   39POPC   H6Y 5275   4.740   2.302   7.430  1.2800 -1.9669 -0.5902
   39POPC   C37 5276   4.836   2.460   7.538 -0.1877  0.2623  0.6351
   39POPC   H7X 5277   4.767   2.544   7.516 -1.1004 -1.0417 -1.6583
   39POPC   H7Y 5278   4.940   2.497   7.533  0.2261 -1.0436 -0.9587
   39POPC   C38 5279   4.815   2.404   7.682  0.0587  0.1631 -0.1028
   39POPC   H8X 5280   4.867   2.469   7.755 -0.9553 -0.6587  1.3785
   39POPC   H8Y 5281   4.869   2.309   7.705  1.1300  1.4690  2.9675
   39POPC   C39 5282   4.674   2.399   7.729  0.3138 -0.0591 -0.7108
   39POPC   H9X 5283   4.620   2.329   7.662  3.0896 -2.2678 -0.7195
   39POPC   H9Y 5284   4.640   2.498   7.692 -1.2106 -0.4601 -0.4216
   39POPC  C310 5285   4.657   2.371   7.875 -0.2729  0.0715  0.3038
   39POPC  H10X 5286   4.743   2.390   7.943 -0.9720 -0.2649  1.3005
   39POPC  H10Y 5287   4.643   2.261   7.876  0.6465 -0.0550  0.1948
   39POPC  C311 5288   4.537   2.440   7.936 -0.7606  0.8145  0.0220
   39POPC  H11X 5289   4.449   2.401   7.880  1.2295 -3.5877 -0.2617
   39POPC  H11Y 5290   4.534   2.549   7.919 -3.5165  0.4587 -2.1693
   39POPC  C312 5291   4.533   2.412   8.092  0.1945  0.4594 -0.0817
   39POPC  H12X 5292   4.458   2.483   8.132 -1.8022 -2.2124  1.0621
   39POPC  H12Y 5293   4.627   2.453   8.135  0.8328 -1.7133  0.6928
   39POPC  C313 5294   4.529   2.271   8.139  0.3677 -0.0372  0.2605
   39POPC  H13X 5295   4.632   2.235   8.117  0.1659 -0.0126 -0.7463
   39POPC  H13Y 5296   4.470   2.208   8.069 -0.3639  0.9055  0.0160
   39POPC  C314 5297   4.470   2.251   8.279  0.0455 -0.0318  0.4829
   39POPC  H14X 5298   4.365   2.286   8.270 -0.2499 -1.1820 -0.7202
   39POPC  H14Y 5299   4.520   2.308   8.360  2.1309  1.8634 -2.0277
   39POPC  C315 5300   4.473   2.108   8.332 -0.2456 -0.2710 -0.9157
   39POPC  H15X 5301   4.470   2.116   8.442 -1.1711 -2.8464 -0.7159
   39POPC  H15Y 5302   4.574   2.073   8.299  0.7279  0.1954  1.5033
   39POPC  C316 5303   4.367   2.016   8.291 -0.4624  0.1526  1.2582
   39POPC  H16X 5304   4.267   2.055   8.321 -1.4577 -1.9827  0.7684
   39POPC  H16Y 5305   4.383   1.924   8.352  1.9968 -1.6617 -1.9850
   39POPC  H16Z 5306   4.379   1.983   8.186  0.3034 -0.4055  1.5164
   40POPC     N 5307   3.614   6.589   6.139  0.3398 -0.3301 -0.9808
   40POPC   C12 5308   3.629   6.643   6.276 -0.0002 -0.1633  0.4610
   40POPC  H12A 5309   3.732   6.664   6.300 -0.0442  1.0843 -0.3884
   40POPC  H12B 5310   3.596   6.571   6.350 -0.7249  0.9625  1.2617
   40POPC   C13 5311   3.471   6.537   6.118 -0.2641 -0.2782  0.0682
   40POPC  H13A 5312   3.402   6.621   6.117  1.9446  1.6559 -3.8698
   40POPC  H13B 5313   3.468   6.475   6.030  2.2501  0.0064 -0.2537
   40POPC  H13C 5314   3.438   6.470   6.195 -0.7195  0.2384  0.3287
   40POPC   C14 5315   3.659   6.693   6.029  0.9051  0.2359 -0.3278
   40POPC  H14A 5316   3.757   6.729   6.054  2.2384 -2.5765 -1.3138
   40POPC  H14B 5317   3.657   6.644   5.933 -0.6459 -0.2925 -0.0438
   40POPC  H14C 5318   3.602   6.784   6.017  0.1255 -0.4005 -1.5673
   40POPC   C15 5319   3.701   6.472   6.123 -1.1951  0.2925  0.0246
   40POPC  H15A 5320   3.802   6.504   6.146 -0.5134 -0.7913 -1.4084
   40POPC  H15B 5321   3.689   6.438   6.022  1.4138  1.7026 -0.7889
   40POPC  H15C 5322   3.669   6.398   6.196 -0.1839  1.8035  2.0703
   40POPC   C11 5323   3.541   6.766   6.306  0.0060  0.4048  0.8180
   40POPC  H11A 5324   3.567   6.786   6.413 -0.2059 -4.8165  1.9817
   40POPC  H11B 5325   3.436   6.731   6.304  0.3837 -0.6406 -0.6797
   40POPC     P 5326   3.619   7.007   6.262 -0.3891  0.0680 -0.2197
   40POPC   O13 5327   3.595   7.115   6.166  0.2389 -0.4007  0.5100
   40POPC   O14 5328   3.756   6.983   6.306  0.1357  0.0839 -0.2304
   40POPC   O12 5329   3.551   6.877   6.216  0.3381  0.6299  0.4558
   40POPC   O11 5330   3.533   7.036   6.389  0.4217 -0.1731  0.3715
   40POPC    C1 5331   3.580   7.125   6.497  0.0240  0.1812 -0.2180
   40POPC    HA 5332   3.487   7.171   6.537 -0.0392 -2.4109  2.8706
   40POPC    HB 5333   3.634   7.217   6.467  2.4395 -0.4480  1.9403
   40POPC    C2 5334   3.651   7.044   6.604 -0.1070 -0.5222 -0.7248
   40POPC    HS 5335   3.746   7.005   6.562  0.9016  0.7088  0.3900
   40POPC   O21 5336   3.552   6.940   6.641  0.2833  0.0956  0.1532
   40POPC   C21 5337   3.614   6.830   6.685 -0.3600  0.1955  0.1549
   40POPC   O22 5338   3.735   6.810   6.696  0.2513  0.0120 -0.7116
   40POPC   C22 5339   3.513   6.730   6.732 -0.2104 -0.2601 -0.6033
   40POPC   H2R 5340   3.496   6.655   6.652 -1.6993  2.3791 -2.8117
   40POPC   H2S 5341   3.423   6.789   6.760  0.0690 -0.0521 -0.1388
   40POPC    C3 5342   3.685   7.131   6.723  0.7307 -0.2196 -0.2130
   40POPC    HX 5343   3.588   7.160   6.770  0.4684 -2.8257  0.9154
   40POPC    HY 5344   3.725   7.226   6.681 -1.8351  0.4379 -1.2994
   40POPC   O31 5345   3.769   7.071   6.825  0.0178 -0.6859 -0.2471
   40POPC   C31 5346   3.899   7.112   6.827 -0.1614 -0.7122  0.5251
   40POPC   O32 5347   3.954   7.165   6.733  0.0276  0.2820  0.6800
   40POPC   C32 5348   3.962   7.080   6.965  0.6806 -0.0207  0.3454
   40POPC   H2X 5349   4.023   7.167   6.998  0.5052 -0.2940  1.4112
   40POPC   H2Y 5350   4.023   6.987   6.968  2.7943  1.2025 -2.4791
   40POPC   C23 5351   3.558   6.648   6.860 -0.3219 -0.1957 -0.1615
   40POPC   H3R 5352   3.651   6.592   6.835  0.2532  0.0284  1.4073
   40POPC   H3S 5353   3.477   6.573   6.874 -0.6633  0.0865 -0.6127
   40POPC   C24 5354   3.575   6.733   6.983  0.2654 -0.7125 -1.0044
   40POPC   H4R 5355   3.484   6.794   7.003  1.0081 -0.3797  1.6455
   40POPC   H4S 5356   3.667   6.795   6.975 -0.7497  0.8419 -1.0394
   40POPC   C25 5357   3.600   6.647   7.112  0.2007  0.4227  0.2164
   40POPC   H5R 5358   3.706   6.619   7.132 -0.0089 -0.7065 -0.2358
   40POPC   H5S 5359   3.548   6.550   7.098  3.1757 -1.7209  3.1315
   40POPC   C26 5360   3.567   6.728   7.240 -0.1882  0.9875  0.0073
   40POPC   H6R 5361   3.469   6.775   7.220  0.2464  0.5402 -3.3693
   40POPC   H6S 5362   3.652   6.797   7.258 -0.3121  0.8975  1.0251
   40POPC   C27 5363   3.574   6.632   7.361  0.3057 -0.0375  0.0258
   40POPC   H7R 5364   3.676   6.600   7.394  0.2712 -1.4271 -1.1550
   40POPC   H7S 5365   3.529   6.533   7.337 -2.4938  1.2820 -0.2416
   40POPC   C28 5366   3.493   6.683   7.486  0.7652 -0.1447  0.6280
   40POPC   H8R 5367   3.464   6.597   7.550  0.4363 -0.3635  0.1846
   40POPC   H8S 5368   3.395   6.718   7.447 -0.4645 -2.1441  1.8433
   40POPC   C29 5369   3.563   6.789   7.557 -0.1264  0.1217  0.4252
   40POPC   H91 5370   3.610   6.860   7.487 -0.7775  0.6834  0.5489
   40POPC  C210 5371   3.585   6.801   7.693 -0.2466  0.1436  0.5218
   40POPC  H101 5372   3.652   6.880   7.730  1.6686 -1.3922  0.4225
   40POPC  C211 5373   3.545   6.712   7.807 -0.6288  0.2724 -0.1371
   40POPC  H11R 5374   3.510   6.609   7.787  0.0538 -0.1353  0.7202
   40POPC  H11S 5375   3.455   6.756   7.856 -1.0199  1.7399 -2.1184
   40POPC  C212 5376   3.655   6.693   7.911 -0.5176 -0.2357 -0.4160
   40POPC  H12R 5377   3.686   6.782   7.969  3.1492 -1.2023 -0.7055
   40POPC  H12S 5378   3.749   6.669   7.856  1.6588  0.7999  2.7123
   40POPC  C213 5379   3.620   6.585   8.012 -0.3251  1.0017  0.3951
   40POPC  H13R 5380   3.710   6.534   8.054  0.1564  1.0631 -0.5442
   40POPC  H13S 5381   3.555   6.510   7.962  0.2997  0.4860  0.3402
   40POPC  C214 5382   3.537   6.630   8.134 -0.3887  0.3451 -0.6033
   40POPC  H14R 5383   3.431   6.635   8.101 -0.5333  1.9244  0.0372
   40POPC  H14S 5384   3.565   6.733   8.167  0.4032  0.0096 -0.2088
   40POPC  C215 5385   3.550   6.540   8.258 -0.6973 -0.1672  0.7548
   40POPC  H15R 5386   3.465   6.573   8.321 -1.7894  3.2404 -2.3149
   40POPC  H15S 5387   3.654   6.561   8.292 -1.5209  1.7082  2.2228
   40POPC  C216 5388   3.533   6.384   8.223 -0.0250  0.0876 -0.0411
   40POPC  H16R 5389   3.624   6.347   8.171  0.1331 -0.5729  0.6871
   40POPC  H16S 5390   3.442   6.392   8.160 -0.1782  0.5773  0.2439
   40POPC  C217 5391   3.517   6.296   8.350 -0.2552  0.0591  0.9290
   40POPC  H17R 5392   3.430   6.331   8.410 -1.2576 -0.4800 -0.1806
   40POPC  H17S 5393   3.605   6.296   8.418  0.1525 -1.9621  0.4587
   40POPC  C218 5394   3.494   6.152   8.308 -0.1331 -0.2555  0.7777
   40POPC  H18R 5395   3.419   6.140   8.226  2.4432 -1.3734 -1.4870
   40POPC  H18S 5396   3.464   6.081   8.388 -3.3238  0.1104  0.0045
   40POPC  H18T 5397   3.584   6.111   8.258  0.7206  1.1238  1.1760
   40POPC   C33 5398   3.857   7.068   7.085 -0.3022 -0.1522 -0.1424
   40POPC   H3X 5399   3.825   6.961   7.084  1.5082 -0.7102 -1.5822
   40POPC   H3Y 5400   3.761   7.120   7.063  0.7058  2.3043  1.1626
   40POPC   C34 5401   3.923   7.108   7.212 -0.6375  0.3048 -0.2224
   40POPC   H4X 5402   3.959   7.213   7.209 -2.5193  0.9789  0.0911
   40POPC   H4Y 5403   4.013   7.044   7.219  0.4943  2.1218  2.6493
   40POPC   C35 5404   3.838   7.073   7.336 -0.4002  0.4168  0.2875
   40POPC   H5X 5405   3.797   6.971   7.318 -0.8239  0.6803 -0.2424
   40POPC   H5Y 5406   3.755   7.146   7.337  0.8504  1.8592  0.1588
   40POPC   C36 5407   3.913   7.085   7.470 -0.1614  0.5178  0.6354
   40POPC   H6X 5408   3.910   7.191   7.503 -0.7352  1.1872 -1.4273
   40POPC   H6Y 5409   4.023   7.066   7.469  0.2931  2.9098 -2.0680
   40POPC   C37 5410   3.860   7.003   7.593 -0.0642  0.3559 -0.2761
   40POPC   H7X 5411   3.869   6.897   7.561 -0.3274  1.0150 -2.6535
   40POPC   H7Y 5412   3.757   7.032   7.622 -0.2625  1.5411 -2.1010
   40POPC   C38 5413   3.951   7.030   7.715  0.4859 -0.2704  0.1058
   40POPC   H8X 5414   3.951   7.139   7.737  0.4770 -0.7756  2.9104
   40POPC   H8Y 5415   4.049   6.980   7.701  1.8565  1.0436  4.3131
   40POPC   C39 5416   3.899   6.958   7.848 -0.4727  0.3548 -0.0094
   40POPC   H9X 5417   3.909   6.849   7.828  0.6051  0.0705  1.9207
   40POPC   H9Y 5418   3.800   6.997   7.880 -0.7704 -2.1710  2.3523
   40POPC  C310 5419   3.989   6.971   7.971 -0.1853 -0.4827 -0.2772
   40POPC  H10X 5420   3.999   7.078   7.999 -3.4601 -0.1691 -0.0429
   40POPC  H10Y 5421   4.089   6.927   7.951  0.0425 -1.1481  2.1348
   40POPC  C311 5422   3.939   6.900   8.095 -0.3688  0.4985  0.0910
   40POPC  H11X 5423   3.952   6.793   8.066  1.8405  0.9126 -0.5906
   40POPC  H11Y 5424   3.832   6.926   8.102 -1.1240 -2.2715 -0.5513
   40POPC  C312 5425   4.007   6.936   8.231  0.2262 -0.5410  0.1905
   40POPC  H12X 5426   3.937   6.944   8.317 -1.7055 -2.9654 -1.0935
   40POPC  H12Y 5427   4.041   7.042   8.226 -0.5391 -0.1837  2.2123
   40POPC  C313 5428   4.123   6.853   8.274 -0.2071 -0.1335 -0.0599
   40POPC  H13X 5429   4.164   6.905   8.363  0.4122 -2.6115  1.1507
   40POPC  H13Y 5430   4.207   6.855   8.201  0.6759 -0.3636  0.9313
   40POPC  C314 5431   4.101   6.701   8.301  1.0415  0.3240  0.6409
   40POPC  H14X 5432   4.052   6.649   8.216  1.0076  0.3996  0.6133
   40POPC  H14Y 5433   4.027   6.693   8.384 -1.1511 -1.0377 -1.3886
   40POPC  C315 5434   4.238   6.640   8.328 -0.1947 -0.4234 -0.5576
   40POPC  H15X 5435   4.296   6.671   8.239  0.9032 -0.0691  0.2644
   40POPC  H15Y 5436   4.240   6.530   8.339  1.9891 -0.2053  1.6208
   40POPC  C316 5437   4.309   6.690   8.462 -0.1952 -0.9070 -0.7168
   40POPC  H16X 5438   4.413   6.650   8.466  0.1360  0.1526  3.8861
   40POPC  H16Y 5439   4.261   6.658   8.557  0.7100  1.6703  0.6561
   40POPC  H16Z 5440   4.312   6.800   8.482  2.4898 -1.4372  2.0929
   41CHL1    C3 5441   2.461   3.980  10.026  0.1116 -0.7003  0.2083
   41CHL1    H3 5442   2.570   3.986  10.046  0.2300 -0.9800 -0.3448
   41CHL1    O3 5443   2.394   3.938  10.144  0.3335  0.5246 -0.1380
   41CHL1   H3' 5444   2.303   3.965  10.132  1.2819  3.2195 -1.7397
   41CHL1    C4 5445   2.413   4.125   9.993 -0.5107 -0.0387 -0.5036
   41CHL1   H4A 5446   2.302   4.120   9.998 -0.5276  1.2102  0.5532
   41CHL1   H4B 5447   2.441   4.191  10.077  2.0921  0.2602 -1.5423
   41CHL1    C5 5448   2.464   4.170   9.856  0.0490 -0.4079 -0.3638
   41CHL1    C6 5449   2.529   4.286   9.842 -0.0666  0.5841  0.4114
   41CHL1    H6 5450   2.559   4.347   9.928  0.5969  0.8764 -0.0181
   41CHL1    C7 5451   2.571   4.340   9.706  0.0831  0.1524  0.0938
   41CHL1   H7A 5452   2.559   4.450   9.701 -0.1179  0.1506  0.5104
   41CHL1   H7B 5453   2.678   4.315   9.689 -0.4116 -0.7883 -1.7313
   41CHL1    C8 5454   2.493   4.274   9.591 -1.1990 -0.0275 -0.3246
   41CHL1    H8 5455   2.387   4.308   9.597 -1.4129 -1.1456  3.2458
   41CHL1   C14 5456   2.544   4.321   9.454 -0.7392 -0.5332  0.0341
   41CHL1   H14 5457   2.651   4.288   9.451 -0.3942  0.2716  2.4637
   41CHL1   C15 5458   2.552   4.470   9.436 -0.4406 -0.4871  1.2151
   41CHL1  H15A 5459   2.455   4.516   9.463 -0.8380  1.3550 -2.9800
   41CHL1  H15B 5460   2.634   4.523   9.489  0.2018 -0.8672  0.6154
   41CHL1   C16 5461   2.571   4.479   9.276 -0.4104  0.1344  0.6087
   41CHL1  H16A 5462   2.496   4.552   9.239  1.1868  0.2157 -2.6457
   41CHL1  H16B 5463   2.674   4.518   9.261 -0.1873  0.0084  1.8257
   41CHL1   C17 5464   2.545   4.338   9.220 -0.7761  0.3613  0.4082
   41CHL1   H17 5465   2.639   4.278   9.221 -1.2434 -0.3747  0.9208
   41CHL1   C13 5466   2.467   4.269   9.333 -0.5527  0.4431 -0.4011
   41CHL1   C18 5467   2.314   4.314   9.332 -0.1476 -0.5902  0.1716
   41CHL1  H18A 5468   2.309   4.425   9.337  0.5253 -0.5923  1.0584
   41CHL1  H18B 5469   2.267   4.276   9.239  0.3606  0.1306 -0.3873
   41CHL1  H18C 5470   2.266   4.271   9.422  1.9884 -2.3264  0.5241
   41CHL1   C12 5471   2.474   4.112   9.342 -0.6306 -0.1601 -0.2461
   41CHL1  H12A 5472   2.425   4.058   9.258  0.3598 -1.9378  0.2972
   41CHL1  H12B 5473   2.582   4.085   9.330  0.2478  1.9323  2.5295
   41CHL1   C11 5474   2.426   4.049   9.478 -0.3540 -0.4746  0.4330
   41CHL1  H11A 5475   2.316   4.054   9.496  0.0288  2.0025  2.3525
   41CHL1  H11B 5476   2.452   3.942   9.490 -1.3461 -1.0426 -2.2540
   41CHL1    C9 5477   2.488   4.123   9.604 -0.4413  0.6395  0.0617
   41CHL1    H9 5478   2.597   4.106   9.610 -0.3474  0.8764 -0.9025
   41CHL1   C10 5479   2.425   4.073   9.741 -0.7477 -0.0785 -0.9591
   41CHL1   C19 5480   2.269   4.057   9.737  0.6018 -0.6470 -0.2897
   41CHL1  H19A 5481   2.258   3.973   9.664 -2.0107 -0.4471 -0.1637
   41CHL1  H19B 5482   2.234   4.027   9.838 -0.0834 -0.9568 -0.6120
   41CHL1  H19C 5483   2.224   4.148   9.694  1.2363 -0.5138 -0.6786
   41CHL1    C1 5484   2.483   3.934   9.778  0.0229 -0.2433 -0.0958
   41CHL1   H1A 5485   2.462   3.861   9.697  2.1370  0.7817 -1.6002
   41CHL1   H1B 5486   2.593   3.935   9.784  0.0418  0.0400 -0.4450
   41CHL1    C2 5487   2.437   3.875   9.913  0.0320 -0.0476  0.7792
   41CHL1   H2A 5488   2.499   3.783   9.926 -0.1451 -0.3301 -0.3609
   41CHL1   H2B 5489   2.331   3.842   9.917  0.0881 -0.0744  3.1158
   41CHL1   C20 5490   2.495   4.343   9.074 -0.4265  0.0697  0.5106
   41CHL1   H20 5491   2.400   4.401   9.074 -0.9448 -0.7740  0.1953
   41CHL1   C21 5492   2.452   4.197   9.020 -0.1701  0.6382  0.2906
   41CHL1  H21A 5493   2.355   4.166   9.065  0.0952  0.1070  0.5055
   41CHL1  H21B 5494   2.530   4.122   9.045 -1.2805 -0.6408  0.0202
   41CHL1  H21C 5495   2.437   4.205   8.911  0.8268  3.0524  0.3060
   41CHL1   C22 5496   2.598   4.404   8.978 -0.3009 -0.0861  0.0400
   41CHL1  H22A 5497   2.551   4.412   8.878  1.7380  0.3783 -0.9099
   41CHL1  H22B 5498   2.617   4.508   9.011 -2.7366  1.0134 -1.9164
   41CHL1   C23 5499   2.730   4.325   8.949 -0.3179  0.3978 -0.0255
   41CHL1  H23A 5500   2.787   4.332   9.044  1.8819 -0.0595 -1.2842
   41CHL1  H23B 5501   2.721   4.216   8.932  0.0306  0.2221  0.8808
   41CHL1   C24 5502   2.812   4.395   8.835 -0.0095  0.5751  0.3660
   41CHL1  H24A 5503   2.758   4.394   8.738 -0.5903  0.9893  0.6773
   41CHL1  H24B 5504   2.830   4.502   8.861  0.2169  0.3483  1.1682
   41CHL1   C25 5505   2.946   4.325   8.803  0.6458 -0.0833  0.6487
   41CHL1   H25 5506   2.909   4.234   8.752 -0.7348  0.0888  1.3147
   41CHL1   C26 5507   3.025   4.404   8.696 -0.5011  1.2018 -0.3521
   41CHL1  H26A 5508   3.044   4.509   8.727 -0.4475  0.7436  1.2180
   41CHL1  H26B 5509   3.126   4.361   8.682 -0.6283  1.4515 -2.1693
   41CHL1  H26C 5510   2.971   4.397   8.599  0.0355 -1.8628 -0.4774
   41CHL1   C27 5511   3.027   4.294   8.927 -0.3995 -0.0274 -0.9944
   41CHL1  H27A 5512   3.055   4.384   8.986 -0.3964 -1.1903  0.8290
   41CHL1  H27B 5513   2.962   4.229   8.990 -0.3983 -0.1544 -1.1257
   41CHL1  H27C 5514   3.122   4.240   8.911  0.8030  1.4677  0.8510
   42CHL1    C3 5515   2.243   3.374   9.856 -0.2587  0.0363 -0.5710
   42CHL1    H3 5516   2.136   3.351   9.834 -1.0282  1.0478  1.8331
   42CHL1    O3 5517   2.270   3.348   9.992  0.1973 -0.3276 -0.7940
   42CHL1   H3' 5518   2.366   3.349  10.003  0.3786  0.5180 -2.2760
   42CHL1    C4 5519   2.342   3.290   9.775 -0.3178 -0.5473 -0.4583
   42CHL1   H4A 5520   2.443   3.303   9.820  0.8034 -3.1417 -2.1174
   42CHL1   H4B 5521   2.316   3.182   9.783  2.6499 -1.4191 -1.9244
   42CHL1    C5 5522   2.340   3.328   9.626 -0.5044 -0.3197 -0.7811
   42CHL1    C6 5523   2.337   3.241   9.527 -0.3786  1.5517  0.3840
   42CHL1    H6 5524   2.335   3.134   9.553  2.4350  1.7482  1.5686
   42CHL1    C7 5525   2.333   3.262   9.373  0.0928 -0.2812 -0.2694
   42CHL1   H7A 5526   2.394   3.189   9.316  1.5382  0.1624  0.6817
   42CHL1   H7B 5527   2.227   3.247   9.346 -0.3015 -1.0812  1.6567
   42CHL1    C8 5528   2.377   3.415   9.347  0.5307  0.4661  0.4399
   42CHL1    H8 5529   2.487   3.427   9.358  0.3225  0.0996  3.3926
   42CHL1   C14 5530   2.340   3.454   9.202 -0.5080  0.6386 -0.1844
   42CHL1   H14 5531   2.232   3.431   9.198 -0.1210 -1.7372  1.6066
   42CHL1   C15 5532   2.403   3.365   9.093  0.7569  0.4920  0.0568
   42CHL1  H15A 5533   2.511   3.358   9.117  1.1995  0.6060 -1.8359
   42CHL1  H15B 5534   2.355   3.267   9.071  0.4279  1.0239 -1.6818
   42CHL1   C16 5535   2.393   3.448   8.970 -0.2889  0.3315 -0.7791
   42CHL1  H16A 5536   2.498   3.462   8.934  0.3295 -2.0268  0.0419
   42CHL1  H16B 5537   2.338   3.400   8.886  1.4437  0.2974 -1.9266
   42CHL1   C17 5538   2.333   3.593   9.015  0.9073  0.3180  0.4340
   42CHL1   H17 5539   2.223   3.577   9.017  0.4602  2.8809 -1.5514
   42CHL1   C13 5540   2.378   3.602   9.164 -0.0009  0.3144 -0.2230
   42CHL1   C18 5541   2.535   3.626   9.176  0.4085  0.6568  1.1510
   42CHL1  H18A 5542   2.584   3.577   9.089 -0.6714  2.2130 -0.3699
   42CHL1  H18B 5543   2.554   3.735   9.168  1.3227  0.3753 -0.7690
   42CHL1  H18C 5544   2.573   3.584   9.272  0.5089  0.9187  1.2243
   42CHL1   C12 5545   2.293   3.686   9.258  0.2162 -0.2047  0.2181
   42CHL1  H12A 5546   2.319   3.792   9.235  1.4240 -0.3922  0.7124
   42CHL1  H12B 5547   2.185   3.663   9.243  0.6802 -1.6833 -0.9996
   42CHL1   C11 5548   2.316   3.657   9.408 -0.6087  0.1280  0.8938
   42CHL1  H11A 5549   2.423   3.683   9.417 -0.3177 -0.2474 -1.1998
   42CHL1  H11B 5550   2.250   3.724   9.467 -1.0772  1.8357 -1.5102
   42CHL1    C9 5551   2.297   3.502   9.446 -0.3588  0.6959 -0.4973
   42CHL1    H9 5552   2.193   3.467   9.435  0.2865 -0.9838 -1.3721
   42CHL1   C10 5553   2.338   3.481   9.597  0.2151 -0.3620 -0.3601
   42CHL1   C19 5554   2.478   3.535   9.619 -0.9040 -0.4903 -0.2445
   42CHL1  H19A 5555   2.552   3.504   9.542 -0.3036 -1.1318  0.5839
   42CHL1  H19B 5556   2.490   3.645   9.627  2.7738 -0.8914  0.6166
   42CHL1  H19C 5557   2.521   3.490   9.711  0.1505  1.4292  0.2326
   42CHL1    C1 5558   2.244   3.558   9.692 -0.1289 -0.0961  0.2077
   42CHL1   H1A 5559   2.246   3.667   9.667  1.4380  0.1729  1.4661
   42CHL1   H1B 5560   2.145   3.522   9.657 -1.0179  1.2477  1.2996
   42CHL1    C2 5561   2.261   3.526   9.840 -0.3569 -0.3932 -0.3542
   42CHL1   H2A 5562   2.171   3.575   9.883 -1.8615 -1.4337 -2.2550
   42CHL1   H2B 5563   2.360   3.545   9.887 -1.0272 -0.7963  1.2525
   42CHL1   C20 5564   2.356   3.710   8.920  0.0069  0.8364  0.0510
   42CHL1   H20 5565   2.464   3.730   8.932  0.1153  0.1767  0.2328
   42CHL1   C21 5566   2.273   3.838   8.965 -0.3421  0.2677 -0.2165
   42CHL1  H21A 5567   2.260   3.904   8.877 -3.0855  0.5508  0.3597
   42CHL1  H21B 5568   2.327   3.889   9.048 -0.1525 -1.2001  0.5839
   42CHL1  H21C 5569   2.175   3.821   9.015 -1.0959  0.2181 -1.6773
   42CHL1   C22 5570   2.334   3.677   8.777  0.5550  0.2427 -0.6537
   42CHL1  H22A 5571   2.366   3.759   8.708 -1.1262  1.6185  0.1523
   42CHL1  H22B 5572   2.414   3.602   8.760 -0.3470 -0.3663 -2.4201
   42CHL1   C23 5573   2.196   3.620   8.749 -0.1465 -0.2121 -0.7438
   42CHL1  H23A 5574   2.178   3.521   8.795 -0.8306  0.9411  1.5081
   42CHL1  H23B 5575   2.125   3.690   8.798  1.4999  0.0039  1.3914
   42CHL1   C24 5576   2.178   3.642   8.598 -0.0540  0.2577 -0.2910
   42CHL1  H24A 5577   2.181   3.748   8.566 -1.1149 -0.1536 -1.7803
   42CHL1  H24B 5578   2.273   3.597   8.560 -0.1033 -2.2612  2.3140
   42CHL1   C25 5579   2.056   3.566   8.540 -0.5088  0.4079 -0.0361
   42CHL1   H25 5580   1.974   3.593   8.611  0.8300  0.0598  1.6908
   42CHL1   C26 5581   2.023   3.621   8.405  0.2618 -0.0211  0.0078
   42CHL1  H26A 5582   1.938   3.581   8.346  0.2058 -0.7475  0.5733
   42CHL1  H26B 5583   2.017   3.732   8.405  1.3183  0.0569  1.0382
   42CHL1  H26C 5584   2.104   3.603   8.331  0.9805 -1.4396  1.1101
   42CHL1   C27 5585   2.072   3.421   8.540 -0.4023  0.4515 -0.8616
   42CHL1  H27A 5586   2.172   3.380   8.514 -0.5444 -0.7932  0.5359
   42CHL1  H27B 5587   2.059   3.388   8.645  0.4792 -1.7019 -1.4124
   42CHL1  H27C 5588   1.996   3.379   8.471  1.6327  0.3904 -3.1396
   43CHL1    C3 5589   2.931   3.719  10.110  0.5019 -0.1918 -0.1482
   43CHL1    H3 5590   3.009   3.798  10.118 -2.6866  3.0817 -0.1987
   43CHL1    O3 5591   2.902   3.676  10.240  0.1429 -0.5559 -0.5518
   43CHL1   H3' 5592   2.820   3.629  10.224 -1.0939  1.5754 -0.7181
   43CHL1    C4 5593   2.805   3.794  10.055 -0.7341 -0.2811  0.4850
   43CHL1   H4A 5594   2.715   3.730  10.050  0.6362 -2.2860  1.2903
   43CHL1   H4B 5595   2.783   3.880  10.122  0.6455  1.6410 -1.4371
   43CHL1    C5 5596   2.840   3.846   9.918  0.8320  0.0118 -0.6468
   43CHL1    C6 5597   2.843   3.977   9.886 -1.4233 -1.0784  0.4382
   43CHL1    H6 5598   2.814   4.045   9.968 -1.6931  0.3849 -0.8460
   43CHL1    C7 5599   2.855   4.032   9.746  0.6078 -0.4038 -0.8504
   43CHL1   H7A 5600   2.775   4.106   9.724  0.7716  0.1793  0.4371
   43CHL1   H7B 5601   2.949   4.091   9.742 -0.4299  1.1742 -3.2175
   43CHL1    C8 5602   2.855   3.918   9.638 -0.1686  0.3432  0.2316
   43CHL1    H8 5603   2.748   3.886   9.634 -0.0434  0.0592 -1.0180
   43CHL1   C14 5604   2.914   3.967   9.507  0.3559  0.1306  1.0834
   43CHL1   H14 5605   3.019   3.989   9.535  0.2776  0.2467  1.2885
   43CHL1   C15 5606   2.855   4.100   9.447 -0.2620  0.0826  0.0779
   43CHL1  H15A 5607   2.744   4.095   9.451 -0.6017  2.6293 -3.5364
   43CHL1  H15B 5608   2.886   4.185   9.510 -1.0202  0.0682  0.4746
   43CHL1   C16 5609   2.896   4.100   9.304  0.4909  0.5401  0.3678
   43CHL1  H16A 5610   2.816   4.128   9.232 -0.9904 -1.8363  1.0376
   43CHL1  H16B 5611   2.976   4.176   9.293  0.2482  0.5955 -1.1506
   43CHL1   C17 5612   2.970   3.968   9.280  0.0744 -0.4709  0.0836
   43CHL1   H17 5613   3.070   3.994   9.321 -1.2097  3.9525  0.7572
   43CHL1   C13 5614   2.909   3.871   9.393  0.1274 -0.2520  0.4520
   43CHL1   C18 5615   2.765   3.826   9.345 -0.5749  0.0262 -0.4371
   43CHL1  H18A 5616   2.766   3.768   9.250 -0.2607  2.6784 -2.1347
   43CHL1  H18B 5617   2.715   3.769   9.426  1.8338  0.2692  1.2733
   43CHL1  H18C 5618   2.706   3.919   9.328 -1.6880 -0.9069 -1.7459
   43CHL1   C12 5619   2.993   3.752   9.429 -0.0446 -0.3447 -0.5410
   43CHL1  H12A 5620   2.979   3.678   9.348 -1.5194 -0.7583  0.0756
   43CHL1  H12B 5621   3.104   3.761   9.426 -0.0208 -0.1722  0.6927
   43CHL1   C11 5622   2.947   3.688   9.564  0.3495 -0.7599 -0.0153
   43CHL1  H11A 5623   2.848   3.641   9.548 -0.0818 -0.5934  1.9891
   43CHL1  H11B 5624   3.020   3.605   9.577  0.7321 -0.5922 -1.0361
   43CHL1    C9 5625   2.943   3.793   9.682  0.8247  0.0472  0.5914
   43CHL1    H9 5626   3.044   3.836   9.700  0.9870  0.4219 -1.1493
   43CHL1   C10 5627   2.884   3.733   9.816 -0.1270 -0.0857  0.2484
   43CHL1   C19 5628   2.766   3.635   9.786 -0.8274 -0.1878 -0.4819
   43CHL1  H19A 5629   2.721   3.595   9.880 -3.2523  1.3595 -0.9494
   43CHL1  H19B 5630   2.685   3.689   9.733 -0.0207 -0.8698 -2.4319
   43CHL1  H19C 5631   2.799   3.552   9.720 -0.9313 -0.4498 -0.2082
   43CHL1    C1 5632   2.999   3.649   9.879 -0.1629  0.1412 -0.1891
   43CHL1   H1A 5633   3.012   3.555   9.820 -1.3010 -0.1267 -0.0244
   43CHL1   H1B 5634   3.100   3.693   9.863  0.6328 -1.4467  0.3587
   43CHL1    C2 5635   2.971   3.605  10.022  0.3782 -0.2891 -1.0022
   43CHL1   H2A 5636   3.060   3.553  10.064  0.8550  2.3298  1.3662
   43CHL1   H2B 5637   2.890   3.529  10.020  2.9645 -3.1497 -0.6524
   43CHL1   C20 5638   2.983   3.905   9.131  1.2375 -0.0880 -0.4316
   43CHL1   H20 5639   2.985   3.796   9.153  2.9977 -0.1796 -0.9487
   43CHL1   C21 5640   3.123   3.938   9.072  0.3564 -0.5290  0.5405
   43CHL1  H21A 5641   3.153   4.044   9.086 -0.5004  0.2108 -2.8147
   43CHL1  H21B 5642   3.132   3.904   8.967  2.2519 -0.3978  0.6429
   43CHL1  H21C 5643   3.191   3.885   9.141  2.3325  1.4928  0.1954
   43CHL1   C22 5644   2.861   3.932   9.036 -0.1555 -0.5372  0.5360
   43CHL1  H22A 5645   2.775   3.974   9.093  1.5599  1.7481  1.5340
   43CHL1  H22B 5646   2.890   4.013   8.966 -0.8482 -2.2691 -1.8012
   43CHL1   C23 5647   2.815   3.809   8.956 -0.5228 -0.0546 -0.1581
   43CHL1  H23A 5648   2.808   3.724   9.027 -0.2907  0.3877  0.3979
   43CHL1  H23B 5649   2.709   3.832   8.931  0.3645  2.4002 -1.8867
   43CHL1   C24 5650   2.889   3.764   8.835  0.0156 -0.0638 -0.3765
   43CHL1  H24A 5651   2.898   3.847   8.762 -2.2546  0.0112 -0.6027
   43CHL1  H24B 5652   2.991   3.733   8.864  0.1715 -2.0878 -2.8950
   43CHL1   C25 5653   2.823   3.644   8.762 -0.3951 -0.8011  0.1128
   43CHL1   H25 5654   2.719   3.677   8.742  0.5621  1.4810 -1.2902
   43CHL1   C26 5655   2.896   3.610   8.630  0.3979 -0.4128 -0.1215
   43CHL1  H26A 5656   2.912   3.686   8.551  0.6822 -1.7062 -1.3190
   43CHL1  H26B 5657   2.994   3.563   8.654  0.9317  1.0161  0.5263
   43CHL1  H26C 5658   2.833   3.532   8.582 -2.1589  2.1122 -0.9838
   43CHL1   C27 5659   2.826   3.512   8.846  0.5676  0.1654 -0.2694
   43CHL1  H27A 5660   2.773   3.523   8.943 -0.5474  0.3048 -0.8891
   43CHL1  H27B 5661   2.791   3.422   8.792 -1.5256 -1.0180  2.9221
   43CHL1  H27C 5662   2.932   3.487   8.871  1.4100  2.5694 -1.2791
   44CHL1    C3 5663   3.137   4.319  10.128 -0.2286  0.5185  0.3973
   44CHL1    H3 5664   3.208   4.252  10.076 -0.3367 -0.0532  0.9832
   44CHL1    O3 5665   3.123   4.277  10.266  0.5492  0.1069 -0.2906
   44CHL1   H3' 5666   3.039   4.231  10.267  0.3933  0.4093  2.1129
   44CHL1    C4 5667   3.187   4.465  10.118  0.5497  0.1384  0.7841
   44CHL1   H4A 5668   3.123   4.536  10.176 -1.9796 -1.9442  0.6214
   44CHL1   H4B 5669   3.287   4.484  10.164  0.5897  0.3117  0.6258
   44CHL1    C5 5670   3.187   4.499   9.969 -0.6100 -0.5357 -1.1837
   44CHL1    C6 5671   3.309   4.529   9.908  0.7997  0.8611 -0.2113
   44CHL1    H6 5672   3.401   4.517   9.967 -0.1816 -0.0024  1.1714
   44CHL1    C7 5673   3.320   4.586   9.771 -0.7449  0.1957  0.2457
   44CHL1   H7A 5674   3.370   4.686   9.775 -0.0740 -0.1052 -0.5900
   44CHL1   H7B 5675   3.379   4.519   9.705 -0.2755  1.0069 -0.1720
   44CHL1    C8 5676   3.180   4.600   9.700  0.0272  0.5168 -0.8757
   44CHL1    H8 5677   3.148   4.698   9.742  1.0146  0.6866 -0.5117
   44CHL1   C14 5678   3.194   4.606   9.548 -0.1472 -0.3449 -0.1205
   44CHL1   H14 5679   3.225   4.508   9.506  1.7833  0.9515 -1.9021
   44CHL1   C15 5680   3.305   4.696   9.489  0.3995 -0.7911 -0.4093
   44CHL1  H15A 5681   3.318   4.787   9.550 -2.8706 -0.8833  0.4798
   44CHL1  H15B 5682   3.401   4.640   9.493  1.6041  1.1979 -0.9476
   44CHL1   C16 5683   3.261   4.723   9.346  1.1387  0.0325  0.6929
   44CHL1  H16A 5684   3.245   4.832   9.333 -0.1496 -0.3616 -1.0505
   44CHL1  H16B 5685   3.330   4.682   9.270  1.8763 -1.4942  2.1434
   44CHL1   C17 5686   3.125   4.646   9.333 -0.1140 -0.2019 -0.5189
   44CHL1   H17 5687   3.156   4.544   9.301  3.2403  0.5677  0.1163
   44CHL1   C13 5688   3.065   4.631   9.474  0.0169 -0.2720  0.0671
   44CHL1   C18 5689   3.003   4.771   9.514 -0.1805  0.0160  0.1100
   44CHL1  H18A 5690   2.984   4.776   9.623  0.1541  0.8781  0.1329
   44CHL1  H18B 5691   3.081   4.850   9.501 -0.3759  0.2264  0.2024
   44CHL1  H18C 5692   2.915   4.792   9.449  0.3265 -0.7152 -0.8224
   44CHL1   C12 5693   2.959   4.523   9.509 -0.0947  0.5039  0.1437
   44CHL1  H12A 5694   2.855   4.551   9.481  0.4160  1.3395 -0.9739
   44CHL1  H12B 5695   2.971   4.418   9.473 -0.5682  0.4973 -0.0099
   44CHL1   C11 5696   2.945   4.502   9.666  0.3623 -0.0883  0.7281
   44CHL1  H11A 5697   2.888   4.590   9.704 -0.0725 -0.1559  0.2466
   44CHL1  H11B 5698   2.884   4.410   9.681  0.5035 -0.4599 -0.8932
   44CHL1    C9 5699   3.079   4.498   9.740 -0.2716  0.1874 -0.0140
   44CHL1    H9 5700   3.127   4.405   9.702 -1.5529 -0.4891  0.0025
   44CHL1   C10 5701   3.060   4.493   9.894  0.4636  0.6225 -0.9012
   44CHL1   C19 5702   2.970   4.607   9.950  0.1412  0.4271 -0.5088
   44CHL1  H19A 5703   2.950   4.595  10.058  0.2242  1.1980 -0.4086
   44CHL1  H19B 5704   3.011   4.708   9.928 -0.2960  0.1059 -3.0159
   44CHL1  H19C 5705   2.863   4.597   9.920 -0.1517  0.7412  0.4124
   44CHL1    C1 5706   2.994   4.350   9.922  0.2560  0.1051 -0.3782
   44CHL1   H1A 5707   2.886   4.348   9.895  0.2842  0.2026 -0.4934
   44CHL1   H1B 5708   3.035   4.262   9.867 -0.9660 -1.1116  0.6054
   44CHL1    C2 5709   2.997   4.303  10.071  0.3148 -0.0236 -0.4770
   44CHL1   H2A 5710   2.952   4.202  10.071 -1.8874  0.8871  2.5375
   44CHL1   H2B 5711   2.938   4.378  10.129  4.3584  1.7697  1.5175
   44CHL1   C20 5712   3.034   4.698   9.218 -0.2100  0.2701  0.2454
   44CHL1   H20 5713   3.004   4.801   9.246  1.7401  0.9610 -0.0982
   44CHL1   C21 5714   2.916   4.599   9.197  0.4660  0.3406 -0.5020
   44CHL1  H21A 5715   2.950   4.493   9.193  0.6013  0.1654  3.2335
   44CHL1  H21B 5716   2.863   4.629   9.104  0.1806 -2.5272 -1.3026
   44CHL1  H21C 5717   2.843   4.597   9.281  0.9030  1.6604 -0.0907
   44CHL1   C22 5718   3.109   4.707   9.082 -0.1276  0.0379 -0.4858
   44CHL1  H22A 5719   3.195   4.777   9.086  1.1603 -1.4720 -1.2275
   44CHL1  H22B 5720   3.163   4.612   9.065 -0.9287 -0.2799 -1.2797
   44CHL1   C23 5721   3.022   4.749   8.961  0.3763 -0.2043 -0.2924
   44CHL1  H23A 5722   2.959   4.666   8.924 -0.5752 -0.1289  1.1326
   44CHL1  H23B 5723   2.954   4.833   8.988  0.1149 -0.2595 -0.7720
   44CHL1   C24 5724   3.119   4.790   8.854  0.6798  0.6716  0.0647
   44CHL1  H24A 5725   3.199   4.858   8.891  0.9163  0.1354  0.5399
   44CHL1  H24B 5726   3.172   4.699   8.820  1.4974  1.8657 -1.9319
   44CHL1   C25 5727   3.046   4.836   8.723  0.1479 -1.2161 -0.5581
   44CHL1   H25 5728   2.960   4.768   8.705 -2.9072  2.4957 -0.7031
   44CHL1   C26 5729   2.975   4.971   8.744 -0.5037  0.1405  0.9405
   44CHL1  H26A 5730   2.896   4.974   8.823  0.3763  0.9766  1.7974
   44CHL1  H26B 5731   3.048   5.050   8.769 -0.2793  0.2057  0.1001
   44CHL1  H26C 5732   2.934   5.004   8.646 -1.0846  1.3319  1.5633
   44CHL1   C27 5733   3.147   4.840   8.614  0.2169  0.0214 -0.1359
   44CHL1  H27A 5734   3.225   4.917   8.632  0.7172 -0.4364 -0.3343
   44CHL1  H27B 5735   3.207   4.747   8.608 -0.2570 -0.2579 -0.5774
   44CHL1  H27C 5736   3.104   4.859   8.514 -1.0148 -0.6549  0.2618
   45CHL1    C3 5737   6.638   3.219  10.261  0.8683 -0.3844  0.5148
   45CHL1    H3 5738   6.559   3.142  10.273  0.6968 -0.4307 -0.8964
   45CHL1    O3 5739   6.681   3.236  10.397  0.1634 -0.0382  0.6760
   45CHL1   H3' 5740   6.608   3.281  10.440  0.0872 -1.5554  2.1506
   45CHL1    C4 5741   6.746   3.177  10.167  0.1182  0.2287 -0.4715
   45CHL1   H4A 5742   6.834   3.245  10.161  1.3796 -1.1556  1.5505
   45CHL1   H4B 5743   6.783   3.083  10.213  0.2301 -0.5195 -2.0709
   45CHL1    C5 5744   6.687   3.151  10.034 -0.0911  0.2403  0.9690
   45CHL1    C6 5745   6.689   3.031   9.978 -0.8371  0.1603  0.7466
   45CHL1    H6 5746   6.726   2.937  10.022  1.3019 -1.4151 -4.0925
   45CHL1    C7 5747   6.650   3.013   9.834 -0.0679 -0.4157 -0.3763
   45CHL1   H7A 5748   6.705   2.926   9.792  0.2479 -0.6951  0.5938
   45CHL1   H7B 5749   6.547   2.973   9.843 -0.6372  1.4063  1.5706
   45CHL1    C8 5750   6.635   3.137   9.745  0.4435 -0.1769  0.0930
   45CHL1    H8 5751   6.563   3.105   9.666  1.0623  0.4855 -0.7540
   45CHL1   C14 5752   6.748   3.185   9.659 -0.0481  0.2971 -0.5650
   45CHL1   H14 5753   6.838   3.208   9.720  0.1145 -0.4328 -0.5244
   45CHL1   C15 5754   6.792   3.067   9.565  0.1859  0.6945  0.7232
   45CHL1  H15A 5755   6.902   3.075   9.553  0.0422 -0.1908 -1.3954
   45CHL1  H15B 5756   6.763   2.964   9.593  0.4720  0.2302 -0.6469
   45CHL1   C16 5757   6.718   3.099   9.428 -0.3265 -0.4853 -0.2128
   45CHL1  H16A 5758   6.796   3.093   9.349 -0.8305  0.3197 -0.7800
   45CHL1  H16B 5759   6.644   3.019   9.407  0.3811 -1.2126 -0.0007
   45CHL1   C17 5760   6.647   3.234   9.443  0.4297 -0.1147  0.2656
   45CHL1   H17 5761   6.542   3.217   9.475  1.0121 -0.2165  2.2105
   45CHL1   C13 5762   6.711   3.304   9.567  0.0350  0.3854 -0.2112
   45CHL1   C18 5763   6.842   3.366   9.527 -0.4682 -0.8219 -0.2203
   45CHL1  H18A 5764   6.836   3.457   9.463  1.8714 -0.7540 -0.3824
   45CHL1  H18B 5765   6.883   3.409   9.620 -1.7112  1.0615 -0.5090
   45CHL1  H18C 5766   6.910   3.289   9.485 -0.4093  0.1607 -1.9959
   45CHL1   C12 5767   6.615   3.408   9.627  0.5322 -0.1270  0.2809
   45CHL1  H12A 5768   6.676   3.492   9.668 -2.1143  1.9563  0.0932
   45CHL1  H12B 5769   6.560   3.452   9.541  2.1956  0.1463 -0.6782
   45CHL1   C11 5770   6.510   3.357   9.729 -0.4249  0.4622  0.4156
   45CHL1  H11A 5771   6.465   3.440   9.786  0.8806  2.5208 -1.4570
   45CHL1  H11B 5772   6.436   3.304   9.666  0.8829 -1.1060  0.1665
   45CHL1    C9 5773   6.562   3.245   9.829 -0.6792 -0.0791  0.6141
   45CHL1    H9 5774   6.463   3.203   9.859 -2.2777  0.8935 -2.9994
   45CHL1   C10 5775   6.624   3.281   9.963  0.1501  0.3856 -0.0329
   45CHL1   C19 5776   6.732   3.395   9.941  0.1928 -0.6224 -0.2073
   45CHL1  H19A 5777   6.803   3.369   9.860  0.2883  0.0609 -0.3447
   45CHL1  H19B 5778   6.666   3.476   9.903 -1.1563 -1.4814  0.2692
   45CHL1  H19C 5779   6.781   3.420  10.037 -2.7287  0.7095  0.9900
   45CHL1    C1 5780   6.514   3.340  10.059 -0.0091 -0.1083 -0.4346
   45CHL1   H1A 5781   6.473   3.437  10.022  0.4134 -0.7432 -2.6022
   45CHL1   H1B 5782   6.435   3.262  10.063  0.6859 -0.8077 -0.2966
   45CHL1    C2 5783   6.560   3.346  10.213  0.8254  0.3236 -0.4832
   45CHL1   H2A 5784   6.472   3.369  10.278  1.5337  4.0837 -0.7548
   45CHL1   H2B 5785   6.629   3.433  10.218 -0.7697  1.6248 -0.4674
   45CHL1   C20 5786   6.633   3.314   9.310 -0.5489 -0.1380 -0.9835
   45CHL1   H20 5787   6.605   3.416   9.343 -1.4477 -0.7001  0.0265
   45CHL1   C21 5788   6.513   3.261   9.224 -0.7684  0.3710 -0.6915
   45CHL1  H21A 5789   6.483   3.336   9.148  2.5988  0.3670 -2.0873
   45CHL1  H21B 5790   6.423   3.243   9.287 -1.0965  3.4824 -0.1937
   45CHL1  H21C 5791   6.549   3.169   9.173  3.0564  0.7682  1.1015
   45CHL1   C22 5792   6.761   3.340   9.214  0.0952  0.8447 -0.2763
   45CHL1  H22A 5793   6.865   3.344   9.252  1.3193  0.0254 -3.4144
   45CHL1  H22B 5794   6.775   3.247   9.154  1.2304  0.3577  0.7159
   45CHL1   C23 5795   6.733   3.441   9.104  0.2192 -0.4357  0.0130
   45CHL1  H23A 5796   6.660   3.410   9.027  0.7470  0.5541 -0.9093
   45CHL1  H23B 5797   6.704   3.537   9.154  0.9604 -0.9167  1.4080
   45CHL1   C24 5798   6.860   3.479   9.019  0.2192 -0.3672 -0.9218
   45CHL1  H24A 5799   6.939   3.499   9.094  0.2735  3.2869 -1.8560
   45CHL1  H24B 5800   6.889   3.387   8.964 -1.4385 -1.9752  0.8560
   45CHL1   C25 5801   6.847   3.592   8.914  0.1328  0.5325  0.0730
   45CHL1   H25 5802   6.788   3.674   8.959 -0.7502 -0.5165  0.8233
   45CHL1   C26 5803   6.979   3.652   8.870  0.3474  0.5009 -0.4222
   45CHL1  H26A 5804   6.985   3.732   8.793 -0.4157 -0.3453 -1.3771
   45CHL1  H26B 5805   7.037   3.682   8.960  0.0940 -2.4239  0.7840
   45CHL1  H26C 5806   7.043   3.572   8.826  0.4173 -0.4342  1.3333
   45CHL1   C27 5807   6.773   3.547   8.783 -0.3541  0.7329  0.6196
   45CHL1  H27A 5808   6.814   3.448   8.753 -0.2715  0.5565  1.3106
   45CHL1  H27B 5809   6.667   3.521   8.804 -0.3397 -0.8244 -1.1475
   45CHL1  H27C 5810   6.776   3.622   8.701 -2.5626  0.7812  0.5442
   46CHL1    C3 5811   3.461   0.524  10.085 -0.3465  0.0770  0.4372
   46CHL1    H3 5812   3.419   0.424  10.061 -0.8631  0.3019  0.3875
   46CHL1    O3 5813   3.459   0.553  10.226  0.3933 -0.1133  0.6212
   46CHL1   H3' 5814   3.385   0.503  10.261 -0.3165  2.0700  2.2621
   46CHL1    C4 5815   3.608   0.542  10.044  0.4908  0.1436 -0.3957
   46CHL1   H4A 5816   3.644   0.631  10.098 -0.9132  0.3358  0.2510
   46CHL1   H4B 5817   3.670   0.462  10.089 -0.9489 -1.6360 -1.5028
   46CHL1    C5 5818   3.637   0.544   9.898  0.5328  0.0351  0.9893
   46CHL1    C6 5819   3.738   0.471   9.839  0.3403  0.2228 -0.1759
   46CHL1    H6 5820   3.795   0.405   9.906 -0.7648 -0.3576  0.2184
   46CHL1    C7 5821   3.770   0.480   9.698  0.3386 -0.3091 -0.2195
   46CHL1   H7A 5822   3.876   0.510   9.685 -0.0420  0.5030 -1.4793
   46CHL1   H7B 5823   3.764   0.378   9.653 -0.0007  0.2173 -1.3692
   46CHL1    C8 5824   3.692   0.580   9.613  0.3942 -0.5468  0.0349
   46CHL1    H8 5825   3.744   0.679   9.618  1.5668 -1.1556  0.0714
   46CHL1   C14 5826   3.688   0.538   9.464 -0.1024 -0.1333  0.7764
   46CHL1   H14 5827   3.621   0.451   9.452 -0.1442  0.2120 -1.7365
   46CHL1   C15 5828   3.818   0.498   9.390 -0.5064 -0.1534  0.0602
   46CHL1  H15A 5829   3.887   0.577   9.428  0.3303 -0.7790 -0.1311
   46CHL1  H15B 5830   3.864   0.398   9.408 -0.0983 -0.4062 -2.2429
   46CHL1   C16 5831   3.793   0.525   9.241 -0.1740 -0.2862  0.4578
   46CHL1  H16A 5832   3.852   0.610   9.202 -1.7386 -0.4094 -2.3283
   46CHL1  H16B 5833   3.803   0.428   9.188 -0.1311 -0.0899  0.1090
   46CHL1   C17 5834   3.647   0.575   9.237  0.1124 -0.5223  0.8881
   46CHL1   H17 5835   3.581   0.486   9.238  0.1240 -0.5261  1.3990
   46CHL1   C13 5836   3.618   0.647   9.380  0.0611  0.1174  1.1588
   46CHL1   C18 5837   3.698   0.783   9.373 -0.3245  0.1976 -0.4472
   46CHL1  H18A 5838   3.805   0.769   9.346 -0.2563 -0.0569 -0.0374
   46CHL1  H18B 5839   3.656   0.856   9.300 -0.2160 -0.5884 -1.3018
   46CHL1  H18C 5840   3.697   0.837   9.470  0.3632 -0.6590  0.0365
   46CHL1   C12 5841   3.469   0.656   9.417 -0.0084 -0.2133  0.2839
   46CHL1  H12A 5842   3.419   0.734   9.356  3.1157  1.1779 -0.6363
   46CHL1  H12B 5843   3.416   0.560   9.397 -0.6525  0.5048 -1.6011
   46CHL1   C11 5844   3.455   0.685   9.572 -0.1177  0.0731  0.4458
   46CHL1  H11A 5845   3.466   0.796   9.575  1.6945  0.0532 -2.7762
   46CHL1  H11B 5846   3.350   0.662   9.599 -0.6620  0.3257 -1.3873
   46CHL1    C9 5847   3.549   0.596   9.665  0.1674 -0.2813 -0.0452
   46CHL1    H9 5848   3.496   0.499   9.654 -0.4892  0.1724 -0.9204
   46CHL1   C10 5849   3.542   0.635   9.820  0.6805 -0.6034 -0.0566
   46CHL1   C19 5850   3.589   0.783   9.834  0.1823  0.5830 -0.2235
   46CHL1  H19A 5851   3.690   0.778   9.789 -0.2391 -0.7559 -1.0547
   46CHL1  H19B 5852   3.515   0.849   9.783  0.4433  1.0069 -0.0606
   46CHL1  H19C 5853   3.595   0.812   9.941 -2.2061 -1.0402  0.4019
   46CHL1    C1 5854   3.393   0.634   9.866  0.2922 -0.3626 -0.1031
   46CHL1   H1A 5855   3.334   0.720   9.827  0.5951 -0.3124 -0.4531
   46CHL1   H1B 5856   3.342   0.545   9.823  1.1577 -0.7655 -0.3036
   46CHL1    C2 5857   3.369   0.626  10.017 -0.2910 -0.0234  0.1093
   46CHL1   H2A 5858   3.265   0.591  10.035 -1.1387  0.8753 -2.8701
   46CHL1   H2B 5859   3.388   0.721  10.071  0.7347 -0.8718  1.2882
   46CHL1   C20 5860   3.609   0.650   9.106  0.1544 -0.0988 -0.2395
   46CHL1   H20 5861   3.642   0.756   9.109 -0.8142  0.3094 -2.8325
   46CHL1   C21 5862   3.458   0.636   9.076  0.5481  0.0467 -0.1096
   46CHL1  H21A 5863   3.443   0.700   8.986 -0.4325 -2.7563 -2.0084
   46CHL1  H21B 5864   3.395   0.668   9.162  0.3119 -1.1597  0.1707
   46CHL1  H21C 5865   3.435   0.533   9.043 -0.4734  0.7546 -1.7152
   46CHL1   C22 5866   3.699   0.594   8.986  0.2544  0.7128 -0.2478
   46CHL1  H22A 5867   3.803   0.624   9.011 -0.5117  2.6154  0.7835
   46CHL1  H22B 5868   3.685   0.486   8.968  0.4048  1.2129 -3.6490
   46CHL1   C23 5869   3.679   0.657   8.845 -0.2399 -0.3853  0.1604
   46CHL1  H23A 5870   3.756   0.621   8.774 -1.2323 -0.3894 -0.9328
   46CHL1  H23B 5871   3.591   0.604   8.804  0.7121 -2.2240  0.4550
   46CHL1   C24 5872   3.673   0.813   8.857 -0.2867 -0.2217 -0.1045
   46CHL1  H24A 5873   3.575   0.835   8.905 -0.4366 -0.2174 -0.4090
   46CHL1  H24B 5874   3.752   0.854   8.923 -1.3145 -0.3815  1.2586
   46CHL1   C25 5875   3.673   0.894   8.728  0.0769  0.2186  0.1333
   46CHL1   H25 5876   3.772   0.875   8.681  1.0018 -0.3959  2.2815
   46CHL1   C26 5877   3.565   0.853   8.623  0.3724  0.1659 -0.4330
   46CHL1  H26A 5878   3.560   0.930   8.543  2.1147 -0.8637 -1.5509
   46CHL1  H26B 5879   3.582   0.752   8.583  1.3455 -0.7306  2.1191
   46CHL1  H26C 5880   3.462   0.848   8.666  0.0492 -0.2337 -1.2453
   46CHL1   C27 5881   3.665   1.048   8.768 -0.2681 -0.1480  0.2117
   46CHL1  H27A 5882   3.640   1.109   8.679  2.2807 -0.6279 -0.8682
   46CHL1  H27B 5883   3.597   1.077   8.850  0.1015 -0.8972  0.7941
   46CHL1  H27C 5884   3.769   1.073   8.799 -1.8032  2.5757  3.5672
   47CHL1    C3 5885   3.437   3.877  10.148  0.0405 -0.3501  0.5024
   47CHL1    H3 5886   3.545   3.854  10.135  0.3450 -1.6101  4.5745
   47CHL1    O3 5887   3.380   3.837  10.274  0.0365 -0.6064 -0.0018
   47CHL1   H3' 5888   3.411   3.906  10.334 -1.4336  1.8091 -1.8860
   47CHL1    C4 5889   3.408   4.026  10.122 -0.4205 -0.5794  0.5734
   47CHL1   H4A 5890   3.301   4.042  10.148 -1.1066 -1.9356 -1.3395
   47CHL1   H4B 5891   3.477   4.079  10.191 -0.1247 -2.2024  1.5370
   47CHL1    C5 5892   3.443   4.074   9.979 -0.2006  0.1024 -0.0935
   47CHL1    C6 5893   3.531   4.171   9.947 -0.0200  0.1835 -0.0530
   47CHL1    H6 5894   3.575   4.221  10.035 -1.3948  1.4996 -0.1061
   47CHL1    C7 5895   3.574   4.223   9.809 -0.7916  0.5014 -0.5589
   47CHL1   H7A 5896   3.566   4.333   9.822 -0.4206  0.3565  0.9902
   47CHL1   H7B 5897   3.678   4.189   9.787 -1.6651 -1.1678 -2.1428
   47CHL1    C8 5898   3.474   4.169   9.707  0.3754  0.0007 -0.7866
   47CHL1    H8 5899   3.385   4.236   9.714  0.4906 -0.1235  2.7840
   47CHL1   C14 5900   3.528   4.186   9.571  0.0380  0.5865  0.6151
   47CHL1   H14 5901   3.621   4.129   9.553  0.6663  2.0036 -0.7351
   47CHL1   C15 5902   3.568   4.332   9.533  0.7665  0.2742 -0.3562
   47CHL1  H15A 5903   3.490   4.409   9.553  0.9212 -0.0720  1.7038
   47CHL1  H15B 5904   3.661   4.368   9.583  0.8932  0.6584 -0.8692
   47CHL1   C16 5905   3.598   4.330   9.386  0.6085  0.0486 -0.0746
   47CHL1  H16A 5906   3.557   4.414   9.325  0.1867 -0.2325 -0.1854
   47CHL1  H16B 5907   3.707   4.331   9.367  0.5324  2.9595 -0.5104
   47CHL1   C17 5908   3.535   4.192   9.337  0.3848 -0.2292  0.1487
   47CHL1   H17 5909   3.620   4.121   9.338 -0.1485 -0.8776 -0.0472
   47CHL1   C13 5910   3.444   4.144   9.452  0.6166  0.4425  0.1546
   47CHL1   C18 5911   3.306   4.221   9.443 -0.7462 -0.0714 -0.6973
   47CHL1  H18A 5912   3.248   4.190   9.354 -2.2938 -0.0709  0.2970
   47CHL1  H18B 5913   3.246   4.199   9.534 -1.6305  1.5797 -0.8671
   47CHL1  H18C 5914   3.315   4.332   9.437 -2.8375  0.2458  1.2508
   47CHL1   C12 5915   3.397   3.997   9.464  0.2695 -0.2041 -0.7518
   47CHL1  H12A 5916   3.323   3.972   9.386 -0.7320  1.0504 -0.2351
   47CHL1  H12B 5917   3.482   3.926   9.461  0.8878  0.4172  0.9809
   47CHL1   C11 5918   3.334   3.967   9.607 -0.1823  0.3231  1.0420
   47CHL1  H11A 5919   3.235   4.017   9.618  0.6914  2.1514  0.6761
   47CHL1  H11B 5920   3.319   3.859   9.629  0.5073  0.8128  4.2488
   47CHL1    C9 5921   3.424   4.025   9.723 -0.3591  0.1394 -0.0873
   47CHL1    H9 5922   3.514   3.960   9.713  0.0559  0.8975 -1.3871
   47CHL1   C10 5923   3.364   4.001   9.866 -0.0129 -0.5208 -0.1595
   47CHL1   C19 5924   3.217   4.055   9.877  0.6886 -0.7772  0.4090
   47CHL1  H19A 5925   3.177   4.020   9.974 -0.6828  0.6466  0.3821
   47CHL1  H19B 5926   3.219   4.166   9.863  1.4526 -0.7946  0.3600
   47CHL1  H19C 5927   3.146   4.013   9.803  1.7338 -2.1314  0.1643
   47CHL1    C1 5928   3.382   3.853   9.892  0.0931  0.2775  0.0366
   47CHL1   H1A 5929   3.314   3.789   9.832 -0.5517 -0.3027  1.3754
   47CHL1   H1B 5930   3.487   3.829   9.862 -1.3140 -2.9210 -2.6025
   47CHL1    C2 5931   3.362   3.805  10.039  0.0647 -0.3928 -0.3078
   47CHL1   H2A 5932   3.376   3.694  10.041 -0.2666 -0.4667 -1.4408
   47CHL1   H2B 5933   3.256   3.827  10.063  0.1494 -0.4987  0.1645
   47CHL1   C20 5934   3.486   4.207   9.188 -1.1189  0.0218 -0.9990
   47CHL1   H20 5935   3.404   4.281   9.180 -1.5922 -0.4692 -0.7350
   47CHL1   C21 5936   3.443   4.069   9.138  0.2772  0.1316 -0.2561
   47CHL1  H21A 5937   3.412   4.067   9.031  1.9944 -0.5203 -0.7634
   47CHL1  H21B 5938   3.360   4.012   9.184 -0.5417  0.8916 -0.7770
   47CHL1  H21C 5939   3.535   4.008   9.154  0.6245  0.7302  0.0509
   47CHL1   C22 5940   3.608   4.248   9.092  0.0003 -0.0367  0.2919
   47CHL1  H22A 5941   3.652   4.339   9.139 -1.8793  1.1931 -0.2724
   47CHL1  H22B 5942   3.681   4.164   9.088 -0.8663 -1.0048  3.8592
   47CHL1   C23 5943   3.562   4.285   8.951 -0.1722  0.5363  0.5674
   47CHL1  H23A 5944   3.518   4.199   8.897  0.3512  0.8673 -0.3928
   47CHL1  H23B 5945   3.477   4.352   8.975  0.9113  2.1785 -0.1414
   47CHL1   C24 5946   3.670   4.348   8.865 -0.4896 -0.5794  0.1810
   47CHL1  H24A 5947   3.703   4.441   8.916  1.0369  0.5848 -2.8052
   47CHL1  H24B 5948   3.760   4.284   8.869 -0.6881 -0.8043  1.0901
   47CHL1   C25 5949   3.628   4.375   8.721  0.2916 -0.1073 -0.9023
   47CHL1   H25 5950   3.586   4.285   8.673 -1.0256 -0.3683  0.7217
   47CHL1   C26 5951   3.523   4.495   8.719  0.2027 -0.2509 -0.0815
   47CHL1  H26A 5952   3.438   4.486   8.789  1.8148 -0.5473  1.9133
   47CHL1  H26B 5953   3.496   4.516   8.614  0.4099  0.7598  0.0621
   47CHL1  H26C 5954   3.588   4.580   8.749 -2.4456  2.2226 -1.2356
   47CHL1   C27 5955   3.748   4.417   8.632  0.4656 -0.0905  1.0141
   47CHL1  H27A 5956   3.830   4.343   8.647 -1.3254 -2.2888  0.1965
   47CHL1  H27B 5957   3.714   4.427   8.526  1.1485  0.9240  0.8846
   47CHL1  H27C 5958   3.794   4.509   8.674 -0.6862  0.9677 -0.0126
   48CHL1    C3 5959   4.079   4.913   9.993 -0.7828 -0.0494  0.5896
   48CHL1    H3 5960   4.025   4.819   9.970  1.7101 -0.6539 -3.3464
   48CHL1    O3 5961   4.088   4.920  10.128  0.2010 -0.6638 -0.4663
   48CHL1   H3' 5962   3.997   4.924  10.156  0.2134  0.3156 -0.5421
   48CHL1    C4 5963   4.223   4.899   9.923  0.4810 -0.7439 -0.1937
   48CHL1   H4A 5964   4.285   4.987   9.952 -2.8368  0.7732  2.6595
   48CHL1   H4B 5965   4.266   4.806   9.968  0.9278  0.0990  1.1585
   48CHL1    C5 5966   4.211   4.884   9.769 -0.1116  0.6398  0.0962
   48CHL1    C6 5967   4.260   4.775   9.704  0.0413  0.1430 -0.5938
   48CHL1    H6 5968   4.325   4.709   9.763 -0.2588  1.7865  1.6045
   48CHL1    C7 5969   4.254   4.753   9.558 -0.8775  0.1508 -0.6647
   48CHL1   H7A 5970   4.350   4.722   9.510 -1.0239  0.3990 -1.1302
   48CHL1   H7B 5971   4.176   4.676   9.538 -0.6958 -0.3815  0.6430
   48CHL1    C8 5972   4.228   4.893   9.484  1.0173 -0.1006 -0.1310
   48CHL1    H8 5973   4.313   4.963   9.499  0.5284  0.5702 -0.4664
   48CHL1   C14 5974   4.197   4.873   9.333  0.6543  0.2758  0.0167
   48CHL1   H14 5975   4.111   4.802   9.329  1.3090 -0.4407 -1.7382
   48CHL1   C15 5976   4.300   4.793   9.247 -0.4196  0.0173  0.5930
   48CHL1  H15A 5977   4.406   4.814   9.271 -1.0596  0.9601  2.7427
   48CHL1  H15B 5978   4.291   4.684   9.264  1.3162  0.0888  2.1213
   48CHL1   C16 5979   4.269   4.837   9.104  0.1554 -0.6682 -0.6437
   48CHL1  H16A 5980   4.353   4.896   9.060 -0.6098  1.9129  1.2293
   48CHL1  H16B 5981   4.254   4.751   9.035  2.3380 -2.3383  0.8939
   48CHL1   C17 5982   4.143   4.927   9.111 -0.4559 -0.0571 -0.1235
   48CHL1   H17 5983   4.055   4.860   9.114 -0.2812 -0.2248  1.5847
   48CHL1   C13 5984   4.158   4.996   9.249  0.5267 -0.0516  0.5952
   48CHL1   C18 5985   4.280   5.092   9.253  0.5211 -0.6306  0.4908
   48CHL1  H18A 5986   4.280   5.145   9.155 -0.6879  1.2288  1.4484
   48CHL1  H18B 5987   4.261   5.170   9.330 -2.7929  1.2697 -2.0683
   48CHL1  H18C 5988   4.380   5.050   9.274  2.2731  3.3239  0.5356
   48CHL1   C12 5989   4.028   5.046   9.318 -0.6828  0.2961  0.1001
   48CHL1  H12A 5990   3.984   5.131   9.262  1.9846  1.5740 -0.1066
   48CHL1  H12B 5991   3.948   4.970   9.328 -2.8777  2.3378 -1.4100
   48CHL1   C11 5992   4.054   5.083   9.467 -0.0504 -0.1754  0.4375
   48CHL1  H11A 5993   4.123   5.170   9.458 -1.4011  0.8995  0.3305
   48CHL1  H11B 5994   3.969   5.137   9.512  0.3190 -0.2608  1.2438
   48CHL1    C9 5995   4.107   4.961   9.551 -0.1330  0.2664 -0.3844
   48CHL1    H9 5996   4.024   4.888   9.540 -0.1484  0.1658  0.3716
   48CHL1   C10 5997   4.128   4.993   9.702  0.1259  0.0479  0.1914
   48CHL1   C19 5998   4.211   5.125   9.701  0.5488  0.7472  0.4153
   48CHL1  H19A 5999   4.126   5.195   9.691  0.2679  0.3139 -0.2522
   48CHL1  H19B 6000   4.266   5.141   9.796  0.8685 -0.0305  0.3633
   48CHL1  H19C 6001   4.273   5.129   9.609  0.5922  0.3139  0.4205
   48CHL1    C1 6002   3.995   5.016   9.774 -0.1306 -0.0708 -0.4125
   48CHL1   H1A 6003   3.944   5.103   9.727  2.0238  0.5333 -1.6503
   48CHL1   H1B 6004   3.930   4.930   9.746 -0.7133  0.5583 -1.0210
   48CHL1    C2 6005   4.007   5.034   9.931  0.2215  0.0676  0.4153
   48CHL1   H2A 6006   3.910   5.048   9.983 -0.6083  0.2880 -1.1391
   48CHL1   H2B 6007   4.074   5.117   9.962  0.2030  0.1858  0.1435
   48CHL1   C20 6008   4.124   5.015   8.985 -0.0087 -0.0725 -0.2337
   48CHL1   H20 6009   4.224   5.044   8.944 -0.2136 -0.7105 -1.2069
   48CHL1   C21 6010   4.034   5.136   9.003  0.8084  0.0834 -0.2519
   48CHL1  H21A 6011   4.037   5.184   8.903 -1.5711  2.5405  0.7682
   48CHL1  H21B 6012   4.076   5.206   9.079 -0.7862  1.2156 -0.3784
   48CHL1  H21C 6013   3.930   5.106   9.029  0.2892  0.9386 -1.2808
   48CHL1   C22 6014   4.077   4.943   8.857  0.0689  0.6319 -0.4084
   48CHL1  H22A 6015   4.082   5.008   8.767  0.6145  0.1390 -0.7348
   48CHL1  H22B 6016   4.142   4.855   8.841 -2.9475 -1.5385 -1.3254
   48CHL1   C23 6017   3.930   4.900   8.854  0.8256  0.1801  0.1587
   48CHL1  H23A 6018   3.905   4.849   8.950 -0.2962  0.1570 -0.1404
   48CHL1  H23B 6019   3.855   4.982   8.848 -1.1350 -1.5040  1.0401
   48CHL1   C24 6020   3.890   4.798   8.739 -0.0615 -0.6058  0.2667
   48CHL1  H24A 6021   3.984   4.748   8.707  0.5698  3.3511 -4.6510
   48CHL1  H24B 6022   3.815   4.726   8.780  1.9092 -3.4333 -0.9602
   48CHL1   C25 6023   3.822   4.867   8.612  0.2600 -0.5633 -0.4420
   48CHL1   H25 6024   3.714   4.877   8.635  0.0138 -1.7716 -1.0403
   48CHL1   C26 6025   3.868   5.005   8.574 -0.6304  0.8445  0.1007
   48CHL1  H26A 6026   3.853   5.076   8.658  1.0089 -0.8621  1.9150
   48CHL1  H26B 6027   3.975   5.016   8.544 -0.9241  0.2994 -1.1547
   48CHL1  H26C 6028   3.809   5.046   8.490  2.5755  2.4587 -1.4736
   48CHL1   C27 6029   3.816   4.773   8.491 -0.2942 -0.0311  0.0083
   48CHL1  H27A 6030   3.745   4.811   8.415  0.1099  0.1036 -0.3072
   48CHL1  H27B 6031   3.919   4.765   8.450  0.5115 -0.5159  2.0643
   48CHL1  H27C 6032   3.781   4.669   8.511 -0.9927  0.4806  1.4944
   49CHL1    C3 6033   2.511   0.805  10.230 -0.3968 -0.4636  0.1994
   49CHL1    H3 6034   2.426   0.736  10.251  0.3219 -1.5339 -0.3836
   49CHL1    O3 6035   2.560   0.852  10.354 -0.6377 -0.9640 -0.4474
   49CHL1   H3' 6036   2.483   0.891  10.396  0.6296  1.0024  0.1227
   49CHL1    C4 6037   2.618   0.717  10.159 -0.1102 -0.3333  0.0092
   49CHL1   H4A 6038   2.717   0.767  10.156  0.1033 -0.7678 -0.1035
   49CHL1   H4B 6039   2.631   0.634  10.231  1.7960  1.0121  1.2366
   49CHL1    C5 6040   2.580   0.677  10.018  0.9794 -0.1828 -0.0865
   49CHL1    C6 6041   2.578   0.548   9.985  0.3423 -0.5079  0.3790
   49CHL1    H6 6042   2.627   0.486  10.061  1.9312 -0.1803 -0.3416
   49CHL1    C7 6043   2.548   0.500   9.845  0.2023  0.4417  0.1618
   49CHL1   H7A 6044   2.637   0.444   9.808 -0.0961  0.6536 -0.8874
   49CHL1   H7B 6045   2.460   0.432   9.847 -0.4803  1.2989 -0.1602
   49CHL1    C8 6046   2.525   0.612   9.739 -0.4388 -0.1133 -0.2769
   49CHL1    H8 6047   2.624   0.646   9.701 -1.0235  3.3828  1.1967
   49CHL1   C14 6048   2.446   0.554   9.622 -0.0024  0.0619 -0.2403
   49CHL1   H14 6049   2.344   0.524   9.657 -1.1720  3.4238 -0.5298
   49CHL1   C15 6050   2.507   0.431   9.556  0.6148 -0.1491  0.3655
   49CHL1  H15A 6051   2.614   0.445   9.533  0.3342 -0.1666 -0.9496
   49CHL1  H15B 6052   2.516   0.338   9.617  0.7713 -0.0971  0.4207
   49CHL1   C16 6053   2.424   0.421   9.424 -0.0569  0.4751  0.0417
   49CHL1  H16A 6054   2.478   0.395   9.331 -0.8480 -0.6780 -0.1142
   49CHL1  H16B 6055   2.347   0.343   9.444  0.2159 -0.1261 -1.1516
   49CHL1   C17 6056   2.342   0.560   9.421  0.6550 -0.3552 -0.0268
   49CHL1   H17 6057   2.240   0.541   9.461  0.1444  2.8083  0.3310
   49CHL1   C13 6058   2.421   0.657   9.513  0.4532 -0.3305 -0.2370
   49CHL1   C18 6059   2.551   0.705   9.447  0.4901 -0.1021 -0.1302
   49CHL1  H18A 6060   2.529   0.786   9.374  1.3304  0.1728 -0.0922
   49CHL1  H18B 6061   2.616   0.756   9.522  1.8542  0.5328 -1.7044
   49CHL1  H18C 6062   2.618   0.620   9.421  1.7632  0.7197  0.3932
   49CHL1   C12 6063   2.342   0.777   9.574 -0.3074 -0.1069 -0.3795
   49CHL1  H12A 6064   2.324   0.862   9.505 -1.1859 -0.3163 -0.4104
   49CHL1  H12B 6065   2.244   0.737   9.605 -1.2312 -0.2826 -3.3532
   49CHL1   C11 6066   2.421   0.841   9.694  0.4272 -0.0350 -1.0690
   49CHL1  H11A 6067   2.500   0.903   9.645 -1.4428  1.8425 -1.7474
   49CHL1  H11B 6068   2.367   0.926   9.739  0.8664  0.8869 -2.2545
   49CHL1    C9 6069   2.452   0.734   9.800  0.6697 -0.4851 -0.0878
   49CHL1    H9 6070   2.352   0.694   9.828 -0.0156  0.1481 -1.5784
   49CHL1   C10 6071   2.519   0.795   9.925  1.0276  0.2490 -0.1126
   49CHL1   C19 6072   2.627   0.903   9.880 -0.5226 -0.6792 -1.0378
   49CHL1  H19A 6073   2.685   0.852   9.800 -0.1177 -1.6470 -0.1345
   49CHL1  H19B 6074   2.577   0.992   9.837  0.2843  0.8445  1.1293
   49CHL1  H19C 6075   2.689   0.933   9.967 -0.3450 -0.1834 -1.3364
   49CHL1    C1 6076   2.413   0.877  10.008 -0.1172 -0.4139  0.2019
   49CHL1   H1A 6077   2.386   0.965   9.946 -0.0982 -1.1344 -0.8330
   49CHL1   H1B 6078   2.330   0.809  10.037 -0.4171 -1.4660 -3.0024
   49CHL1    C2 6079   2.467   0.924  10.147 -0.2830  0.2148  0.7689
   49CHL1   H2A 6080   2.391   0.993  10.189 -0.4626 -1.3660  3.1446
   49CHL1   H2B 6081   2.550   0.993  10.120 -1.2773  1.2997  0.4090
   49CHL1   C20 6082   2.322   0.614   9.276 -0.1277 -0.1757 -0.1626
   49CHL1   H20 6083   2.423   0.635   9.234 -0.1205 -0.9408 -0.5395
   49CHL1   C21 6084   2.232   0.735   9.271  0.0168 -0.0235  1.1619
   49CHL1  H21A 6085   2.273   0.827   9.318  1.1812 -1.1991  2.5141
   49CHL1  H21B 6086   2.131   0.727   9.317 -0.7111 -1.1595 -0.6232
   49CHL1  H21C 6087   2.205   0.775   9.171 -3.2529 -2.9094  0.8149
   49CHL1   C22 6088   2.276   0.497   9.178 -0.8069 -0.6671  0.4477
   49CHL1  H22A 6089   2.335   0.404   9.193  0.7954  0.1889 -0.4590
   49CHL1  H22B 6090   2.172   0.462   9.198 -1.2099  0.6912  0.7778
   49CHL1   C23 6091   2.294   0.543   9.032 -0.5174  0.9028 -0.9393
   49CHL1  H23A 6092   2.224   0.625   9.007  0.8444  1.5067 -2.8627
   49CHL1  H23B 6093   2.395   0.589   9.023 -0.8792  1.7185 -0.9131
   49CHL1   C24 6094   2.274   0.425   8.926  0.4512 -0.0002  0.0579
   49CHL1  H24A 6095   2.357   0.355   8.946  2.1695  2.4612  1.8247
   49CHL1  H24B 6096   2.173   0.379   8.935  1.1866 -1.3364  1.7468
   49CHL1   C25 6097   2.280   0.472   8.777  0.4429  0.0292  0.4614
   49CHL1   H25 6098   2.195   0.544   8.775 -0.8457 -1.4246 -4.8558
   49CHL1   C26 6099   2.401   0.560   8.732  0.1722  0.6717  0.6238
   49CHL1  H26A 6100   2.414   0.659   8.780  2.4734  0.1802  1.0563
   49CHL1  H26B 6101   2.499   0.508   8.742 -0.2029 -0.6661 -2.0514
   49CHL1  H26C 6102   2.386   0.574   8.623 -1.9938 -3.2809  0.3046
   49CHL1   C27 6103   2.248   0.351   8.683 -0.8979 -0.1474  0.2250
   49CHL1  H27A 6104   2.175   0.278   8.722  0.3087 -1.8273 -0.5855
   49CHL1  H27B 6105   2.212   0.384   8.583  0.2764 -2.5887 -1.0454
   49CHL1  H27C 6106   2.340   0.298   8.651 -0.6522  1.1103 -1.2503
   50CHL1    C3 6107   6.008   2.441  10.302 -0.2645 -0.6766  0.3265
   50CHL1    H3 6108   6.089   2.518  10.300 -0.4046 -0.5240  0.4955
   50CHL1    O3 6109   5.932   2.440  10.418  0.0608  0.4834  0.1919
   50CHL1   H3' 6110   5.846   2.404  10.397 -1.8525  1.7763  5.2563
   50CHL1    C4 6111   5.910   2.458  10.182 -0.5421  0.3594 -0.2856
   50CHL1   H4A 6112   5.839   2.373  10.191 -0.1230  0.0708  0.3158
   50CHL1   H4B 6113   5.866   2.559  10.197 -1.1790 -0.3308  2.8365
   50CHL1    C5 6114   5.997   2.445  10.056  0.0346  0.8303  0.1274
   50CHL1    C6 6115   5.990   2.535   9.956  0.7841  0.0439 -0.0100
   50CHL1    H6 6116   5.925   2.624   9.957 -0.0830 -0.5774  2.6791
   50CHL1    C7 6117   6.080   2.541   9.836 -0.1615  0.0022  0.2420
   50CHL1   H7A 6118   6.018   2.571   9.749  0.9381 -1.9321 -1.2191
   50CHL1   H7B 6119   6.171   2.604   9.842 -1.0889  1.4200 -0.2901
   50CHL1    C8 6120   6.134   2.398   9.809  0.6473 -0.1077  0.6177
   50CHL1    H8 6121   6.048   2.336   9.778  0.9737  0.5496 -1.7313
   50CHL1   C14 6122   6.240   2.409   9.694  0.5888  0.0004 -0.6190
   50CHL1   H14 6123   6.332   2.456   9.734  0.4259 -0.6548  0.5460
   50CHL1   C15 6124   6.203   2.492   9.569 -0.3499 -0.0389 -0.0032
   50CHL1  H15A 6125   6.105   2.472   9.521  0.0077  2.1522 -1.7091
   50CHL1  H15B 6126   6.223   2.599   9.591 -2.5084  0.5703 -0.8540
   50CHL1   C16 6127   6.310   2.446   9.465 -0.2999 -0.1706 -0.0958
   50CHL1  H16A 6128   6.267   2.412   9.369  1.2387  0.1582 -0.9213
   50CHL1  H16B 6129   6.380   2.529   9.441  1.1083 -0.9587  1.2465
   50CHL1   C17 6130   6.386   2.321   9.526 -0.0150 -0.1472  0.0779
   50CHL1   H17 6131   6.480   2.360   9.571  0.0809  0.6506 -0.8060
   50CHL1   C13 6132   6.295   2.274   9.642 -0.1374  0.1342  0.4371
   50CHL1   C18 6133   6.177   2.194   9.578 -0.4886  0.3759  0.2737
   50CHL1  H18A 6134   6.127   2.250   9.496  0.2248 -0.5094 -0.7810
   50CHL1  H18B 6135   6.198   2.091   9.542 -0.3627  0.1563  0.9748
   50CHL1  H18C 6136   6.093   2.180   9.649 -1.2477 -1.9220 -1.0308
   50CHL1   C12 6137   6.365   2.205   9.768 -0.4356 -0.9288  0.7860
   50CHL1  H12A 6138   6.402   2.102   9.746 -0.1530 -1.1156  2.1066
   50CHL1  H12B 6139   6.450   2.273   9.792  0.1805 -0.4220 -2.5273
   50CHL1   C11 6140   6.266   2.195   9.889 -0.2327  0.1917  0.1206
   50CHL1  H11A 6141   6.194   2.122   9.846 -0.5144  0.7830 -0.4309
   50CHL1  H11B 6142   6.320   2.152   9.976 -0.7801 -0.6183  0.0595
   50CHL1    C9 6143   6.197   2.329   9.928  0.9289  0.2247  0.3415
   50CHL1    H9 6144   6.273   2.406   9.951 -0.2728  2.1568 -1.9273
   50CHL1   C10 6145   6.096   2.323  10.044 -0.1378 -0.3439 -0.7264
   50CHL1   C19 6146   6.007   2.196  10.020  0.7817 -0.1285 -0.5236
   50CHL1  H19A 6147   5.926   2.185  10.095  1.4514  0.7372  0.3318
   50CHL1  H19B 6148   5.964   2.211   9.918 -2.5988 -1.5984  0.6163
   50CHL1  H19C 6149   6.070   2.105  10.015 -0.0835 -1.0380  3.6770
   50CHL1    C1 6150   6.173   2.314  10.176  0.2762 -0.0444 -1.1474
   50CHL1   H1A 6151   6.235   2.221  10.178  0.0062 -0.2008  0.6147
   50CHL1   H1B 6152   6.247   2.394  10.197  0.4604 -0.1214 -1.4875
   50CHL1    C2 6153   6.087   2.310  10.298 -0.0230  0.0440 -0.2044
   50CHL1   H2A 6154   6.154   2.292  10.385  0.2951 -1.1001 -0.6738
   50CHL1   H2B 6155   6.021   2.220  10.299 -1.7087  1.2547  0.0869
   50CHL1   C20 6156   6.428   2.225   9.413  0.3457 -0.0057  0.1222
   50CHL1   H20 6157   6.339   2.201   9.351  1.6307  0.3252 -1.8872
   50CHL1   C21 6158   6.488   2.096   9.472  0.5588 -0.4699  0.0435
   50CHL1  H21A 6159   6.503   2.032   9.382  1.3523  2.1144 -1.6942
   50CHL1  H21B 6160   6.418   2.045   9.542  0.1677  0.8725  0.6440
   50CHL1  H21C 6161   6.585   2.122   9.518 -1.0157  1.1820  2.5839
   50CHL1   C22 6162   6.519   2.290   9.311 -0.2304 -0.2050  0.3665
   50CHL1  H22A 6163   6.483   2.394   9.294 -1.5078 -0.7340 -0.1335
   50CHL1  H22B 6164   6.620   2.307   9.356  0.2473  0.4343 -0.9165
   50CHL1   C23 6165   6.527   2.208   9.180 -0.3359 -0.0231 -0.0233
   50CHL1  H23A 6166   6.603   2.128   9.193 -1.6561 -1.4690 -1.0199
   50CHL1  H23B 6167   6.428   2.160   9.164 -0.2349 -0.3837  0.4272
   50CHL1   C24 6168   6.581   2.280   9.054  0.1387  0.5302  0.0210
   50CHL1  H24A 6169   6.582   2.214   8.964  0.7184 -1.5813  1.5438
   50CHL1  H24B 6170   6.502   2.355   9.034 -1.5995 -1.1908  0.3080
   50CHL1   C25 6171   6.717   2.354   9.071 -0.3544  0.5451 -0.4320
   50CHL1   H25 6172   6.701   2.430   9.151  3.6574 -0.9495  1.9111
   50CHL1   C26 6173   6.829   2.262   9.111  0.1339  0.1771  0.0018
   50CHL1  H26A 6174   6.797   2.184   9.184 -1.4879  1.2857  0.5144
   50CHL1  H26B 6175   6.868   2.205   9.024 -2.4535 -0.4292 -0.8048
   50CHL1  H26C 6176   6.910   2.319   9.161 -1.1571  1.4210  0.7000
   50CHL1   C27 6177   6.749   2.431   8.946  0.1184 -0.4489  0.4975
   50CHL1  H27A 6178   6.664   2.498   8.920  0.8639  0.8951  1.4614
   50CHL1  H27B 6179   6.835   2.499   8.965 -0.9346  0.6997  1.3197
   50CHL1  H27C 6180   6.770   2.356   8.868  1.4810  0.2390  0.1957
   51CHL1    C3 6181   0.284   4.694  10.355 -0.1051  0.2588 -0.8389
   51CHL1    H3 6182   0.230   4.599  10.332  1.4705 -0.9431  0.2676
   51CHL1    O3 6183   0.298   4.697  10.495  0.3776 -0.5292 -0.1849
   51CHL1   H3' 6184   0.214   4.731  10.527  1.3001  2.3188 -0.5929
   51CHL1    C4 6185   0.422   4.676  10.292 -0.0043  0.5123  0.5654
   51CHL1   H4A 6186   0.485   4.757  10.334 -0.0709  0.6074  0.4800
   51CHL1   H4B 6187   0.469   4.581  10.324  1.2704  0.3728 -1.6622
   51CHL1    C5 6188   0.440   4.692  10.143 -0.4573 -0.4617  0.0259
   51CHL1    C6 6189   0.511   4.607  10.067  0.5783  0.4935 -0.3788
   51CHL1    H6 6190   0.565   4.526  10.117 -0.5671 -0.7756 -1.1729
   51CHL1    C7 6191   0.523   4.621   9.916  0.3647 -0.1598  0.0999
   51CHL1   H7A 6192   0.629   4.597   9.893 -0.0353 -1.6914 -0.2423
   51CHL1   H7B 6193   0.467   4.535   9.872 -1.5006  0.2536  1.5574
   51CHL1    C8 6194   0.465   4.754   9.861  0.0191  0.2771  0.3260
   51CHL1    H8 6195   0.542   4.834   9.874 -0.0494 -0.0258  2.6535
   51CHL1   C14 6196   0.427   4.727   9.718 -0.5555  0.4440 -0.4251
   51CHL1   H14 6197   0.340   4.658   9.713 -0.8738  0.9097 -1.5393
   51CHL1   C15 6198   0.532   4.665   9.621  0.4992 -0.1518  0.1415
   51CHL1  H15A 6199   0.627   4.722   9.628  0.7756 -0.5486 -0.4274
   51CHL1  H15B 6200   0.556   4.561   9.652 -2.8707 -0.3264  2.5177
   51CHL1   C16 6201   0.473   4.684   9.480 -0.1537  0.9126  0.0328
   51CHL1  H16A 6202   0.548   4.742   9.423 -1.1390  0.0863 -2.1762
   51CHL1  H16B 6203   0.434   4.603   9.415 -0.3400  1.2995 -0.3458
   51CHL1   C17 6204   0.355   4.788   9.500  0.0615 -0.3191  0.9331
   51CHL1   H17 6205   0.263   4.726   9.514 -2.5676  3.1433 -0.4180
   51CHL1   C13 6206   0.368   4.842   9.641  0.3858  0.1676 -0.5103
   51CHL1   C18 6207   0.466   4.968   9.634  0.7234  0.5741  0.2776
   51CHL1  H18A 6208   0.421   5.047   9.570  0.0095  0.6751  0.9006
   51CHL1  H18B 6209   0.473   5.014   9.735  1.5195  1.5453 -0.2121
   51CHL1  H18C 6210   0.571   4.941   9.608  0.9212  0.3660  1.2685
   51CHL1   C12 6211   0.237   4.881   9.718 -0.5396  0.0383 -0.8809
   51CHL1  H12A 6212   0.198   4.978   9.681  1.8306  0.9932 -0.9465
   51CHL1  H12B 6213   0.163   4.800   9.698 -0.5301 -0.0056 -0.7405
   51CHL1   C11 6214   0.260   4.900   9.869  0.4583  0.6341  0.0794
   51CHL1  H11A 6215   0.313   4.996   9.884 -1.3165  1.3147  2.2171
   51CHL1  H11B 6216   0.163   4.918   9.919  0.3727  0.1628  0.0888
   51CHL1    C9 6217   0.342   4.784   9.936 -1.0635  0.0701 -0.8133
   51CHL1    H9 6218   0.277   4.694   9.927  1.4521 -1.8348 -0.3273
   51CHL1   C10 6219   0.356   4.806  10.092  0.4738  0.4987  0.0061
   51CHL1   C19 6220   0.438   4.930  10.113 -0.6080 -0.0778 -0.4992
   51CHL1  H19A 6221   0.546   4.920  10.088 -0.3770  0.6766  0.1618
   51CHL1  H19B 6222   0.396   5.020  10.064 -1.1986 -0.1249 -0.0965
   51CHL1  H19C 6223   0.441   4.958  10.221  2.6638 -0.3407 -0.4573
   51CHL1    C1 6224   0.211   4.810  10.150  0.5198 -0.1969 -0.1610
   51CHL1   H1A 6225   0.182   4.911  10.113  2.5028 -0.0263 -1.3009
   51CHL1   H1B 6226   0.154   4.730  10.097 -0.6803 -0.0948  0.9514
   51CHL1    C2 6227   0.205   4.813  10.304  0.2905  0.1039 -0.6190
   51CHL1   H2A 6228   0.098   4.813  10.334 -0.1779  0.2160 -2.2534
   51CHL1   H2B 6229   0.252   4.904  10.347 -0.0291  0.6648 -1.4579
   51CHL1   C20 6230   0.334   4.876   9.374 -0.5904 -0.2905  0.3185
   51CHL1   H20 6231   0.419   4.946   9.366  0.3257 -1.4689 -0.4925
   51CHL1   C21 6232   0.206   4.966   9.376 -0.3146 -0.2546  0.6559
   51CHL1  H21A 6233   0.212   5.041   9.294 -0.6379 -1.2401 -0.2783
   51CHL1  H21B 6234   0.183   5.016   9.472 -0.5461  3.1783 -1.0864
   51CHL1  H21C 6235   0.127   4.891   9.352 -0.9302  0.7266 -0.4414
   51CHL1   C22 6236   0.337   4.794   9.240  0.6426  0.3414  0.5096
   51CHL1  H22A 6237   0.436   4.748   9.218  0.0740  0.9632 -3.5594
   51CHL1  H22B 6238   0.262   4.714   9.256 -1.1756  1.3286 -2.6660
   51CHL1   C23 6239   0.304   4.871   9.114  0.4774  0.1267  0.2868
   51CHL1  H23A 6240   0.198   4.904   9.109  0.4123 -0.3564 -3.0604
   51CHL1  H23B 6241   0.364   4.965   9.115  1.2071 -0.3377  0.1586
   51CHL1   C24 6242   0.344   4.806   8.987  0.4084 -0.1643 -0.1881
   51CHL1  H24A 6243   0.452   4.781   8.989  0.3249 -0.4786  0.4752
   51CHL1  H24B 6244   0.291   4.708   8.986 -0.2297  0.1678  0.1768
   51CHL1   C25 6245   0.334   4.896   8.864 -0.8310 -0.5556 -0.5116
   51CHL1   H25 6246   0.399   4.985   8.881 -0.6633 -1.2433  2.8874
   51CHL1   C26 6247   0.388   4.828   8.738 -0.4746 -0.0363 -0.1795
   51CHL1  H26A 6248   0.493   4.795   8.751 -0.4689 -0.3102 -0.8924
   51CHL1  H26B 6249   0.322   4.739   8.727  1.4419 -1.5288 -0.0232
   51CHL1  H26C 6250   0.382   4.900   8.655  1.6302  0.9582  0.4989
   51CHL1   C27 6251   0.182   4.938   8.840  0.0471 -0.2862 -0.2437
   51CHL1  H27A 6252   0.184   5.005   8.751  2.5218  0.7868  0.5765
   51CHL1  H27B 6253   0.124   4.847   8.814 -1.3569 -0.1929  2.4078
   51CHL1  H27C 6254   0.130   4.992   8.921  0.1274 -0.4712 -0.0668
   52CHL1    C3 6255   3.398   3.248   9.962 -0.8857  0.7707 -0.6114
   52CHL1    H3 6256   3.416   3.144   9.930  3.0654  1.3476 -0.4818
   52CHL1    O3 6257   3.409   3.257  10.103 -0.2244  0.0997  0.3731
   52CHL1   H3' 6258   3.386   3.347  10.128 -1.2358 -0.1806  0.4754
   52CHL1    C4 6259   3.509   3.333   9.901  0.1096 -0.2658  0.1329
   52CHL1   H4A 6260   3.507   3.434   9.947  0.7085 -0.6573  1.0367
   52CHL1   H4B 6261   3.604   3.293   9.943 -0.4079 -0.4297  1.1790
   52CHL1    C5 6262   3.506   3.335   9.750  0.0035 -0.0304  0.5679
   52CHL1    C6 6263   3.606   3.284   9.673  0.1345  0.6926  0.7239
   52CHL1    H6 6264   3.698   3.244   9.720  0.6990  2.1965  0.9124
   52CHL1    C7 6265   3.605   3.293   9.526  1.1938 -0.1557 -0.7162
   52CHL1   H7A 6266   3.706   3.331   9.499  1.7953  0.1706  1.8706
   52CHL1   H7B 6267   3.575   3.196   9.481 -0.6417 -0.9810  2.1554
   52CHL1    C8 6268   3.505   3.401   9.469 -0.2153  0.7594 -0.1528
   52CHL1    H8 6269   3.536   3.502   9.504  0.2875 -0.6190  3.6147
   52CHL1   C14 6270   3.492   3.402   9.322 -0.1178 -0.3565 -0.7545
   52CHL1   H14 6271   3.461   3.296   9.314  0.7036 -1.1087  4.4197
   52CHL1   C15 6272   3.614   3.431   9.230  0.2034 -0.6744 -0.3566
   52CHL1  H15A 6273   3.659   3.528   9.263 -1.7253 -0.0271  0.4567
   52CHL1  H15B 6274   3.690   3.354   9.254 -1.8059 -2.2012  1.2766
   52CHL1   C16 6275   3.563   3.442   9.096  0.2069 -0.4004 -0.1646
   52CHL1  H16A 6276   3.609   3.529   9.044 -0.0282 -0.5875 -0.6938
   52CHL1  H16B 6277   3.578   3.350   9.036  2.6833 -0.8392  1.0759
   52CHL1   C17 6278   3.409   3.464   9.106  0.6396 -0.5247 -0.2314
   52CHL1   H17 6279   3.364   3.365   9.085  0.0112 -0.6122  1.4105
   52CHL1   C13 6280   3.386   3.492   9.261  0.1156  0.4658 -0.2032
   52CHL1   C18 6281   3.410   3.645   9.279 -0.7120  0.5453 -0.6362
   52CHL1  H18A 6282   3.326   3.703   9.236 -0.6458  0.3171 -1.0720
   52CHL1  H18B 6283   3.422   3.671   9.387 -0.6511  0.7773 -0.7003
   52CHL1  H18C 6284   3.510   3.669   9.237  0.1525 -3.3541 -1.0859
   52CHL1   C12 6285   3.245   3.443   9.311  0.1430  0.4904  1.1358
   52CHL1  H12A 6286   3.166   3.513   9.275 -1.8310 -2.5885 -0.6822
   52CHL1  H12B 6287   3.227   3.340   9.274  1.6325  0.1772  1.2348
   52CHL1   C11 6288   3.254   3.459   9.462  0.0401 -0.2726 -0.4745
   52CHL1  H11A 6289   3.257   3.568   9.483 -2.4050 -0.7806  2.8289
   52CHL1  H11B 6290   3.155   3.433   9.504 -0.5604 -0.2262 -1.8415
   52CHL1    C9 6291   3.368   3.383   9.538 -0.2598 -0.1193 -0.1167
   52CHL1    H9 6292   3.363   3.275   9.514  0.5857 -0.3343  0.6714
   52CHL1   C10 6293   3.380   3.395   9.691  0.2075 -0.3575  0.2848
   52CHL1   C19 6294   3.363   3.543   9.729  0.6665  0.4602 -0.3544
   52CHL1  H19A 6295   3.264   3.586   9.699  0.1298 -0.0529  0.6834
   52CHL1  H19B 6296   3.375   3.562   9.838 -0.2057  1.0742 -0.3565
   52CHL1  H19C 6297   3.431   3.609   9.671 -0.8097  0.6034 -2.0018
   52CHL1    C1 6298   3.263   3.318   9.762 -0.0863 -0.3689 -0.3431
   52CHL1   H1A 6299   3.164   3.360   9.735  0.0417  0.5113  0.5389
   52CHL1   H1B 6300   3.272   3.218   9.715  1.6007 -0.7250  0.6966
   52CHL1    C2 6301   3.259   3.304   9.914 -0.1880 -0.3632 -0.5158
   52CHL1   H2A 6302   3.189   3.225   9.948 -1.1650  0.0266 -1.5611
   52CHL1   H2B 6303   3.234   3.401   9.963 -0.4717  0.8035 -2.8547
   52CHL1   C20 6304   3.355   3.559   9.004  0.1332 -0.0813  0.1459
   52CHL1   H20 6305   3.385   3.663   9.030  0.5500 -0.6577  2.0738
   52CHL1   C21 6306   3.200   3.556   8.985  0.0343 -0.3261  0.3971
   52CHL1  H21A 6307   3.178   3.617   8.895 -1.7538 -0.6895  0.5681
   52CHL1  H21B 6308   3.151   3.601   9.074  0.8244 -1.8712  1.6459
   52CHL1  H21C 6309   3.159   3.457   8.953 -0.2019 -0.4180  0.9732
   52CHL1   C22 6310   3.409   3.547   8.860  0.9667  0.4119  0.8677
   52CHL1  H22A 6311   3.346   3.608   8.792 -0.4307 -1.5300  0.3712
   52CHL1  H22B 6312   3.511   3.590   8.869  1.1422  0.4029 -1.0732
   52CHL1   C23 6313   3.417   3.412   8.784  0.3518  0.3049 -0.1590
   52CHL1  H23A 6314   3.441   3.327   8.852 -0.9753  1.3903  1.7263
   52CHL1  H23B 6315   3.318   3.381   8.742  0.1450 -1.2817  1.4473
   52CHL1   C24 6316   3.515   3.430   8.666  0.7722 -0.6995 -1.0373
   52CHL1  H24A 6317   3.486   3.504   8.588  0.8439  0.9476  0.4636
   52CHL1  H24B 6318   3.616   3.452   8.708 -0.3079  2.1738  0.1234
   52CHL1   C25 6319   3.539   3.301   8.587 -0.1566  0.3115 -0.2741
   52CHL1   H25 6320   3.568   3.221   8.658 -1.2754 -0.2375 -0.4344
   52CHL1   C26 6321   3.418   3.249   8.508  0.1366 -0.9977  0.2141
   52CHL1  H26A 6322   3.414   3.305   8.413 -0.6185 -0.6642  0.4390
   52CHL1  H26B 6323   3.429   3.141   8.481  2.2666 -0.7935  0.1631
   52CHL1  H26C 6324   3.318   3.272   8.551 -0.1557  0.1818 -1.0634
   52CHL1   C27 6325   3.661   3.307   8.488 -0.7003  0.0546  0.2316
   52CHL1  H27A 6326   3.650   3.399   8.427 -3.3282 -0.1883  0.3021
   52CHL1  H27B 6327   3.756   3.330   8.542 -1.3226  2.1322  0.4782
   52CHL1  H27C 6328   3.671   3.212   8.431  1.7267  0.7565 -0.5522
   53CHL1    C3 6329   4.503   3.139  10.083 -0.5184 -0.4505  0.5584
   53CHL1    H3 6330   4.467   3.041  10.045 -3.7928  0.4353  1.2714
   53CHL1    O3 6331   4.501   3.134  10.227 -0.1714 -0.1110 -0.1764
   53CHL1   H3' 6332   4.543   3.213  10.261  1.5373 -0.3461 -1.6436
   53CHL1    C4 6333   4.645   3.165  10.033  0.1887  0.2452  0.3918
   53CHL1   H4A 6334   4.686   3.260  10.075 -0.1790 -0.0656  1.4676
   53CHL1   H4B 6335   4.711   3.087  10.076 -0.4985 -0.4863  0.1225
   53CHL1    C5 6336   4.647   3.169   9.885  0.2675 -0.6613  0.3650
   53CHL1    C6 6337   4.703   3.074   9.813 -0.2589 -0.4047  0.2924
   53CHL1    H6 6338   4.770   3.007   9.869  2.1390  1.8263  0.1908
   53CHL1    C7 6339   4.711   3.071   9.661 -0.0362 -0.0859  0.3419
   53CHL1   H7A 6340   4.810   3.041   9.622 -1.7874 -2.9746 -2.0732
   53CHL1   H7B 6341   4.642   2.988   9.636 -0.4808  0.2211  0.5454
   53CHL1    C8 6342   4.657   3.202   9.593  0.7795 -0.1428 -0.0453
   53CHL1    H8 6343   4.736   3.280   9.601 -0.1939  0.9221 -0.5910
   53CHL1   C14 6344   4.618   3.185   9.445 -0.3314 -0.1001  0.5758
   53CHL1   H14 6345   4.533   3.114   9.456 -2.5474  2.5384  1.1525
   53CHL1   C15 6346   4.729   3.120   9.359  0.7323  0.1588 -0.5745
   53CHL1  H15A 6347   4.826   3.170   9.382 -0.4700  2.7080 -0.8955
   53CHL1  H15B 6348   4.739   3.012   9.384  0.3349 -0.1096 -1.5841
   53CHL1   C16 6349   4.689   3.168   9.216  0.3748 -0.2126 -0.1063
   53CHL1  H16A 6350   4.772   3.233   9.182 -0.1369 -0.5236 -1.9886
   53CHL1  H16B 6351   4.693   3.082   9.146  2.9276  0.2861 -0.6218
   53CHL1   C17 6352   4.560   3.254   9.227  0.0902 -0.7762 -0.1057
   53CHL1   H17 6353   4.474   3.184   9.224 -3.9504  3.8488  0.1293
   53CHL1   C13 6354   4.559   3.308   9.373  1.6459  0.5616  0.8997
   53CHL1   C18 6355   4.660   3.423   9.377 -0.4190 -0.5262  0.3366
   53CHL1  H18A 6356   4.688   3.448   9.481  3.8236  1.1555 -1.1143
   53CHL1  H18B 6357   4.750   3.388   9.323 -0.1469  2.4908 -1.3069
   53CHL1  H18C 6358   4.623   3.512   9.321 -1.9458 -2.2225 -1.4419
   53CHL1   C12 6359   4.426   3.338   9.438 -0.4639 -0.9493 -0.2989
   53CHL1  H12A 6360   4.376   3.427   9.393 -1.4824 -1.6419 -0.5555
   53CHL1  H12B 6361   4.362   3.247   9.441  0.1823 -1.4224 -0.7895
   53CHL1   C11 6362   4.458   3.369   9.584 -0.2431  0.5398  0.4765
   53CHL1  H11A 6363   4.516   3.461   9.607 -1.6112  1.1188  1.6452
   53CHL1  H11B 6364   4.362   3.381   9.638 -0.0857  1.9966  0.4439
   53CHL1    C9 6365   4.532   3.254   9.668 -0.2013  0.1246  0.4520
   53CHL1    H9 6366   4.455   3.175   9.659 -1.1164  0.6866  2.9695
   53CHL1   C10 6367   4.549   3.271   9.820 -0.5997  0.2227  0.4620
   53CHL1   C19 6368   4.596   3.418   9.848  0.2440  0.6155 -0.6561
   53CHL1  H19A 6369   4.597   3.450   9.954  1.2059  1.9547 -1.0549
   53CHL1  H19B 6370   4.699   3.429   9.808  0.1364 -1.4302 -1.5471
   53CHL1  H19C 6371   4.521   3.481   9.796  0.6444  1.3304 -0.3750
   53CHL1    C1 6372   4.407   3.256   9.885  0.0418 -0.3161 -0.3011
   53CHL1   H1A 6373   4.334   3.333   9.851  0.9739  0.6555 -0.1329
   53CHL1   H1B 6374   4.361   3.161   9.851 -0.7340 -0.2268  0.4834
   53CHL1    C2 6375   4.412   3.251  10.036  0.1105  0.5160  0.1744
   53CHL1   H2A 6376   4.314   3.235  10.086 -0.4238  1.5588 -0.5089
   53CHL1   H2B 6377   4.442   3.351  10.075  1.1289 -0.0558  0.8604
   53CHL1   C20 6378   4.537   3.350   9.108 -0.1575 -0.3239  0.5690
   53CHL1   H20 6379   4.608   3.435   9.112  0.4980 -0.5362 -4.2564
   53CHL1   C21 6380   4.390   3.405   9.117  0.3681 -0.2956 -0.0863
   53CHL1  H21A 6381   4.392   3.497   9.178 -0.4233  1.5144 -2.7480
   53CHL1  H21B 6382   4.326   3.324   9.159  1.3517  0.0691  2.1668
   53CHL1  H21C 6383   4.363   3.438   9.015 -0.7588 -0.0945  0.2775
   53CHL1   C22 6384   4.570   3.286   8.973 -0.4715  0.2092 -0.2206
   53CHL1  H22A 6385   4.570   3.364   8.893  0.2523 -1.0436 -1.4648
   53CHL1  H22B 6386   4.673   3.244   8.976 -0.4677  0.2408  0.0844
   53CHL1   C23 6387   4.477   3.172   8.927 -0.0696 -0.5236 -0.6267
   53CHL1  H23A 6388   4.491   3.088   8.998  0.8071  0.8563  0.8519
   53CHL1  H23B 6389   4.374   3.210   8.905 -0.2757 -0.6664  0.0792
   53CHL1   C24 6390   4.511   3.110   8.792 -0.1741 -0.4598  0.4344
   53CHL1  H24A 6391   4.602   3.046   8.791  0.6679  0.7120 -0.2322
   53CHL1  H24B 6392   4.422   3.046   8.772  0.8237 -2.0087  0.8858
   53CHL1   C25 6393   4.527   3.201   8.673 -0.0539  0.6400  0.1221
   53CHL1   H25 6394   4.612   3.272   8.683 -0.0682  0.9429 -1.6712
   53CHL1   C26 6395   4.567   3.104   8.557  0.0461  0.3403  0.3550
   53CHL1  H26A 6396   4.512   3.008   8.560 -0.4994  0.6792  1.2898
   53CHL1  H26B 6397   4.546   3.154   8.460  1.5451 -0.4109 -0.3932
   53CHL1  H26C 6398   4.673   3.075   8.576 -0.7437 -1.3311  2.3028
   53CHL1   C27 6399   4.404   3.280   8.641  0.7668 -0.4921  0.4325
   53CHL1  H27A 6400   4.303   3.234   8.652  0.2088  0.7083  0.4322
   53CHL1  H27B 6401   4.397   3.367   8.711  3.1787 -1.5868  2.1045
   53CHL1  H27C 6402   4.405   3.329   8.541 -0.3195 -0.7960  0.2687
   54CHL1    C3 6403   4.616   4.341  10.014 -0.9346 -0.2800  0.3514
   54CHL1    H3 6404   4.724   4.315  10.025 -0.1076  2.7392 -0.2540
   54CHL1    O3 6405   4.545   4.351  10.136  1.2399 -0.0016 -0.2324
   54CHL1   H3' 6406   4.453   4.354  10.109  1.6612  1.2678 -1.5342
   54CHL1    C4 6407   4.593   4.475   9.947  0.3548 -0.3042 -0.3124
   54CHL1   H4A 6408   4.487   4.504   9.964  0.7072  2.4938 -2.6497
   54CHL1   H4B 6409   4.655   4.542  10.010 -0.5807 -1.3634  1.7967
   54CHL1    C5 6410   4.629   4.470   9.801 -0.3711 -0.2528  0.2336
   54CHL1    C6 6411   4.702   4.569   9.750 -0.1597  0.0868  0.5127
   54CHL1    H6 6412   4.730   4.650   9.819  1.0479  0.1947 -0.0975
   54CHL1    C7 6413   4.722   4.589   9.604 -0.5603  0.0251  0.0499
   54CHL1   H7A 6414   4.700   4.687   9.558  0.5833  0.7157  0.9358
   54CHL1   H7B 6415   4.825   4.560   9.577 -0.2257  1.5465 -0.3515
   54CHL1    C8 6416   4.646   4.495   9.501 -0.1272 -0.3106  0.4633
   54CHL1    H8 6417   4.540   4.528   9.496  0.0363 -0.1823 -3.3899
   54CHL1   C14 6418   4.719   4.491   9.365  0.6347  0.3955 -0.1194
   54CHL1   H14 6419   4.827   4.466   9.376  0.4607 -0.2661  0.1425
   54CHL1   C15 6420   4.725   4.627   9.291  0.5384 -0.5709 -0.3038
   54CHL1  H15A 6421   4.631   4.684   9.302  1.0631  0.2170  0.1303
   54CHL1  H15B 6422   4.808   4.693   9.324 -1.6619  2.4063 -0.5776
   54CHL1   C16 6423   4.751   4.587   9.147  0.3224 -0.1186 -0.0992
   54CHL1  H16A 6424   4.681   4.643   9.081 -1.4073  0.2101  1.9702
   54CHL1  H16B 6425   4.850   4.624   9.113  1.2790 -1.7965  0.7970
   54CHL1   C17 6426   4.741   4.434   9.137  0.1668  0.1743 -0.6314
   54CHL1   H17 6427   4.846   4.406   9.161 -0.1312 -0.8696 -0.5209
   54CHL1   C13 6428   4.661   4.394   9.266  0.1693  0.1437 -0.2254
   54CHL1   C18 6429   4.515   4.426   9.236  0.0481 -0.4569 -0.1437
   54CHL1  H18A 6430   4.450   4.435   9.326  0.1651  3.0823 -0.3335
   54CHL1  H18B 6431   4.498   4.515   9.172 -0.8468 -0.5539 -0.0525
   54CHL1  H18C 6432   4.472   4.341   9.180  0.3079  0.1384 -1.2530
   54CHL1   C12 6433   4.672   4.249   9.337 -0.4929 -0.5570 -0.1465
   54CHL1  H12A 6434   4.628   4.171   9.272 -1.4318 -2.0516  2.2282
   54CHL1  H12B 6435   4.781   4.235   9.353 -0.4598 -0.0132  0.1197
   54CHL1   C11 6436   4.610   4.238   9.477 -0.6204  0.2659 -0.4554
   54CHL1  H11A 6437   4.501   4.235   9.459 -0.4991  0.9443 -1.2898
   54CHL1  H11B 6438   4.638   4.138   9.517  1.6106  1.3077  0.6577
   54CHL1    C9 6439   4.657   4.351   9.568  0.2434  0.4385  0.1105
   54CHL1    H9 6440   4.764   4.328   9.588 -0.4820 -0.8639  2.6475
   54CHL1   C10 6441   4.580   4.354   9.708 -0.0066  1.1121  0.0685
   54CHL1   C19 6442   4.431   4.373   9.682 -0.2376 -0.4202 -0.1691
   54CHL1  H19A 6443   4.394   4.283   9.629  1.7093 -1.5257  0.2736
   54CHL1  H19B 6444   4.373   4.370   9.777  0.2510  2.1297  0.2358
   54CHL1  H19C 6445   4.406   4.467   9.629  3.9642  0.9462  0.0711
   54CHL1    C1 6446   4.610   4.226   9.790 -0.0852 -0.3209  0.5860
   54CHL1   H1A 6447   4.554   4.142   9.743 -0.5390 -0.1892  0.8812
   54CHL1   H1B 6448   4.718   4.204   9.777 -0.0217  1.5222 -2.6334
   54CHL1    C2 6449   4.567   4.220   9.933 -0.1018  0.1224 -0.1471
   54CHL1   H2A 6450   4.619   4.133   9.978 -1.8953 -0.7944  0.1932
   54CHL1   H2B 6451   4.457   4.206   9.930 -0.4140  2.2040  0.6141
   54CHL1   C20 6452   4.698   4.389   9.004  0.0198 -0.5725 -1.0347
   54CHL1   H20 6453   4.588   4.402   8.999  0.1790  0.7210 -1.1126
   54CHL1   C21 6454   4.722   4.233   8.987 -0.5427  0.2595  0.4700
   54CHL1  H21A 6455   4.693   4.167   9.071 -2.9130 -0.9066 -1.2149
   54CHL1  H21B 6456   4.831   4.217   8.973 -0.6366  0.0241 -0.0213
   54CHL1  H21C 6457   4.676   4.202   8.891  2.8463  0.9422 -1.4603
   54CHL1   C22 6458   4.758   4.460   8.881 -0.9874 -0.3787  0.0298
   54CHL1  H22A 6459   4.727   4.566   8.881  0.4463  0.0489  0.4407
   54CHL1  H22B 6460   4.868   4.447   8.868 -1.1080  0.1995 -1.7447
   54CHL1   C23 6461   4.713   4.399   8.742  0.3542 -0.0751 -0.0687
   54CHL1  H23A 6462   4.774   4.307   8.729 -1.3133 -1.2697  0.4039
   54CHL1  H23B 6463   4.605   4.375   8.754 -0.0012  0.8701 -1.2475
   54CHL1   C24 6464   4.730   4.481   8.605 -0.0475 -0.1697  0.6069
   54CHL1  H24A 6465   4.643   4.550   8.594  0.5989  0.3439 -1.5550
   54CHL1  H24B 6466   4.827   4.536   8.611 -0.7175  0.8615  2.3175
   54CHL1   C25 6467   4.727   4.375   8.486 -0.2945 -0.2863 -0.2771
   54CHL1   H25 6468   4.797   4.294   8.517 -0.4967 -0.0882  0.7105
   54CHL1   C26 6469   4.581   4.315   8.472 -1.2982 -0.6310  0.1911
   54CHL1  H26A 6470   4.494   4.384   8.464 -0.6839  0.0576 -0.7591
   54CHL1  H26B 6471   4.572   4.255   8.379  0.9471  0.3451 -0.6981
   54CHL1  H26C 6472   4.554   4.260   8.565 -2.5342 -2.5515 -1.2711
   54CHL1   C27 6473   4.756   4.431   8.342 -0.4605 -0.6115  0.3407
   54CHL1  H27A 6474   4.696   4.523   8.324 -1.3736 -1.6287 -1.9873
   54CHL1  H27B 6475   4.864   4.456   8.342 -0.4770 -0.4336 -2.0165
   54CHL1  H27C 6476   4.736   4.359   8.259 -2.2720  0.2706 -0.0016
   55CHL1    C3 6477   5.531   2.087  10.001 -0.3692  0.3388  0.3219
   55CHL1    H3 6478   5.487   1.991   9.969  2.5407 -1.1054  0.5109
   55CHL1    O3 6479   5.519   2.099  10.141  0.0682 -0.3333  0.3399
   55CHL1   H3' 6480   5.570   2.021  10.162  3.1051  0.8644 -2.1812
   55CHL1    C4 6481   5.683   2.082   9.961  0.0013 -0.0231  0.1383
   55CHL1   H4A 6482   5.730   2.170  10.011 -1.2356 -0.2897  1.8432
   55CHL1   H4B 6483   5.724   1.989  10.006 -0.4800  0.9863  2.7841
   55CHL1    C5 6484   5.699   2.092   9.808  0.4402 -0.9731 -0.4042
   55CHL1    C6 6485   5.759   1.992   9.741  0.5797 -1.0414 -0.0478
   55CHL1    H6 6486   5.803   1.908   9.796 -1.3335 -2.4062 -0.5509
   55CHL1    C7 6487   5.775   2.003   9.592 -0.5265 -0.8265 -0.5528
   55CHL1   H7A 6488   5.875   1.967   9.559 -0.4136 -0.7021 -0.3438
   55CHL1   H7B 6489   5.704   1.943   9.530 -1.2146  0.3990 -0.9613
   55CHL1    C8 6490   5.754   2.141   9.538 -0.5287 -0.4985  0.6844
   55CHL1    H8 6491   5.846   2.199   9.562  1.0910 -2.8504  0.3234
   55CHL1   C14 6492   5.748   2.135   9.389  0.0243 -0.3407  0.4118
   55CHL1   H14 6493   5.653   2.081   9.367 -0.4396  1.1213 -1.2760
   55CHL1   C15 6494   5.858   2.060   9.307  0.8007 -1.0913 -0.4561
   55CHL1  H15A 6495   5.955   2.093   9.349  1.0692 -2.4150 -0.0086
   55CHL1  H15B 6496   5.852   1.950   9.323  0.4278 -0.7480  1.8954
   55CHL1   C16 6497   5.832   2.101   9.167 -0.6414 -0.1196 -0.5379
   55CHL1  H16A 6498   5.921   2.159   9.132  0.4320 -0.2217  1.8960
   55CHL1  H16B 6499   5.796   2.022   9.098  0.5116  0.4845 -1.8627
   55CHL1   C17 6500   5.730   2.214   9.172 -0.0672  0.1813 -0.0734
   55CHL1   H17 6501   5.638   2.152   9.163  0.7119 -0.9592 -0.2242
   55CHL1   C13 6502   5.732   2.273   9.320 -0.0616  0.1958  0.1916
   55CHL1   C18 6503   5.861   2.362   9.339  0.0963  0.3906 -0.3612
   55CHL1  H18A 6504   5.946   2.309   9.290  1.5531  0.0186  2.4806
   55CHL1  H18B 6505   5.851   2.458   9.284  1.1155 -1.0493 -3.1843
   55CHL1  H18C 6506   5.878   2.389   9.445 -0.4534  0.5093 -0.3028
   55CHL1   C12 6507   5.604   2.342   9.361  0.7664 -0.1029 -0.1185
   55CHL1  H12A 6508   5.594   2.447   9.327  0.7721  0.1462  0.6465
   55CHL1  H12B 6509   5.514   2.287   9.327  0.8309  0.4954 -1.2695
   55CHL1   C11 6510   5.594   2.347   9.517 -0.0869  0.1823 -0.0040
   55CHL1  H11A 6511   5.665   2.422   9.558 -0.0391  0.3146 -0.3353
   55CHL1  H11B 6512   5.486   2.365   9.535 -0.1885  1.2861 -1.6765
   55CHL1    C9 6513   5.630   2.213   9.593 -0.0305  1.1239  0.9746
   55CHL1    H9 6514   5.546   2.145   9.566  1.2370  0.0204 -0.3014
   55CHL1   C10 6515   5.625   2.220   9.751 -0.5911 -0.4220  0.3604
   55CHL1   C19 6516   5.707   2.339   9.795  0.2668  0.8507 -0.0157
   55CHL1  H19A 6517   5.671   2.433   9.749 -0.5654  0.0639 -1.0136
   55CHL1  H19B 6518   5.722   2.354   9.904  1.7963 -0.1753 -0.0577
   55CHL1  H19C 6519   5.806   2.326   9.746  0.1408 -0.8832  0.1551
   55CHL1    C1 6520   5.479   2.225   9.796  0.5371  0.3021  0.5681
   55CHL1   H1A 6521   5.426   2.313   9.753 -0.4248 -0.3357  0.4244
   55CHL1   H1B 6522   5.413   2.154   9.743 -0.7400  1.4400  0.6040
   55CHL1    C2 6523   5.461   2.210   9.941  0.2413  0.2725 -0.1526
   55CHL1   H2A 6524   5.354   2.223   9.966 -0.1097 -0.7981 -1.0867
   55CHL1   H2B 6525   5.506   2.306   9.977  0.0829  0.9326 -1.6989
   55CHL1   C20 6526   5.732   2.313   9.050  0.1636  0.2789  0.4085
   55CHL1   H20 6527   5.834   2.357   9.058  0.4621 -0.3868  0.2754
   55CHL1   C21 6528   5.631   2.428   9.058 -0.6874  0.3181 -0.1351
   55CHL1  H21A 6529   5.668   2.499   9.135  1.6904 -1.5773  0.5544
   55CHL1  H21B 6530   5.532   2.389   9.090 -0.0833 -1.9557 -0.9024
   55CHL1  H21C 6531   5.624   2.483   8.962  0.1480 -0.7355 -0.8201
   55CHL1   C22 6532   5.719   2.237   8.913 -0.1359  0.1258  0.3216
   55CHL1  H22A 6533   5.790   2.151   8.912  0.6144  0.7348  0.6420
   55CHL1  H22B 6534   5.616   2.197   8.899  0.9689 -1.9551 -2.5724
   55CHL1   C23 6535   5.749   2.319   8.784 -0.2507 -0.6422  0.1740
   55CHL1  H23A 6536   5.692   2.411   8.761 -1.7396 -1.1645  1.6720
   55CHL1  H23B 6537   5.859   2.333   8.781 -0.2166 -0.8392  0.4412
   55CHL1   C24 6538   5.713   2.231   8.664 -0.2198  0.1759 -0.3383
   55CHL1  H24A 6539   5.779   2.142   8.655 -1.6477 -0.8801 -0.3797
   55CHL1  H24B 6540   5.610   2.195   8.684  0.2107 -0.9864 -0.2147
   55CHL1   C25 6541   5.717   2.302   8.530 -0.0611  0.4362 -0.5633
   55CHL1   H25 6542   5.714   2.210   8.467 -3.7717 -0.0125  0.1459
   55CHL1   C26 6543   5.601   2.400   8.506 -0.9162 -0.0341 -0.1495
   55CHL1  H26A 6544   5.592   2.473   8.589 -0.6462 -1.6670  1.3404
   55CHL1  H26B 6545   5.625   2.462   8.417 -0.7600  0.7221  0.4249
   55CHL1  H26C 6546   5.506   2.351   8.478 -1.5725  2.3846 -2.3155
   55CHL1   C27 6547   5.856   2.368   8.519  0.7327  0.1275  0.2742
   55CHL1  H27A 6548   5.885   2.374   8.411  5.0694  2.2821  1.4584
   55CHL1  H27B 6549   5.864   2.463   8.575  3.9321  0.8408 -1.2909
   55CHL1  H27C 6550   5.938   2.305   8.559  2.2710  2.5300  1.0053
   56CHL1    C3 6551   3.043   0.238  10.221 -0.0305  0.5093 -0.0229
   56CHL1    H3 6552   3.137   0.291  10.247 -0.5923  0.5547  2.0109
   56CHL1    O3 6553   3.003   0.171  10.344 -0.5643 -0.5818 -0.0020
   56CHL1   H3' 6554   3.020   0.076  10.343 -0.9794 -0.6494 -1.1981
   56CHL1    C4 6555   2.938   0.337  10.180  0.4316 -0.6498  0.1282
   56CHL1   H4A 6556   2.836   0.293  10.180 -0.0347  0.3581 -1.3482
   56CHL1   H4B 6557   2.935   0.419  10.255 -0.1186  0.0503 -0.6414
   56CHL1    C5 6558   2.960   0.390  10.043  1.0920 -0.7126  0.2925
   56CHL1    C6 6559   2.955   0.523  10.031  0.0549 -0.1000  0.5424
   56CHL1    H6 6560   2.936   0.586  10.119 -0.0368  1.3959 -0.5113
   56CHL1    C7 6561   2.971   0.589   9.895  0.0758 -0.8362 -0.0128
   56CHL1   H7A 6562   2.893   0.667   9.886  1.0968  0.2068  0.0909
   56CHL1   H7B 6563   3.065   0.647   9.909 -1.0852  1.4596 -1.5973
   56CHL1    C8 6564   2.969   0.496   9.771  0.0566 -0.2083 -0.2503
   56CHL1    H8 6565   2.864   0.460   9.766 -0.4803  0.8729  2.2608
   56CHL1   C14 6566   3.026   0.564   9.645 -0.1263 -0.4508 -0.3531
   56CHL1   H14 6567   3.125   0.609   9.671 -1.2659  1.3710  0.9664
   56CHL1   C15 6568   2.950   0.689   9.602 -0.2134  0.6593  0.4250
   56CHL1  H15A 6569   2.840   0.678   9.620 -0.2009  1.4497  1.0108
   56CHL1  H15B 6570   2.998   0.773   9.657 -1.2916  0.5566  1.5477
   56CHL1   C16 6571   2.973   0.697   9.451  0.5595  0.0567  0.2549
   56CHL1  H16A 6572   2.883   0.683   9.387 -0.1023 -0.4862  1.2945
   56CHL1  H16B 6573   3.035   0.788   9.439 -0.2716  0.3356 -2.2107
   56CHL1   C17 6574   3.068   0.578   9.414  0.3266 -0.6845  0.4803
   56CHL1   H17 6575   3.174   0.610   9.425 -0.2646  1.0768  1.2716
   56CHL1   C13 6576   3.036   0.470   9.528  0.0330 -0.7418 -0.0258
   56CHL1   C18 6577   2.895   0.412   9.497  0.2409 -0.1665 -0.0521
   56CHL1  H18A 6578   2.821   0.493   9.483  0.7449  0.1885 -0.6859
   56CHL1  H18B 6579   2.908   0.343   9.411  0.7460 -1.2150  0.8538
   56CHL1  H18C 6580   2.854   0.343   9.575  0.2416 -1.2911 -1.0306
   56CHL1   C12 6581   3.135   0.362   9.558  0.0735  0.5839 -0.5551
   56CHL1  H12A 6582   3.157   0.291   9.475 -0.3518 -0.4447  0.1983
   56CHL1  H12B 6583   3.228   0.409   9.597 -0.1907  0.0574  0.7356
   56CHL1   C11 6584   3.094   0.283   9.684 -0.2974  0.3223  0.5872
   56CHL1  H11A 6585   3.006   0.226   9.648  0.2974 -2.1164  2.9044
   56CHL1  H11B 6586   3.181   0.220   9.709 -0.8214 -1.1561 -1.2405
   56CHL1    C9 6587   3.060   0.375   9.806  0.0461 -0.0529  0.2724
   56CHL1    H9 6588   3.155   0.420   9.843  1.5755 -3.0989  0.2234
   56CHL1   C10 6589   3.009   0.294   9.930 -0.2404 -0.2372 -0.2534
   56CHL1   C19 6590   2.892   0.202   9.891 -0.5064  1.4774  0.1188
   56CHL1  H19A 6591   2.829   0.163   9.974 -1.1450  1.2621 -0.4609
   56CHL1  H19B 6592   2.821   0.246   9.818  1.4877  1.7276 -1.7000
   56CHL1  H19C 6593   2.930   0.111   9.840  1.2229  2.8417 -1.0987
   56CHL1    C1 6594   3.123   0.212   9.987  0.2827 -0.2727  0.0967
   56CHL1   H1A 6595   3.150   0.128   9.919 -1.1078 -2.1699  1.8574
   56CHL1   H1B 6596   3.219   0.268   9.995 -0.1996  0.5566  0.1128
   56CHL1    C2 6597   3.081   0.135  10.115 -0.0585 -0.4823 -0.1982
   56CHL1   H2A 6598   3.167   0.084  10.162 -0.2946 -0.0165  0.7510
   56CHL1   H2B 6599   2.991   0.072  10.097 -0.9360  0.7573 -0.2550
   56CHL1   C20 6600   3.054   0.526   9.267 -0.0111 -0.6439  0.4012
   56CHL1   H20 6601   2.951   0.484   9.256 -1.1375  2.5423 -2.0012
   56CHL1   C21 6602   3.158   0.418   9.242  0.0508  0.4269 -0.0270
   56CHL1  H21A 6603   3.262   0.427   9.281 -0.2961  0.7768  0.8260
   56CHL1  H21B 6604   3.168   0.404   9.132  3.2282 -0.0216  0.2453
   56CHL1  H21C 6605   3.118   0.325   9.287  0.1828  0.5699  0.3916
   56CHL1   C22 6606   3.069   0.642   9.158 -0.5084  1.0609  0.6419
   56CHL1  H22A 6607   3.024   0.735   9.200 -0.4987  2.2273 -1.8922
   56CHL1  H22B 6608   3.178   0.663   9.164 -0.3445  0.6749 -0.9916
   56CHL1   C23 6609   3.024   0.613   9.013  0.4698  0.0337  0.2404
   56CHL1  H23A 6610   3.056   0.512   8.978 -0.1355 -0.4713  1.1112
   56CHL1  H23B 6611   2.914   0.601   9.010  0.4912 -0.3116  0.6748
   56CHL1   C24 6612   3.063   0.729   8.915  0.8613 -0.4200 -0.9352
   56CHL1  H24A 6613   3.020   0.821   8.960 -1.4004 -1.7475 -0.3463
   56CHL1  H24B 6614   3.174   0.726   8.903  0.7008  3.2932 -4.6918
   56CHL1   C25 6615   3.019   0.712   8.773  0.0577  0.2688  0.8247
   56CHL1   H25 6616   3.071   0.627   8.724 -0.2708 -1.1917  2.9532
   56CHL1   C26 6617   2.869   0.686   8.764  0.2971  0.1831 -0.0357
   56CHL1  H26A 6618   2.811   0.753   8.831  3.7017  2.5834  0.6357
   56CHL1  H26B 6619   2.841   0.687   8.657 -0.2029 -0.4813  0.0837
   56CHL1  H26C 6620   2.847   0.583   8.801 -1.1521  0.7960  0.8620
   56CHL1   C27 6621   3.065   0.831   8.686  0.7219 -0.1061  0.5847
   56CHL1  H27A 6622   3.037   0.804   8.582  1.0788 -2.0165  0.9565
   56CHL1  H27B 6623   3.010   0.924   8.712 -0.5849 -0.4057 -0.9869
   56CHL1  H27C 6624   3.175   0.835   8.698  0.7307 -1.8662  1.3661
   57CHL1    C3 6625   5.480   3.027  10.237 -0.1027 -0.1632  0.1444
   57CHL1    H3 6626   5.419   2.935  10.238 -0.0891 -0.1712  0.2370
   57CHL1    O3 6627   5.497   3.067  10.369  0.6887  0.2055  0.5227
   57CHL1   H3' 6628   5.431   3.134  10.389  1.4430  1.3176 -0.7055
   57CHL1    C4 6629   5.620   2.976  10.184 -0.4472 -0.3881  0.2069
   57CHL1   H4A 6630   5.696   3.052  10.213 -1.2215  0.2383  0.6247
   57CHL1   H4B 6631   5.641   2.894  10.255 -0.2559  0.6308  1.3532
   57CHL1    C5 6632   5.616   2.934  10.040 -0.3430 -0.3899  0.2367
   57CHL1    C6 6633   5.663   2.812  10.002 -0.0862  0.2489 -0.1773
   57CHL1    H6 6634   5.705   2.746  10.078 -0.4017  1.4807  1.0772
   57CHL1    C7 6635   5.671   2.782   9.861  0.0580 -0.0641  0.2160
   57CHL1   H7A 6636   5.765   2.728   9.837  0.9765  1.0453  1.2523
   57CHL1   H7B 6637   5.584   2.724   9.823  0.9233 -0.8659 -0.5439
   57CHL1    C8 6638   5.677   2.907   9.770 -0.4948 -0.6772 -0.4259
   57CHL1    H8 6639   5.773   2.963   9.778 -0.6538 -0.3902 -0.5224
   57CHL1   C14 6640   5.664   2.857   9.624  0.4670 -0.1582 -0.4853
   57CHL1   H14 6641   5.562   2.812   9.614 -0.8608  2.7718 -0.6358
   57CHL1   C15 6642   5.765   2.745   9.575 -0.1537  0.2095 -0.3765
   57CHL1  H15A 6643   5.868   2.772   9.607 -1.2890  0.9524  2.7927
   57CHL1  H15B 6644   5.734   2.654   9.629  2.8609 -1.5213 -1.4504
   57CHL1   C16 6645   5.752   2.744   9.425 -0.1348 -0.3416 -0.2425
   57CHL1  H16A 6646   5.853   2.749   9.378 -0.7602 -0.9630 -1.6992
   57CHL1  H16B 6647   5.694   2.657   9.389 -2.1352  0.2509  1.4781
   57CHL1   C17 6648   5.665   2.874   9.393  0.3224 -0.2297  0.1276
   57CHL1   H17 6649   5.559   2.842   9.385  0.1538  0.3900 -0.2362
   57CHL1   C13 6650   5.668   2.965   9.517  0.3595 -0.2806  0.0327
   57CHL1   C18 6651   5.800   3.037   9.520 -0.6232  0.3951  0.4151
   57CHL1  H18A 6652   5.881   2.967   9.490  0.2582  2.0819 -1.1515
   57CHL1  H18B 6653   5.794   3.109   9.436 -1.2617  0.2487  0.3300
   57CHL1  H18C 6654   5.830   3.091   9.612  1.5176  1.1132 -0.6872
   57CHL1   C12 6655   5.542   3.054   9.548  0.8738  0.2032 -0.2478
   57CHL1  H12A 6656   5.534   3.140   9.478 -0.3891 -0.4721 -0.9462
   57CHL1  H12B 6657   5.451   2.993   9.534 -0.6412  2.9360 -2.8543
   57CHL1   C11 6658   5.540   3.105   9.696 -0.2939  0.4783 -0.5487
   57CHL1  H11A 6659   5.622   3.180   9.696  0.2544 -0.1125 -1.7373
   57CHL1  H11B 6660   5.452   3.170   9.720 -0.4300  0.4352 -0.9148
   57CHL1    C9 6661   5.563   2.998   9.802 -0.0885  0.1437  0.5539
   57CHL1    H9 6662   5.471   2.935   9.804  1.1424 -1.8348 -2.1189
   57CHL1   C10 6663   5.570   3.052   9.948  0.6604 -0.1951 -0.2674
   57CHL1   C19 6664   5.676   3.160   9.958 -0.7748  0.9301  0.1925
   57CHL1  H19A 6665   5.633   3.241   9.895  1.6614  0.3956 -2.3099
   57CHL1  H19B 6666   5.701   3.188  10.062  0.0370  2.8653 -0.4892
   57CHL1  H19C 6667   5.769   3.141   9.899 -1.3232  0.1982 -0.4405
   57CHL1    C1 6668   5.425   3.102   9.996 -0.1718 -0.3770  0.0802
   57CHL1   H1A 6669   5.390   3.197   9.949  1.9451  0.6226  0.4495
   57CHL1   H1B 6670   5.358   3.016   9.977 -0.6556 -0.0971  0.5231
   57CHL1    C2 6671   5.416   3.140  10.147 -0.7014  0.0592  0.0667
   57CHL1   H2A 6672   5.311   3.154  10.180 -0.3101 -2.3703  2.6023
   57CHL1   H2B 6673   5.473   3.235  10.153 -0.2473 -0.2475  0.7655
   57CHL1   C20 6674   5.685   2.943   9.255  0.5739  0.5941 -0.2263
   57CHL1   H20 6675   5.778   3.002   9.242  0.5175  0.4140 -1.4552
   57CHL1   C21 6676   5.567   3.028   9.222 -0.0988  0.3750  0.2535
   57CHL1  H21A 6677   5.568   3.066   9.118 -0.2387  0.3434  0.2406
   57CHL1  H21B 6678   5.566   3.120   9.285  1.6080 -0.0103  0.8752
   57CHL1  H21C 6679   5.475   2.968   9.240  0.1166  0.0946  0.4216
   57CHL1   C22 6680   5.694   2.828   9.147 -0.1439 -0.7957 -0.5699
   57CHL1  H22A 6681   5.763   2.743   9.168  0.7773  0.5523  2.0543
   57CHL1  H22B 6682   5.593   2.792   9.121 -0.0085  1.7586 -5.1602
   57CHL1   C23 6683   5.762   2.881   9.017  0.2284 -0.0160  0.3701
   57CHL1  H23A 6684   5.706   2.968   8.977  0.0623  1.2925  3.3388
   57CHL1  H23B 6685   5.865   2.916   9.042  0.7915 -1.6436  0.4287
   57CHL1   C24 6686   5.753   2.767   8.917 -0.3302 -0.4034 -0.1494
   57CHL1  H24A 6687   5.820   2.685   8.948 -0.7161  0.0777  1.9886
   57CHL1  H24B 6688   5.649   2.733   8.900 -0.9659  1.7731 -0.8425
   57CHL1   C25 6689   5.801   2.818   8.774 -0.2607  0.6903 -1.0891
   57CHL1   H25 6690   5.893   2.876   8.793  0.3451 -0.1930 -1.2995
   57CHL1   C26 6691   5.827   2.698   8.683  0.1594 -0.0123 -0.2914
   57CHL1  H26A 6692   5.891   2.622   8.734  0.8952 -0.3629 -1.7032
   57CHL1  H26B 6693   5.735   2.640   8.662  0.0918 -0.3388  0.8647
   57CHL1  H26C 6694   5.879   2.726   8.589 -0.1413  1.2156 -0.0898
   57CHL1   C27 6695   5.709   2.913   8.702 -0.0774 -0.5984  0.8586
   57CHL1  H27A 6696   5.701   3.011   8.754  0.1775  0.2895 -0.7479
   57CHL1  H27B 6697   5.761   2.949   8.611 -1.5334 -0.0834  0.2158
   57CHL1  H27C 6698   5.608   2.869   8.686  0.5538 -1.6697 -0.2618
   58CHL1    C3 6699   1.344   1.425  10.158  0.9204 -0.5099 -0.7389
   58CHL1    H3 6700   1.292   1.523  10.158 -0.8195 -1.4006  0.6396
   58CHL1    O3 6701   1.352   1.416  10.292 -0.1114  0.0993 -0.1185
   58CHL1   H3' 6702   1.387   1.497  10.329  2.0526 -0.2349 -1.3215
   58CHL1    C4 6703   1.246   1.325  10.082 -0.3172  0.4625  0.1387
   58CHL1   H4A 6704   1.291   1.224  10.091  0.9590  1.0555  0.4811
   58CHL1   H4B 6705   1.149   1.334  10.136  0.9545  1.9475  2.3098
   58CHL1    C5 6706   1.230   1.364   9.941  0.2227  0.0615 -0.4660
   58CHL1    C6 6707   1.113   1.401   9.893  1.0992  0.3587 -0.1536
   58CHL1    H6 6708   1.022   1.387   9.953  0.5189  1.9709 -0.6163
   58CHL1    C7 6709   1.087   1.438   9.752 -0.3966 -0.0568 -0.3478
   58CHL1   H7A 6710   1.006   1.376   9.708 -0.7869 -0.3845  0.7992
   58CHL1   H7B 6711   1.063   1.546   9.752  1.4224  0.3635 -0.7762
   58CHL1    C8 6712   1.212   1.408   9.666  0.8047  0.0828  0.9072
   58CHL1    H8 6713   1.218   1.302   9.632 -0.2711  1.1468 -2.9129
   58CHL1   C14 6714   1.203   1.484   9.534  0.8174  0.4039  0.0536
   58CHL1   H14 6715   1.189   1.591   9.562  1.1358  0.1988  1.0085
   58CHL1   C15 6716   1.077   1.461   9.445 -0.1566  0.2579  0.2224
   58CHL1  H15A 6717   1.085   1.358   9.404  0.4478  0.0979  0.7230
   58CHL1  H15B 6718   0.980   1.478   9.496  0.3402  1.6695  0.7342
   58CHL1   C16 6719   1.101   1.543   9.314  0.4708  0.1278 -0.3644
   58CHL1  H16A 6720   1.050   1.492   9.229 -1.3241  1.2971 -0.0202
   58CHL1  H16B 6721   1.037   1.634   9.315 -0.5643 -0.5939 -0.2065
   58CHL1   C17 6722   1.258   1.562   9.312  0.6294  0.0798 -0.6852
   58CHL1   H17 6723   1.271   1.670   9.333  0.1638  0.4846 -2.3655
   58CHL1   C13 6724   1.317   1.482   9.433 -0.5243 -0.2981  0.0578
   58CHL1   C18 6725   1.350   1.333   9.387  0.2325  0.6756  0.2767
   58CHL1  H18A 6726   1.449   1.326   9.338 -0.4473  0.5283 -1.0835
   58CHL1  H18B 6727   1.363   1.269   9.477  0.2221 -4.7908 -3.4182
   58CHL1  H18C 6728   1.271   1.289   9.323 -0.7890  3.5062 -0.4866
   58CHL1   C12 6729   1.435   1.536   9.513  0.6829  0.3638  0.1686
   58CHL1  H12A 6730   1.531   1.528   9.457 -0.9704  0.5118 -2.7818
   58CHL1  H12B 6731   1.417   1.644   9.534 -1.2152  0.0795  0.1076
   58CHL1   C11 6732   1.464   1.470   9.639  0.7142 -0.3126 -0.7563
   58CHL1  H11A 6733   1.509   1.371   9.614 -2.1035 -1.6152 -0.8946
   58CHL1  H11B 6734   1.548   1.524   9.686  0.0663 -0.1568  0.2336
   58CHL1    C9 6735   1.338   1.450   9.735  0.0406 -0.1439  0.1016
   58CHL1    H9 6736   1.315   1.554   9.766  1.8757 -0.1214  1.4515
   58CHL1   C10 6737   1.358   1.383   9.867 -0.2903 -0.5456  0.6710
   58CHL1   C19 6738   1.421   1.243   9.836 -0.4926 -0.1164 -0.1100
   58CHL1  H19A 6739   1.446   1.186   9.928  2.4946  2.2587  0.6524
   58CHL1  H19B 6740   1.362   1.177   9.768 -0.4134 -0.2753 -0.0233
   58CHL1  H19C 6741   1.521   1.262   9.789 -0.2237 -1.1807  0.0166
   58CHL1    C1 6742   1.465   1.457   9.940  0.2717  0.1096  0.1905
   58CHL1   H1A 6743   1.561   1.462   9.884 -0.5824  1.2639 -1.2202
   58CHL1   H1B 6744   1.441   1.565   9.930 -0.5587 -0.1453 -0.5823
   58CHL1    C2 6745   1.480   1.418  10.092  0.0193 -0.4055  1.1646
   58CHL1   H2A 6746   1.550   1.487  10.144  1.4176  0.9035 -2.3181
   58CHL1   H2B 6747   1.517   1.314  10.092 -0.1033 -0.4583  2.3541
   58CHL1   C20 6748   1.317   1.534   9.173 -0.2331 -0.3608 -0.1504
   58CHL1   H20 6749   1.302   1.425   9.155  0.4613 -0.5699  0.5132
   58CHL1   C21 6750   1.464   1.575   9.182  0.1557  1.3118 -0.7297
   58CHL1  H21A 6751   1.513   1.510   9.258  1.1371  1.3380 -1.3415
   58CHL1  H21B 6752   1.476   1.681   9.214 -0.8923  0.8450  1.3427
   58CHL1  H21C 6753   1.521   1.550   9.091  2.4099  2.7875  0.2270
   58CHL1   C22 6754   1.252   1.624   9.056  0.3868  0.3224 -0.1008
   58CHL1  H22A 6755   1.142   1.613   9.062  0.3546 -0.4150 -1.7069
   58CHL1  H22B 6756   1.259   1.732   9.082 -1.0591  0.6700 -1.0565
   58CHL1   C23 6757   1.301   1.591   8.920 -0.1828 -0.2602  0.5553
   58CHL1  H23A 6758   1.408   1.559   8.921  0.1064  0.6145 -0.7365
   58CHL1  H23B 6759   1.245   1.500   8.891  0.9733 -0.7794 -0.1175
   58CHL1   C24 6760   1.263   1.702   8.823  0.2851 -0.4643 -0.2850
   58CHL1  H24A 6761   1.152   1.704   8.832  0.3412 -1.4809  0.7634
   58CHL1  H24B 6762   1.308   1.795   8.863  0.1094  0.3159 -1.8606
   58CHL1   C25 6763   1.312   1.682   8.675  0.3339 -0.6497 -0.3803
   58CHL1   H25 6764   1.423   1.681   8.671  0.4949 -2.4910  3.0377
   58CHL1   C26 6765   1.249   1.562   8.603  0.3559  0.0030  0.0929
   58CHL1  H26A 6766   1.275   1.566   8.495 -0.6913 -1.5916 -0.2350
   58CHL1  H26B 6767   1.284   1.460   8.630 -0.1894 -0.0598  0.5543
   58CHL1  H26C 6768   1.140   1.569   8.620  0.7880  1.1037  2.5423
   58CHL1   C27 6769   1.275   1.809   8.596 -0.2794  0.1159 -0.0999
   58CHL1  H27A 6770   1.281   1.792   8.487  3.3858 -0.9352  0.2162
   58CHL1  H27B 6771   1.170   1.838   8.619  0.3124  2.1967  0.0470
   58CHL1  H27C 6772   1.345   1.891   8.624 -1.7518  1.0323  0.9671
   59CHL1    C3 6773   0.795   0.545  10.349 -0.7452 -0.7531  0.9670
   59CHL1    H3 6774   0.738   0.451  10.366  1.1806 -2.1977 -0.4797
   59CHL1    O3 6775   0.826   0.599  10.473  0.3759 -0.1484 -0.0106
   59CHL1   H3' 6776   0.740   0.606  10.517 -0.0270  1.5357 -1.0344
   59CHL1    C4 6777   0.925   0.508  10.270 -0.3145 -0.0216 -0.9751
   59CHL1   H4A 6778   0.973   0.606  10.250 -1.2562 -0.1745 -4.3074
   59CHL1   H4B 6779   0.985   0.440  10.333  0.7971  1.5481 -0.2930
   59CHL1    C5 6780   0.894   0.443  10.132  0.2692 -0.4009 -0.0634
   59CHL1    C6 6781   0.926   0.320  10.104 -0.2083  1.0414  0.5779
   59CHL1    H6 6782   0.975   0.258  10.180 -0.6599  1.3796  1.1504
   59CHL1    C7 6783   0.892   0.248   9.977 -0.1732 -0.5903 -0.4792
   59CHL1   H7A 6784   0.980   0.188   9.947  0.6537  0.2092  0.3339
   59CHL1   H7B 6785   0.805   0.181   9.996 -1.0014  0.2360 -1.2803
   59CHL1    C8 6786   0.850   0.345   9.867 -0.2641 -1.0062  0.1880
   59CHL1    H8 6787   0.938   0.405   9.834 -2.4806  1.2402 -1.8010
   59CHL1   C14 6788   0.778   0.266   9.755 -0.8730  0.1401 -0.0253
   59CHL1   H14 6789   0.687   0.222   9.801 -0.6469  0.1002  0.3814
   59CHL1   C15 6790   0.861   0.149   9.698  0.2712  0.5127  0.6582
   59CHL1  H15A 6791   0.964   0.189   9.681  0.5027 -0.4521 -0.1822
   59CHL1  H15B 6792   0.866   0.067   9.773 -0.0605 -0.5245 -0.4508
   59CHL1   C16 6793   0.787   0.121   9.561 -0.2270  0.0034  0.4264
   59CHL1  H16A 6794   0.866   0.132   9.483 -0.7422 -1.4390 -0.3326
   59CHL1  H16B 6795   0.736   0.023   9.573 -0.8955  0.4336  1.1168
   59CHL1   C17 6796   0.679   0.235   9.547 -0.1609  0.4278  0.6316
   59CHL1   H17 6797   0.589   0.193   9.595 -1.7878  0.1885 -2.5132
   59CHL1   C13 6798   0.721   0.348   9.636 -0.2201 -0.4706 -0.1692
   59CHL1   C18 6799   0.831   0.423   9.571 -0.2305  0.2846  0.0025
   59CHL1  H18A 6800   0.925   0.369   9.544 -0.1258  1.3740 -1.9187
   59CHL1  H18B 6801   0.797   0.461   9.472  2.5163  1.3653 -0.5798
   59CHL1  H18C 6802   0.868   0.511   9.629 -0.5060  0.0605  0.5242
   59CHL1   C12 6803   0.611   0.438   9.693 -0.5795  0.0628  0.2637
   59CHL1  H12A 6804   0.571   0.513   9.622  0.0990  0.4445  0.2864
   59CHL1  H12B 6805   0.529   0.369   9.724  0.3383  0.0929  2.9103
   59CHL1   C11 6806   0.678   0.527   9.807 -0.9591 -0.1603 -0.3013
   59CHL1  H11A 6807   0.760   0.585   9.758  0.7729 -2.3446 -0.0692
   59CHL1  H11B 6808   0.614   0.602   9.857  0.4445  0.3370  0.7952
   59CHL1    C9 6809   0.748   0.440   9.920  1.2946 -0.6370 -0.2555
   59CHL1    H9 6810   0.665   0.375   9.956  0.2001  0.3433 -0.9752
   59CHL1   C10 6811   0.797   0.527  10.042 -0.1043 -0.4713  0.0564
   59CHL1   C19 6812   0.878   0.649   9.995  0.2178  0.5347 -0.5551
   59CHL1  H19A 6813   0.959   0.611   9.929  1.0351 -1.8701  1.7658
   59CHL1  H19B 6814   0.815   0.722   9.939  2.6832  0.8593 -3.0366
   59CHL1  H19C 6815   0.922   0.704  10.081  0.8115  0.3097 -0.7143
   59CHL1    C1 6816   0.675   0.579  10.124 -0.2892  0.0914 -0.0290
   59CHL1   H1A 6817   0.625   0.656  10.061 -1.7219  0.2719  1.2920
   59CHL1   H1B 6818   0.593   0.507  10.145 -0.8960  1.2475  1.7702
   59CHL1    C2 6819   0.707   0.642  10.263  0.5445  0.2644  0.1739
   59CHL1   H2A 6820   0.611   0.660  10.316  0.9557 -0.1058  1.0531
   59CHL1   H2B 6821   0.756   0.742  10.254  1.0597 -0.0183 -0.1863
   59CHL1   C20 6822   0.623   0.259   9.405 -0.5609  0.1214  0.0420
   59CHL1   H20 6823   0.566   0.354   9.408 -2.0336 -0.7893  3.6086
   59CHL1   C21 6824   0.518   0.157   9.373 -0.1772  1.0303 -0.0897
   59CHL1  H21A 6825   0.453   0.191   9.289 -1.8884 -1.3606  0.2000
   59CHL1  H21B 6826   0.448   0.129   9.455 -0.3084 -2.0281 -1.1522
   59CHL1  H21C 6827   0.569   0.060   9.357  1.1782  1.8140 -0.5135
   59CHL1   C22 6828   0.729   0.252   9.293  0.5643  0.3558  0.1184
   59CHL1  H22A 6829   0.820   0.310   9.321  0.9396 -0.3147  0.3174
   59CHL1  H22B 6830   0.759   0.151   9.259  1.0675  0.1047  1.2855
   59CHL1   C23 6831   0.668   0.310   9.159 -0.5904 -0.1782 -0.0848
   59CHL1  H23A 6832   0.755   0.320   9.091 -0.5849 -1.0399 -0.2074
   59CHL1  H23B 6833   0.584   0.245   9.126 -2.5090  0.4013  3.4095
   59CHL1   C24 6834   0.606   0.454   9.188  0.0734 -0.0615  0.9096
   59CHL1  H24A 6835   0.498   0.435   9.202 -0.4593  0.2535 -2.4220
   59CHL1  H24B 6836   0.661   0.501   9.273 -0.0268 -1.3711  1.7170
   59CHL1   C25 6837   0.619   0.560   9.069 -0.2056 -0.4074 -0.4259
   59CHL1   H25 6838   0.726   0.587   9.053 -0.9058  1.9501 -1.3384
   59CHL1   C26 6839   0.568   0.499   8.934 -0.0492 -0.0910 -0.3823
   59CHL1  H26A 6840   0.466   0.456   8.948 -1.0568  1.9791 -1.1232
   59CHL1  H26B 6841   0.564   0.579   8.857  0.0707  0.8253  0.5653
   59CHL1  H26C 6842   0.632   0.415   8.899 -1.9987 -1.6628 -0.2693
   59CHL1   C27 6843   0.546   0.688   9.118  0.2405  0.0709 -0.0662
   59CHL1  H27A 6844   0.437   0.668   9.108  0.1177  0.5812  0.2306
   59CHL1  H27B 6845   0.572   0.709   9.224 -0.9846 -1.4344  0.5624
   59CHL1  H27C 6846   0.579   0.783   9.072 -0.9625  0.6075  0.1535
   60CHL1    C3 6847   0.769   6.350  10.199 -0.1916 -1.2727 -0.2056
   60CHL1    H3 6848   0.857   6.410  10.168  0.3292  0.5130  4.3729
   60CHL1    O3 6849   0.772   6.324  10.339  0.0933  0.3479 -0.4494
   60CHL1   H3' 6850   0.700   6.265  10.361  2.5869 -2.4741  0.4280
   60CHL1    C4 6851   0.646   6.444  10.159  0.6162  0.2294  0.1905
   60CHL1   H4A 6852   0.553   6.401  10.200 -0.5827  1.6597 -0.9934
   60CHL1   H4B 6853   0.651   6.538  10.217  1.8874  1.2123 -1.4451
   60CHL1    C5 6854   0.627   6.452  10.012  0.2587  0.4253  0.4504
   60CHL1    C6 6855   0.615   6.571   9.950  0.2159  0.7403  0.2952
   60CHL1    H6 6856   0.631   6.662  10.010 -0.9952  0.8084  0.5350
   60CHL1    C7 6857   0.576   6.585   9.804 -0.0483 -0.1131  0.3805
   60CHL1   H7A 6858   0.491   6.655   9.791  0.8411  0.5548 -2.0783
   60CHL1   H7B 6859   0.659   6.627   9.744 -0.1140  0.5841  0.7745
   60CHL1    C8 6860   0.521   6.447   9.745  0.8263  0.3682  0.4603
   60CHL1    H8 6861   0.421   6.444   9.793  0.5004  1.4195 -0.1307
   60CHL1   C14 6862   0.517   6.465   9.592 -0.8026  0.4259 -0.6325
   60CHL1   H14 6863   0.618   6.488   9.553 -0.0747 -0.9547  0.3830
   60CHL1   C15 6864   0.423   6.575   9.542 -0.0245  0.1751 -0.2725
   60CHL1  H15A 6865   0.328   6.577   9.600 -1.3140  0.5249 -2.3307
   60CHL1  H15B 6866   0.479   6.671   9.551 -1.0979  0.7257  0.7038
   60CHL1   C16 6867   0.389   6.529   9.398 -0.5667 -0.0665  0.0380
   60CHL1  H16A 6868   0.279   6.532   9.387 -0.6812 -1.7737  0.6374
   60CHL1  H16B 6869   0.432   6.600   9.323 -0.5671  0.7949  0.8460
   60CHL1   C17 6870   0.451   6.389   9.376 -0.5292 -0.0165  0.6305
   60CHL1   H17 6871   0.557   6.409   9.349 -0.9796  2.2820  0.5206
   60CHL1   C13 6872   0.459   6.337   9.520 -0.2890 -0.5335 -0.0143
   60CHL1   C18 6873   0.316   6.301   9.561 -0.2203  0.1246 -0.8813
   60CHL1  H18A 6874   0.238   6.376   9.536  0.2852  1.1274  0.4852
   60CHL1  H18B 6875   0.301   6.207   9.505 -0.2028 -0.5886  0.2887
   60CHL1  H18C 6876   0.313   6.277   9.670  1.5835 -1.4803 -1.1582
   60CHL1   C12 6877   0.567   6.228   9.544  0.2235  0.3180  0.0777
   60CHL1  H12A 6878   0.543   6.134   9.490  2.4568  0.6819 -1.5973
   60CHL1  H12B 6879   0.667   6.261   9.508  0.7579 -0.1909  1.0789
   60CHL1   C11 6880   0.580   6.200   9.701 -0.4489 -0.0688 -0.2323
   60CHL1  H11A 6881   0.489   6.146   9.736  0.8710 -1.0077  1.8733
   60CHL1  H11B 6882   0.660   6.123   9.714  0.8229  1.1954 -0.5138
   60CHL1    C9 6883   0.607   6.326   9.785  0.5319  0.4346  0.3977
   60CHL1    H9 6884   0.705   6.360   9.744  1.2387  1.1381  2.6045
   60CHL1   C10 6885   0.615   6.318   9.938  0.6073  0.0964 -0.6596
   60CHL1   C19 6886   0.489   6.245   9.978 -0.0447  0.0615 -0.7521
   60CHL1  H19A 6887   0.501   6.218  10.085  3.0516 -1.6326 -1.4700
   60CHL1  H19B 6888   0.398   6.307   9.964  1.2540  2.0769 -0.4185
   60CHL1  H19C 6889   0.471   6.152   9.921  0.7875  1.1387 -2.8158
   60CHL1    C1 6890   0.744   6.241   9.977  0.5020 -0.3694 -0.1491
   60CHL1   H1A 6891   0.754   6.144   9.924 -1.8185  0.3210 -1.8701
   60CHL1   H1B 6892   0.830   6.297   9.935 -1.0225  2.3109  0.2340
   60CHL1    C2 6893   0.765   6.217  10.129 -0.2439  0.5332  0.6466
   60CHL1   H2A 6894   0.864   6.169  10.148  0.0752  0.8486 -0.1981
   60CHL1   H2B 6895   0.679   6.159  10.169 -0.3018  0.5749  0.5840
   60CHL1   C20 6896   0.398   6.303   9.263  0.2767 -0.3746  0.8732
   60CHL1   H20 6897   0.435   6.200   9.282  3.0468  0.2040 -1.1951
   60CHL1   C21 6898   0.475   6.354   9.141  0.1262 -0.3220 -0.2688
   60CHL1  H21A 6899   0.582   6.330   9.157  0.1395  0.1321  0.3194
   60CHL1  H21B 6900   0.474   6.465   9.139  2.1578 -0.2263  2.0122
   60CHL1  H21C 6901   0.441   6.308   9.046 -0.8937 -0.6579  0.2502
   60CHL1   C22 6902   0.242   6.306   9.245  0.2030  0.3855 -0.0506
   60CHL1  H22A 6903   0.185   6.314   9.340  0.1265  1.3799 -0.1725
   60CHL1  H22B 6904   0.218   6.398   9.186  0.0228 -0.6155 -1.5803
   60CHL1   C23 6905   0.187   6.188   9.154  0.3187 -0.4715 -0.5176
   60CHL1  H23A 6906   0.207   6.213   9.048 -0.8525 -0.1672 -0.6726
   60CHL1  H23B 6907   0.241   6.096   9.183 -0.1625 -0.4180  0.6120
   60CHL1   C24 6908   0.035   6.174   9.163 -0.3703 -0.3686  0.1604
   60CHL1  H24A 6909  -0.008   6.182   9.266 -0.3033 -0.7252  0.2153
   60CHL1  H24B 6910   0.003   6.264   9.106 -0.3505 -0.0452  0.6549
   60CHL1   C25 6911  -0.026   6.056   9.095  0.6489 -0.6138  0.3590
   60CHL1   H25 6912   0.010   5.961   9.140  1.8627 -0.0582  0.5733
   60CHL1   C26 6913  -0.176   6.059   9.123 -0.7016 -0.3701 -0.2625
   60CHL1  H26A 6914  -0.220   6.019   9.217  1.5816 -1.2441  0.4757
   60CHL1  H26B 6915  -0.211   6.164   9.130  2.5470  0.6290  2.1128
   60CHL1  H26C 6916  -0.233   6.014   9.039  0.8148  1.5318 -2.3678
   60CHL1   C27 6917   0.010   6.058   8.947 -0.3321  0.6795  0.3493
   60CHL1  H27A 6918  -0.006   6.161   8.908 -0.1562  0.6916  0.3138
   60CHL1  H27B 6919   0.115   6.029   8.924 -0.5972 -1.5881  1.7864
   60CHL1  H27C 6920  -0.064   6.002   8.884  0.0372  0.3135  0.2401
   61CHL1    C3 6921   3.978   5.444  10.233 -0.2692 -0.1232 -0.2791
   61CHL1    H3 6922   4.088   5.430  10.239 -0.5214 -1.8777  0.7445
   61CHL1    O3 6923   3.918   5.430  10.366  0.3949 -0.0409  0.1542
   61CHL1   H3' 6924   3.902   5.336  10.370  0.4031 -0.0423  0.1401
   61CHL1    C4 6925   3.944   5.588  10.188 -0.6448 -0.5387 -0.1381
   61CHL1   H4A 6926   3.837   5.610  10.204 -0.2321  0.3421  1.6487
   61CHL1   H4B 6927   3.996   5.659  10.257  0.4359 -1.0152 -0.4393
   61CHL1    C5 6928   3.992   5.612  10.047  0.3062  0.6188 -0.0142
   61CHL1    C6 6929   4.099   5.686  10.019 -0.2256 -0.0904  0.3717
   61CHL1    H6 6930   4.140   5.734  10.109  0.9105  2.1484 -1.2661
   61CHL1    C7 6931   4.144   5.705   9.877 -0.6408 -0.2146 -0.2374
   61CHL1   H7A 6932   4.171   5.811   9.862  0.0589 -0.4672 -0.8123
   61CHL1   H7B 6933   4.234   5.645   9.852 -2.1652 -2.7139  0.0964
   61CHL1    C8 6934   4.040   5.664   9.766 -0.4543  0.0787 -0.0530
   61CHL1    H8 6935   3.963   5.744   9.770 -0.1103  0.3841  0.4957
   61CHL1   C14 6936   4.103   5.675   9.621  0.3375 -0.6958 -0.1342
   61CHL1   H14 6937   4.183   5.598   9.612 -0.1114 -0.8466 -3.2659
   61CHL1   C15 6938   4.165   5.806   9.570  0.1983 -0.1319 -0.5611
   61CHL1  H15A 6939   4.091   5.889   9.583  1.0650  0.1242  3.4550
   61CHL1  H15B 6940   4.263   5.845   9.604 -0.1282  0.7987 -0.6504
   61CHL1   C16 6941   4.170   5.790   9.419 -0.2834  0.7928 -0.0742
   61CHL1  H16A 6942   4.129   5.880   9.370 -0.2552  0.9998  0.2842
   61CHL1  H16B 6943   4.275   5.784   9.383 -0.1751 -0.7190  0.4276
   61CHL1   C17 6944   4.100   5.657   9.390 -0.0867  0.4964 -0.0826
   61CHL1   H17 6945   4.178   5.578   9.393  0.7322  1.2294 -1.8769
   61CHL1   C13 6946   4.008   5.627   9.512  0.8746  0.3866  0.0260
   61CHL1   C18 6947   3.889   5.721   9.516  0.1798  0.1406 -0.4368
   61CHL1  H18A 6948   3.903   5.830   9.535 -1.8445  0.9505 -3.2816
   61CHL1  H18B 6949   3.806   5.693   9.448 -0.7468  0.0473  0.7098
   61CHL1  H18C 6950   3.841   5.680   9.607  1.1623 -0.9010 -0.3783
   61CHL1   C12 6951   3.973   5.478   9.541 -0.7476  0.0717  0.4773
   61CHL1  H12A 6952   3.903   5.446   9.461  1.6682 -2.5752 -0.6433
   61CHL1  H12B 6953   4.062   5.413   9.528  0.5244  2.0568 -0.9854
   61CHL1   C11 6954   3.921   5.451   9.688  0.0139  0.5944  0.2226
   61CHL1  H11A 6955   3.812   5.473   9.694 -0.5901 -2.7980  2.6215
   61CHL1  H11B 6956   3.934   5.342   9.702 -0.1676  0.3735 -1.2381
   61CHL1    C9 6957   3.993   5.526   9.797  0.2857  1.0675 -0.3249
   61CHL1    H9 6958   4.090   5.472   9.809  0.4578  1.8925  2.3510
   61CHL1   C10 6959   3.924   5.521   9.943 -0.8103  0.2160 -0.4193
   61CHL1   C19 6960   3.778   5.589   9.925 -0.1615  0.9731 -0.1692
   61CHL1  H19A 6961   3.725   5.588  10.023  0.8837  0.8818  0.4036
   61CHL1  H19B 6962   3.786   5.694   9.889  2.1258  0.6354 -0.7406
   61CHL1  H19C 6963   3.722   5.524   9.855  0.5297  0.6882 -0.4588
   61CHL1    C1 6964   3.926   5.366   9.995  0.2933 -0.0101 -0.7873
   61CHL1   H1A 6965   3.856   5.305   9.934  0.2147 -0.6335 -0.0827
   61CHL1   H1B 6966   4.026   5.326   9.970 -0.1970 -1.4936 -0.3969
   61CHL1    C2 6967   3.899   5.349  10.143 -0.4759  0.6034  0.0163
   61CHL1   H2A 6968   3.924   5.247  10.178  0.0033  1.1076  1.1923
   61CHL1   H2B 6969   3.790   5.362  10.165 -0.5505 -0.1240  0.0911
   61CHL1   C20 6970   4.036   5.656   9.251 -0.5185 -0.1599  0.5333
   61CHL1   H20 6971   3.953   5.583   9.258 -0.4225 -0.1877  1.3870
   61CHL1   C21 6972   4.145   5.603   9.149  0.2916  0.3290 -0.1572
   61CHL1  H21A 6973   4.228   5.677   9.153  0.3361  0.2766 -0.1083
   61CHL1  H21B 6974   4.102   5.609   9.047  2.8456  1.4633 -1.2076
   61CHL1  H21C 6975   4.178   5.500   9.171 -2.1096 -0.5837 -0.6492
   61CHL1   C22 6976   3.973   5.790   9.206  0.1797  0.4159 -0.3645
   61CHL1  H22A 6977   3.908   5.839   9.282  0.6694 -1.5530  1.3739
   61CHL1  H22B 6978   4.057   5.858   9.183 -1.1305  1.7624 -1.2495
   61CHL1   C23 6979   3.884   5.792   9.073 -0.3892 -0.0858  0.2195
   61CHL1  H23A 6980   3.941   5.773   8.980  0.3241  1.4867  0.3238
   61CHL1  H23B 6981   3.811   5.708   9.076 -0.5795  0.0672 -0.1038
   61CHL1   C24 6982   3.803   5.921   9.058  0.5519  0.2627 -0.0938
   61CHL1  H24A 6983   3.726   5.921   9.138 -1.0361  1.1450 -1.5894
   61CHL1  H24B 6984   3.871   6.007   9.075 -0.6596  1.4644 -1.1718
   61CHL1   C25 6985   3.750   5.953   8.916 -0.5676 -0.5014  0.7225
   61CHL1   H25 6986   3.708   5.853   8.891 -0.6735 -0.1939 -0.3130
   61CHL1   C26 6987   3.653   6.078   8.910  0.0756  0.0173  0.1539
   61CHL1  H26A 6988   3.600   6.084   8.813 -2.8047  2.3171  1.7905
   61CHL1  H26B 6989   3.582   6.069   8.995 -0.1682 -0.5671 -0.1109
   61CHL1  H26C 6990   3.710   6.172   8.926  0.1253  0.3766 -2.0154
   61CHL1   C27 6991   3.866   5.986   8.821 -0.4579 -0.5747 -0.0788
   61CHL1  H27A 6992   3.930   6.059   8.876 -1.2650 -0.6541  0.9996
   61CHL1  H27B 6993   3.919   5.889   8.809 -1.5762 -0.9579 -2.0075
   61CHL1  H27C 6994   3.813   6.026   8.732 -1.5754  0.8607  1.2044
   62CHL1    C3 6995   5.256   2.678   9.963 -0.1205 -0.6798  1.0285
   62CHL1    H3 6996   5.321   2.764   9.938  1.4092 -1.6518  1.5987
   62CHL1    O3 6997   5.238   2.663  10.102  0.6498  0.8842  0.1268
   62CHL1   H3' 6998   5.323   2.630  10.133  0.8842  1.4622  0.1101
   62CHL1    C4 6999   5.121   2.716   9.901  0.2281 -0.3030  0.1840
   62CHL1   H4A 7000   5.049   2.638   9.934 -1.1818  0.2414 -1.4804
   62CHL1   H4B 7001   5.094   2.813   9.947  0.9467  0.2663 -0.5680
   62CHL1    C5 7002   5.122   2.741   9.749 -0.1803 -0.3434  0.5885
   62CHL1    C6 7003   5.078   2.855   9.696 -0.2090 -0.3480 -0.1190
   62CHL1    H6 7004   5.033   2.931   9.762 -1.6799 -1.0653 -0.2758
   62CHL1    C7 7005   5.069   2.887   9.549 -0.1590  0.3332 -0.3119
   62CHL1   H7A 7006   4.963   2.917   9.537 -0.1141  0.8987  0.7069
   62CHL1   H7B 7007   5.133   2.973   9.518 -0.2374  1.2511  2.0291
   62CHL1    C8 7008   5.113   2.765   9.457  0.5805 -0.0632 -0.5306
   62CHL1    H8 7009   5.027   2.695   9.452  0.7202 -0.3072  0.4357
   62CHL1   C14 7010   5.149   2.811   9.311  0.4374  0.0599  0.7216
   62CHL1   H14 7011   5.239   2.875   9.329 -0.1858  1.1174  0.1277
   62CHL1   C15 7012   5.057   2.904   9.225 -0.5090  0.0444 -0.0310
   62CHL1  H15A 7013   4.954   2.882   9.260 -0.5778  2.1494  1.1421
   62CHL1  H15B 7014   5.080   3.011   9.243 -0.1562 -0.1916  0.9042
   62CHL1   C16 7015   5.090   2.872   9.077  0.0674 -0.4765 -0.8959
   62CHL1  H16A 7016   5.000   2.823   9.034  0.2362  0.4146 -2.2806
   62CHL1  H16B 7017   5.116   2.960   9.015 -1.3559  0.2946 -0.4204
   62CHL1   C17 7018   5.215   2.769   9.091 -0.1151 -0.4133 -0.6679
   62CHL1   H17 7019   5.297   2.839   9.117 -0.5812  0.9439 -2.7379
   62CHL1   C13 7020   5.187   2.697   9.219  0.8947  0.5571 -0.3274
   62CHL1   C18 7021   5.071   2.595   9.207 -0.1845  0.4752  0.1289
   62CHL1  H18A 7022   5.084   2.513   9.134  0.5003  2.0975 -1.6068
   62CHL1  H18B 7023   5.046   2.539   9.300 -0.9992 -1.9883 -1.5278
   62CHL1  H18C 7024   4.977   2.643   9.173 -0.7367 -0.2427  0.6387
   62CHL1   C12 7025   5.319   2.635   9.283  0.4425 -0.6757 -0.0735
   62CHL1  H12A 7026   5.361   2.556   9.218  0.0309  0.8150 -2.1979
   62CHL1  H12B 7027   5.391   2.719   9.298 -0.5597  0.7545 -2.9275
   62CHL1   C11 7028   5.298   2.582   9.430 -0.3652  0.1316 -0.0208
   62CHL1  H11A 7029   5.245   2.485   9.429  0.7362 -0.5787  3.1564
   62CHL1  H11B 7030   5.397   2.565   9.477 -1.4199  1.0048  2.6189
   62CHL1    C9 7031   5.223   2.686   9.523 -0.2921  0.3362 -0.3653
   62CHL1    H9 7032   5.298   2.768   9.527  0.0910  0.0210 -1.0785
   62CHL1   C10 7033   5.186   2.631   9.662 -0.4936  0.1123 -0.2508
   62CHL1   C19 7034   5.080   2.519   9.646 -0.6431  0.4279 -0.5984
   62CHL1  H19A 7035   4.993   2.543   9.582 -3.1686 -2.5776  1.5667
   62CHL1  H19B 7036   5.126   2.436   9.589 -0.1195  1.1329 -1.2140
   62CHL1  H19C 7037   5.046   2.480   9.744  0.9211 -2.0386 -0.9987
   62CHL1    C1 7038   5.314   2.577   9.736 -0.8216 -0.7615 -0.0966
   62CHL1   H1A 7039   5.347   2.481   9.690  1.6266  0.0978 -0.2433
   62CHL1   H1B 7040   5.395   2.651   9.715  0.4589 -1.7007  1.4048
   62CHL1    C2 7041   5.295   2.545   9.886 -0.1694  0.4257 -1.0326
   62CHL1   H2A 7042   5.391   2.504   9.925 -0.9198 -2.0917 -1.7609
   62CHL1   H2B 7043   5.212   2.473   9.899 -0.8511  1.2202 -0.9495
   62CHL1   C20 7044   5.269   2.699   8.964  0.3239  0.7196 -0.1182
   62CHL1   H20 7045   5.353   2.631   8.992  0.2221  1.2613  1.5884
   62CHL1   C21 7046   5.335   2.815   8.879 -0.0100 -0.0193 -0.3265
   62CHL1  H21A 7047   5.264   2.893   8.844 -0.4907  0.1715  1.0373
   62CHL1  H21B 7048   5.390   2.774   8.791 -1.1910 -2.7245  0.1280
   62CHL1  H21C 7049   5.414   2.860   8.942  0.3734 -2.0533  0.6916
   62CHL1   C22 7050   5.173   2.618   8.876 -0.2697  0.1639 -0.8149
   62CHL1  H22A 7051   5.118   2.538   8.928 -3.4332  0.8834 -2.9206
   62CHL1  H22B 7052   5.098   2.692   8.841 -1.7612 -1.7868 -1.7935
   62CHL1   C23 7053   5.224   2.557   8.747  0.7879 -0.1524 -0.0939
   62CHL1  H23A 7054   5.142   2.543   8.674  0.3182  0.9969  0.2101
   62CHL1  H23B 7055   5.298   2.623   8.697 -1.6666  1.4920 -1.6374
   62CHL1   C24 7056   5.294   2.418   8.759 -0.0621 -0.5304 -0.7091
   62CHL1  H24A 7057   5.349   2.384   8.669  2.4760  0.2851  0.4803
   62CHL1  H24B 7058   5.379   2.430   8.829  0.5254  0.8377 -1.6198
   62CHL1   C25 7059   5.194   2.301   8.785  0.6454  0.1152 -0.2326
   62CHL1   H25 7060   5.108   2.339   8.844  0.6891  0.1624 -0.1995
   62CHL1   C26 7061   5.130   2.249   8.660 -0.2764  0.3506 -0.5856
   62CHL1  H26A 7062   5.207   2.219   8.586 -1.1714  0.0806 -1.4156
   62CHL1  H26B 7063   5.055   2.169   8.676 -1.6673  1.8665  0.7141
   62CHL1  H26C 7064   5.075   2.338   8.621  0.0756  0.5404 -0.6580
   62CHL1   C27 7065   5.260   2.190   8.874  0.4529  0.1361 -0.5827
   62CHL1  H27A 7066   5.359   2.165   8.828  1.3030  1.7106  0.3206
   62CHL1  H27B 7067   5.276   2.236   8.973 -2.1194  4.1062 -1.8971
   62CHL1  H27C 7068   5.193   2.103   8.889 -1.8355  1.9993  0.2990
   63CHL1    C3 7069   0.005   4.259  10.382  0.1210 -0.0302 -0.2521
   63CHL1    H3 7070  -0.105   4.245  10.377  0.4917 -3.2570 -0.3979
   63CHL1    O3 7071   0.043   4.238  10.515 -0.1666  0.0375 -0.0009
   63CHL1   H3' 7072   0.034   4.143  10.524 -0.8018  0.1871  1.0644
   63CHL1    C4 7073   0.078   4.161  10.288  0.6462  0.5753 -0.5099
   63CHL1   H4A 7074   0.186   4.170  10.310  0.3457  2.4997  0.2186
   63CHL1   H4B 7075   0.047   4.059  10.321 -1.1939  0.8917 -1.1697
   63CHL1    C5 7076   0.043   4.188  10.143 -1.0103 -0.2602 -0.3582
   63CHL1    C6 7077  -0.013   4.090  10.069 -0.4133 -0.0652  0.1553
   63CHL1    H6 7078  -0.032   3.987  10.100  0.7894 -0.4370 -0.3125
   63CHL1    C7 7079  -0.054   4.111   9.927 -0.5022  0.0449 -0.1845
   63CHL1   H7A 7080  -0.026   4.025   9.863  0.9181 -2.3710  3.4826
   63CHL1   H7B 7081  -0.165   4.105   9.931 -0.3370 -1.8877  2.7281
   63CHL1    C8 7082   0.019   4.237   9.869  0.1875  0.0144  0.8056
   63CHL1    H8 7083   0.126   4.213   9.854 -0.2619 -0.9141 -1.0845
   63CHL1   C14 7084  -0.044   4.277   9.735 -0.4980 -1.1251  0.0178
   63CHL1   H14 7085  -0.151   4.297   9.759 -0.6204 -3.1043  1.2223
   63CHL1   C15 7086  -0.052   4.157   9.632 -0.1534 -0.4136 -0.3990
   63CHL1  H15A 7087   0.037   4.092   9.625  1.2474  1.4670 -0.5140
   63CHL1  H15B 7088  -0.141   4.096   9.658 -1.3104  1.6900  0.7281
   63CHL1   C16 7089  -0.074   4.230   9.497 -0.0486 -0.4883  0.0281
   63CHL1  H16A 7090   0.009   4.205   9.427 -0.9156  0.2118 -1.2658
   63CHL1  H16B 7091  -0.164   4.201   9.440  1.7326 -1.1408 -2.5623
   63CHL1   C17 7092  -0.072   4.387   9.530 -0.0555  0.4350  0.3726
   63CHL1   H17 7093  -0.177   4.414   9.554 -0.1185  1.7772 -1.3073
   63CHL1   C13 7094   0.013   4.395   9.662  0.7533  0.1589  0.6226
   63CHL1   C18 7095   0.171   4.375   9.638 -0.8644 -0.3072  0.7257
   63CHL1  H18A 7096   0.221   4.342   9.732  2.1011 -2.0480 -1.3917
   63CHL1  H18B 7097   0.200   4.297   9.565  0.4172  1.7722 -1.0050
   63CHL1  H18C 7098   0.220   4.464   9.594 -1.6485 -0.4316 -0.4090
   63CHL1   C12 7099  -0.003   4.515   9.752  0.0553 -0.0671 -0.3936
   63CHL1  H12A 7100   0.036   4.609   9.707  0.6880  0.9326  2.1581
   63CHL1  H12B 7101  -0.113   4.526   9.755 -0.0299 -0.3976 -2.0606
   63CHL1   C11 7102   0.053   4.490   9.893 -0.8789 -0.1810  0.0301
   63CHL1  H11A 7103   0.164   4.493   9.889 -0.8559  0.1392  0.7382
   63CHL1  H11B 7104   0.013   4.572   9.957  2.6768  1.0361  0.8484
   63CHL1    C9 7105   0.001   4.358   9.962 -0.5916  0.3613  0.0381
   63CHL1    H9 7106  -0.107   4.377   9.976 -0.4163 -0.0303  2.1258
   63CHL1   C10 7107   0.070   4.332  10.097 -0.1103  0.7839 -0.3550
   63CHL1   C19 7108   0.232   4.343  10.083 -0.1922  0.1196  0.1057
   63CHL1  H19A 7109   0.271   4.447  10.072 -1.6020  0.4917 -1.5591
   63CHL1  H19B 7110   0.275   4.321  10.184 -1.9729 -1.2697  0.5800
   63CHL1  H19C 7111   0.274   4.275  10.006  2.1998 -0.3342  1.7455
   63CHL1    C1 7112  -0.000   4.425  10.204  0.5783  0.1193 -0.3446
   63CHL1   H1A 7113   0.028   4.530  10.182  1.2652  0.1055  0.4540
   63CHL1   H1B 7114  -0.108   4.411  10.182  1.0263 -1.6521 -1.5340
   63CHL1    C2 7115   0.036   4.400  10.346  0.3360  0.9282 -0.9202
   63CHL1   H2A 7116  -0.009   4.475  10.415 -0.3701 -1.1754  0.9756
   63CHL1   H2B 7117   0.145   4.418  10.355  0.5465 -1.5076  2.2951
   63CHL1   C20 7118  -0.039   4.468   9.402  0.3643  0.3588  0.0979
   63CHL1   H20 7119   0.070   4.456   9.383  0.0816  0.8068 -1.9479
   63CHL1   C21 7120  -0.044   4.617   9.425 -0.4403 -0.1128  0.1251
   63CHL1  H21A 7121  -0.000   4.684   9.348 -1.0909  1.5638  1.1901
   63CHL1  H21B 7122   0.012   4.641   9.517 -0.3292  1.3771 -0.3031
   63CHL1  H21C 7123  -0.148   4.638   9.459 -0.5164  0.3623 -0.3945
   63CHL1   C22 7124  -0.113   4.422   9.278  0.1122  0.6969 -0.0552
   63CHL1  H22A 7125  -0.142   4.315   9.273  1.7567  0.3034 -1.8950
   63CHL1  H22B 7126  -0.210   4.476   9.270 -1.9778 -2.9507 -0.6734
   63CHL1   C23 7127  -0.034   4.438   9.145  0.3677  0.4720  0.0218
   63CHL1  H23A 7128   0.021   4.535   9.144 -0.3234  0.8798  0.9975
   63CHL1  H23B 7129   0.051   4.366   9.139 -0.4378 -0.4730 -0.1001
   63CHL1   C24 7130  -0.130   4.427   9.026  0.4186  0.2162 -0.2941
   63CHL1  H24A 7131  -0.153   4.319   9.024  0.8779 -0.0616  4.0014
   63CHL1  H24B 7132  -0.223   4.488   9.033  0.7731  1.2655 -3.9833
   63CHL1   C25 7133  -0.071   4.467   8.889  0.6785 -0.0284 -0.1281
   63CHL1   H25 7134   0.013   4.396   8.873  0.4079 -0.4346  0.2604
   63CHL1   C26 7135  -0.170   4.440   8.780 -0.1874 -0.2153  0.7493
   63CHL1  H26A 7136  -0.266   4.496   8.790 -0.9883 -1.4674  0.3403
   63CHL1  H26B 7137  -0.129   4.469   8.680 -0.6436  1.2353  0.9718
   63CHL1  H26C 7138  -0.198   4.332   8.777  0.6482 -0.4229  0.2233
   63CHL1   C27 7139  -0.006   4.602   8.884  0.2009 -0.7357 -0.1431
   63CHL1  H27A 7140  -0.098   4.663   8.893 -0.0403 -1.2747  1.3042
   63CHL1  H27B 7141   0.069   4.616   8.965  0.1477  0.4587 -0.2949
   63CHL1  H27C 7142   0.043   4.623   8.787 -1.0386 -0.8918 -0.8067
   64CHL1    C3 7143   5.463   3.525   9.924  0.2489 -0.0124 -0.9972
   64CHL1    H3 7144   5.420   3.432   9.881  1.0374  0.1589 -2.1761
   64CHL1    O3 7145   5.459   3.499  10.067  0.2284  0.4307  0.7714
   64CHL1   H3' 7146   5.504   3.573  10.109  2.0202  0.8135 -1.7182
   64CHL1    C4 7147   5.607   3.535   9.875 -0.0130  0.0425  0.0707
   64CHL1   H4A 7148   5.650   3.612   9.942  1.5764 -2.0243  1.4920
   64CHL1   H4B 7149   5.652   3.438   9.906 -2.6856 -1.4624 -0.5482
   64CHL1    C5 7150   5.608   3.558   9.720  0.6773 -0.3246  0.2024
   64CHL1    C6 7151   5.657   3.466   9.637 -0.3191  0.2447  0.4443
   64CHL1    H6 7152   5.715   3.381   9.675  1.0120  0.5179 -0.9566
   64CHL1    C7 7153   5.656   3.477   9.485 -0.1944 -0.1772  0.1809
   64CHL1   H7A 7154   5.752   3.445   9.439 -1.3024 -1.3106 -1.4398
   64CHL1   H7B 7155   5.572   3.414   9.448  0.5709  0.0871 -2.1112
   64CHL1    C8 7156   5.632   3.620   9.433  0.0074 -0.4735  0.4199
   64CHL1    H8 7157   5.723   3.679   9.457 -1.5684  1.5975  1.4693
   64CHL1   C14 7158   5.603   3.629   9.280  0.6092  0.0944 -0.2425
   64CHL1   H14 7159   5.511   3.573   9.254  0.2106  0.6093  0.0277
   64CHL1   C15 7160   5.719   3.574   9.181  0.1274 -0.3573  0.1281
   64CHL1  H15A 7161   5.819   3.599   9.222 -0.6039 -0.5516  2.0798
   64CHL1  H15B 7162   5.711   3.464   9.170 -1.2239 -0.2388 -0.1314
   64CHL1   C16 7163   5.688   3.645   9.049 -0.1365 -0.1814 -0.3955
   64CHL1  H16A 7164   5.778   3.708   9.029 -0.9022  0.9787 -0.2019
   64CHL1  H16B 7165   5.672   3.570   8.969  0.2984  0.2589 -0.8958
   64CHL1   C17 7166   5.568   3.740   9.079 -0.7854 -0.0809  0.2933
   64CHL1   H17 7167   5.474   3.683   9.060 -1.2352  0.8655 -0.3804
   64CHL1   C13 7168   5.570   3.771   9.229  0.1554  0.4859 -0.1996
   64CHL1   C18 7169   5.689   3.868   9.248 -0.9321 -0.5853 -0.3022
   64CHL1  H18A 7170   5.780   3.820   9.205  0.4314  1.3732  0.3352
   64CHL1  H18B 7171   5.679   3.966   9.197  1.4793 -0.9182 -1.4802
   64CHL1  H18C 7172   5.703   3.896   9.355 -1.1470 -1.7500  0.0377
   64CHL1   C12 7173   5.433   3.819   9.297 -0.0148 -0.1565 -0.0740
   64CHL1  H12A 7174   5.400   3.920   9.265 -1.9816 -0.4583  0.9589
   64CHL1  H12B 7175   5.354   3.749   9.262 -0.8392  0.3472  0.7599
   64CHL1   C11 7176   5.443   3.810   9.451  0.4213 -0.4429  0.8650
   64CHL1  H11A 7177   5.495   3.899   9.492 -0.3651  1.2485 -1.7041
   64CHL1  H11B 7178   5.342   3.827   9.493  0.7104 -3.9197  3.1889
   64CHL1    C9 7179   5.508   3.687   9.509  0.1544  0.3433  0.3687
   64CHL1    H9 7180   5.432   3.608   9.489 -0.0948  0.6873 -0.0649
   64CHL1   C10 7181   5.532   3.686   9.669  0.1473  0.1642 -0.4122
   64CHL1   C19 7182   5.608   3.813   9.697  0.0369  0.3404  0.1818
   64CHL1  H19A 7183   5.544   3.904   9.691  1.3964  1.4294  1.6915
   64CHL1  H19B 7184   5.649   3.820   9.800  3.4296 -2.1187 -0.8963
   64CHL1  H19C 7185   5.704   3.829   9.644  1.9246 -0.8245  3.1136
   64CHL1    C1 7186   5.387   3.683   9.742  0.1855 -0.3047 -0.9470
   64CHL1   H1A 7187   5.340   3.781   9.717 -0.7674 -0.4359  0.2496
   64CHL1   H1B 7188   5.331   3.600   9.694 -1.5370 -0.4491  1.2363
   64CHL1    C2 7189   5.389   3.651   9.888  0.1859 -0.0658 -0.5007
   64CHL1   H2A 7190   5.288   3.631   9.931  0.4352  2.1688  1.2084
   64CHL1   H2B 7191   5.430   3.737   9.944 -0.1662 -1.2678  1.6975
   64CHL1   C20 7192   5.562   3.853   8.973  0.9203  0.1475  0.4649
   64CHL1   H20 7193   5.656   3.912   8.979  0.0422  1.4372  1.7251
   64CHL1   C21 7194   5.443   3.944   8.987 -0.2092 -0.6646 -0.4085
   64CHL1  H21A 7195   5.463   4.019   9.067 -0.6263 -2.4630  1.4192
   64CHL1  H21B 7196   5.354   3.883   9.014  1.0141 -2.8684 -1.2117
   64CHL1  H21C 7197   5.429   3.998   8.890  0.2053  0.3686  0.0935
   64CHL1   C22 7198   5.552   3.797   8.827 -0.4177 -0.7027 -0.0794
   64CHL1  H22A 7199   5.580   3.690   8.816 -1.0673 -0.8081 -0.7767
   64CHL1  H22B 7200   5.445   3.800   8.799  0.7540  0.8501 -4.7960
   64CHL1   C23 7201   5.633   3.888   8.738 -0.2849 -0.2651  0.4193
   64CHL1  H23A 7202   5.616   3.997   8.753  2.7307  0.3506 -0.1139
   64CHL1  H23B 7203   5.739   3.876   8.770  0.2636  3.5179  0.2844
   64CHL1   C24 7204   5.621   3.865   8.585  0.1777 -0.2259  0.3984
   64CHL1  H24A 7205   5.513   3.859   8.558  0.2392  0.6779 -0.0657
   64CHL1  H24B 7206   5.670   3.950   8.532 -0.6573 -0.9384 -1.5858
   64CHL1   C25 7207   5.690   3.742   8.514  0.5639 -0.2155 -0.3085
   64CHL1   H25 7208   5.654   3.645   8.555 -0.2954  1.0062  1.8913
   64CHL1   C26 7209   5.646   3.732   8.362  0.3043  0.6487  0.3580
   64CHL1  H26A 7210   5.670   3.818   8.297  0.0774 -0.2555 -0.9479
   64CHL1  H26B 7211   5.687   3.642   8.310 -1.0217 -0.5499  1.3472
   64CHL1  H26C 7212   5.536   3.719   8.369  0.2088  1.2253 -0.0404
   64CHL1   C27 7213   5.842   3.753   8.527 -0.3553 -0.2552  0.2392
   64CHL1  H27A 7214   5.894   3.658   8.501 -1.9262 -0.8251 -0.9185
   64CHL1  H27B 7215   5.885   3.828   8.458 -1.2064 -0.1976 -0.2269
   64CHL1  H27C 7216   5.873   3.768   8.633 -0.4406  1.5306  0.0155
   65CHL1    C3 7217   1.383   0.691  10.318  0.0834 -0.0286 -0.3643
   65CHL1    H3 7218   1.382   0.580  10.325 -2.3044 -0.0100  0.2387
   65CHL1    O3 7219   1.395   0.729  10.453  0.2279  0.0333  0.0600
   65CHL1   H3' 7220   1.427   0.820  10.448 -0.8298  0.5906  2.4250
   65CHL1    C4 7221   1.516   0.730  10.245  0.0804  0.5130 -0.0968
   65CHL1   H4A 7222   1.558   0.822  10.291  0.8702 -0.2426  0.7025
   65CHL1   H4B 7223   1.591   0.657  10.283 -0.3810  2.0626  4.0130
   65CHL1    C5 7224   1.517   0.736  10.093  0.2848  0.8694 -0.7708
   65CHL1    C6 7225   1.620   0.700  10.022  0.1721  0.8232  0.7899
   65CHL1    H6 7226   1.714   0.668  10.070  0.7313 -1.2077 -1.5374
   65CHL1    C7 7227   1.625   0.695   9.872 -0.0013  0.2470 -0.0005
   65CHL1   H7A 7228   1.723   0.736   9.838 -0.0812 -0.4286 -1.0725
   65CHL1   H7B 7229   1.623   0.589   9.839 -0.0692 -0.1103  1.1331
   65CHL1    C8 7230   1.508   0.768   9.801 -0.0258 -0.3398  0.0771
   65CHL1    H8 7231   1.527   0.877   9.790 -1.9409  0.5080  4.1592
   65CHL1   C14 7232   1.478   0.717   9.660 -0.1337 -0.3035 -0.1504
   65CHL1   H14 7233   1.442   0.613   9.654 -0.6491 -0.1084 -0.4491
   65CHL1   C15 7234   1.598   0.723   9.563 -0.6489 -0.8271  0.2569
   65CHL1  H15A 7235   1.651   0.820   9.578 -1.1443 -0.3240 -1.1286
   65CHL1  H15B 7236   1.663   0.634   9.576  1.5872  0.7341  0.1191
   65CHL1   C16 7237   1.539   0.727   9.418  0.1362  0.3703 -0.7449
   65CHL1  H16A 7238   1.572   0.822   9.370 -0.1722  1.3056  0.8469
   65CHL1  H16B 7239   1.574   0.644   9.353  0.6370 -1.3721  1.7004
   65CHL1   C17 7240   1.385   0.732   9.438 -0.1018  0.2096 -0.6837
   65CHL1   H17 7241   1.350   0.628   9.451 -0.6021  0.4620  0.0555
   65CHL1   C13 7242   1.364   0.785   9.583  0.3630 -0.3201 -0.0149
   65CHL1   C18 7243   1.393   0.939   9.572 -0.2086  0.2812  0.3622
   65CHL1  H18A 7244   1.304   0.995   9.534 -0.3898 -1.6351 -2.1248
   65CHL1  H18B 7245   1.407   0.988   9.671 -0.0618 -0.1331  0.5435
   65CHL1  H18C 7246   1.482   0.960   9.509 -0.3475  1.9241  0.6732
   65CHL1   C12 7247   1.234   0.751   9.660  0.0688 -0.2425 -0.3200
   65CHL1  H12A 7248   1.143   0.783   9.604 -0.7433 -1.6873  0.1388
   65CHL1  H12B 7249   1.220   0.641   9.670 -1.6315  0.0876  1.1299
   65CHL1   C11 7250   1.245   0.805   9.802  0.0399  0.3119 -0.2254
   65CHL1  H11A 7251   1.252   0.916   9.807 -0.4678  0.3340  0.0110
   65CHL1  H11B 7252   1.152   0.780   9.857 -0.2800  0.0248 -0.8997
   65CHL1    C9 7253   1.369   0.745   9.877  1.3318  0.3898 -0.0562
   65CHL1    H9 7254   1.357   0.634   9.882 -0.2702  0.5186 -0.9115
   65CHL1   C10 7255   1.384   0.785  10.025 -0.1527  0.5866  0.2400
   65CHL1   C19 7256   1.386   0.940  10.034  0.1122 -0.7725  0.4400
   65CHL1  H19A 7257   1.393   0.968  10.142  0.1919 -2.0720  0.7788
   65CHL1  H19B 7258   1.465   0.980   9.968 -1.0588  0.3292 -0.3198
   65CHL1  H19C 7259   1.284   0.982  10.017  0.4684  0.1967  0.6464
   65CHL1    C1 7260   1.261   0.729  10.094  0.2772 -0.1473 -0.6574
   65CHL1   H1A 7261   1.169   0.776  10.053 -0.0217 -0.5982 -0.5091
   65CHL1   H1B 7262   1.251   0.620  10.077  2.8436 -0.3914 -0.7719
   65CHL1    C2 7263   1.260   0.748  10.249 -0.3866  0.3409 -0.6701
   65CHL1   H2A 7264   1.176   0.698  10.302  2.2844 -4.3801 -0.6112
   65CHL1   H2B 7265   1.247   0.856  10.271 -0.2296 -0.1971  2.2596
   65CHL1   C20 7266   1.313   0.792   9.312 -0.0534  0.3908 -0.2026
   65CHL1   H20 7267   1.364   0.889   9.294 -2.9191  1.7729 -1.2832
   65CHL1   C21 7268   1.162   0.810   9.333 -0.0914 -0.2336  0.3989
   65CHL1  H21A 7269   1.116   0.712   9.360 -0.7975 -0.7014 -2.3389
   65CHL1  H21B 7270   1.116   0.835   9.235 -0.0680 -2.7712 -0.2880
   65CHL1  H21C 7271   1.144   0.895   9.402 -2.6805 -0.0756 -0.4293
   65CHL1   C22 7272   1.334   0.703   9.190  0.3384  0.2798 -0.4784
   65CHL1  H22A 7273   1.444   0.688   9.182  0.2853 -0.7540  0.7039
   65CHL1  H22B 7274   1.279   0.608   9.206  0.0538  0.5108 -0.0840
   65CHL1   C23 7275   1.286   0.758   9.045 -0.2974 -0.2937 -0.5255
   65CHL1  H23A 7276   1.319   0.680   8.973 -1.3340 -2.0947  0.9198
   65CHL1  H23B 7277   1.177   0.779   9.042 -0.0954  1.0003  0.5172
   65CHL1   C24 7278   1.357   0.890   9.003  0.1426 -0.6507  0.0637
   65CHL1  H24A 7279   1.362   0.950   9.096 -0.1862 -1.1519  0.4105
   65CHL1  H24B 7280   1.458   0.855   8.972  1.4547  0.9106  2.4346
   65CHL1   C25 7281   1.286   0.966   8.889 -0.4359  0.3374  0.1604
   65CHL1   H25 7282   1.195   1.013   8.932 -0.8850 -1.8954  1.6958
   65CHL1   C26 7283   1.363   1.091   8.840 -0.5012 -0.1724  0.7575
   65CHL1  H26A 7284   1.464   1.062   8.804 -1.1978 -1.6350 -0.1100
   65CHL1  H26B 7285   1.312   1.144   8.757  2.3714 -1.5181 -1.9992
   65CHL1  H26C 7286   1.366   1.161   8.925 -1.3590  0.9288 -0.1070
   65CHL1   C27 7287   1.246   0.879   8.775  0.9097 -0.7470  0.1605
   65CHL1  H27A 7288   1.334   0.869   8.707 -0.0426  1.4764 -1.4602
   65CHL1  H27B 7289   1.208   0.781   8.809 -0.6899 -0.3275 -0.3625
   65CHL1  H27C 7290   1.163   0.939   8.733  1.5258  1.4488  1.9766
   66CHL1    C3 7291   6.679   5.884  10.551 -0.3182 -0.2055  0.4213
   66CHL1    H3 7292   6.633   5.795  10.504 -1.9346  0.9793 -0.2835
   66CHL1    O3 7293   6.656   5.895  10.688  0.3728 -0.4200  0.5647
   66CHL1   H3' 7294   6.732   5.949  10.715  0.8060 -1.6014  1.7331
   66CHL1    C4 7295   6.832   5.872  10.516  0.3239  0.4565 -0.9185
   66CHL1   H4A 7296   6.880   5.965  10.553  1.2020 -0.2453 -0.2960
   66CHL1   H4B 7297   6.863   5.786  10.578  1.7233 -0.7316 -3.1964
   66CHL1    C5 7298   6.850   5.847  10.366 -0.3783  1.1792 -0.3304
   66CHL1    C6 7299   6.917   5.737  10.325  0.6093 -0.4161  0.1808
   66CHL1    H6 7300   6.946   5.662  10.401  3.7320 -0.0927 -0.5955
   66CHL1    C7 7301   6.935   5.698  10.189  0.1430 -0.4154  0.3373
   66CHL1   H7A 7302   7.033   5.645  10.186  0.3386 -0.0374 -4.1989
   66CHL1   H7B 7303   6.867   5.612  10.172  1.3376 -1.2684 -0.2362
   66CHL1    C8 7304   6.912   5.809  10.086  0.1457  0.1173  0.2891
   66CHL1    H8 7305   6.995   5.883  10.091 -0.6416  1.0716 -0.5054
   66CHL1   C14 7306   6.901   5.764   9.938 -0.2240 -0.1249  0.0027
   66CHL1   H14 7307   6.817   5.693   9.926  0.2869 -0.5099 -1.4816
   66CHL1   C15 7308   7.018   5.677   9.889 -0.2362  0.5796  0.5085
   66CHL1  H15A 7309   7.119   5.722   9.901  1.1251 -1.9826 -1.0682
   66CHL1  H15B 7310   7.011   5.583   9.947 -0.3831  0.4877  0.3412
   66CHL1   C16 7311   6.988   5.673   9.735  0.0312  0.3329  0.3980
   66CHL1  H16A 7312   7.079   5.710   9.683 -1.8186  2.4215 -1.4730
   66CHL1  H16B 7313   6.948   5.577   9.698 -1.7244  0.5005  1.7697
   66CHL1   C17 7314   6.876   5.789   9.709  0.2044  0.7768 -0.3809
   66CHL1   H17 7315   6.776   5.741   9.717 -0.1738  1.7709  1.0701
   66CHL1   C13 7316   6.876   5.872   9.837  0.1804 -0.2419 -0.2581
   66CHL1   C18 7317   6.996   5.974   9.825 -0.0250  0.0722 -0.0038
   66CHL1  H18A 7318   7.088   5.923   9.789 -0.6202 -1.8277  1.1366
   66CHL1  H18B 7319   6.975   6.038   9.736  0.5332  0.4278  0.1128
   66CHL1  H18C 7320   7.030   6.024   9.918  4.2083 -0.2793 -1.2485
   66CHL1   C12 7321   6.746   5.952   9.873 -0.6573  0.6375  0.5410
   66CHL1  H12A 7322   6.725   6.030   9.797 -0.8016 -1.2718 -1.4184
   66CHL1  H12B 7323   6.666   5.876   9.858  0.9346 -1.0816  0.5622
   66CHL1   C11 7324   6.750   6.000  10.018  0.0783  0.1869  0.2221
   66CHL1  H11A 7325   6.830   6.077  10.017  0.6244 -0.3590  0.5542
   66CHL1  H11B 7326   6.660   6.055  10.052 -0.4111 -1.4894  1.7274
   66CHL1    C9 7327   6.785   5.890  10.122 -0.7334  0.1761  0.8611
   66CHL1    H9 7328   6.700   5.820  10.104 -0.5180 -0.3065  1.7215
   66CHL1   C10 7329   6.786   5.943  10.268 -0.3397  0.4528 -0.2209
   66CHL1   C19 7330   6.883   6.066  10.275 -0.1079  0.0403 -0.1216
   66CHL1  H19A 7331   6.845   6.151  10.215 -1.3698  2.4676  3.9294
   66CHL1  H19B 7332   6.896   6.111  10.376  0.2812  2.2304 -1.1210
   66CHL1  H19C 7333   6.986   6.045  10.238  0.4071  0.4929  1.0146
   66CHL1    C1 7334   6.639   5.974  10.319 -0.4640 -0.4936 -0.1559
   66CHL1   H1A 7335   6.605   6.065  10.265 -1.4029 -2.0908 -2.3314
   66CHL1   H1B 7336   6.578   5.883  10.302 -2.3445  0.5193  1.0724
   66CHL1    C2 7337   6.621   5.995  10.474 -0.7018 -0.6480  0.0904
   66CHL1   H2A 7338   6.510   5.999  10.479 -0.9557 -1.6049 -3.3686
   66CHL1   H2B 7339   6.677   6.088  10.497  0.1298 -1.0009 -0.4978
   66CHL1   C20 7340   6.892   5.840   9.564  0.2041  0.3207 -1.3399
   66CHL1   H20 7341   6.993   5.884   9.548  0.7484 -0.1419  0.6011
   66CHL1   C21 7342   6.787   5.944   9.527  0.2491  0.0476  0.6582
   66CHL1  H21A 7343   6.799   6.041   9.580  0.2544 -0.4537  1.5838
   66CHL1  H21B 7344   6.685   5.902   9.542 -0.6787  0.1968 -4.5919
   66CHL1  H21C 7345   6.795   5.969   9.419  1.9836 -1.8694  0.3217
   66CHL1   C22 7346   6.891   5.727   9.458 -0.0888  0.9887 -0.4555
   66CHL1  H22A 7347   6.894   5.774   9.358  1.4237  0.6824 -0.5705
   66CHL1  H22B 7348   6.959   5.640   9.470 -0.3477  1.0962  1.9758
   66CHL1   C23 7349   6.757   5.637   9.468 -0.6307 -1.1933 -0.0715
   66CHL1  H23A 7350   6.758   5.583   9.565  2.7937  1.5151  1.5377
   66CHL1  H23B 7351   6.658   5.687   9.469 -0.4922 -0.9320  1.9949
   66CHL1   C24 7352   6.738   5.547   9.343  0.0341 -0.0372  0.1926
   66CHL1  H24A 7353   6.815   5.467   9.349  2.5455  2.3114 -0.1498
   66CHL1  H24B 7354   6.639   5.495   9.349 -0.6402  0.9467 -2.1827
   66CHL1   C25 7355   6.730   5.624   9.203 -0.1155  0.1836 -1.0218
   66CHL1   H25 7356   6.828   5.674   9.186  0.9493 -0.1790  3.3629
   66CHL1   C26 7357   6.710   5.518   9.095  0.0790 -0.1716  0.1006
   66CHL1  H26A 7358   6.707   5.573   8.998  0.1182 -1.8017 -0.8505
   66CHL1  H26B 7359   6.773   5.426   9.099  0.5582  0.1499  0.0503
   66CHL1  H26C 7360   6.606   5.479   9.093  0.2981 -0.7801  0.2059
   66CHL1   C27 7361   6.615   5.733   9.198  0.2420 -0.4138 -0.4072
   66CHL1  H27A 7362   6.634   5.785   9.101 -0.0494  2.7621  1.1773
   66CHL1  H27B 7363   6.517   5.682   9.206  0.3154 -0.5474 -0.3543
   66CHL1  H27C 7364   6.637   5.807   9.278  1.4921  0.3400 -1.4178
   67CHL1    C3 7365   3.866   6.102  10.182 -0.5227  0.3901 -0.4302
   67CHL1    H3 7366   3.763   6.143  10.190 -1.4759 -1.9142 -0.5304
   67CHL1    O3 7367   3.915   6.059  10.311  0.3006  0.0238 -0.3401
   67CHL1   H3' 7368   4.005   6.035  10.287  0.1496 -0.2913 -0.5875
   67CHL1    C4 7369   3.862   5.985  10.083 -1.1544  0.4914 -0.0179
   67CHL1   H4A 7370   3.962   5.938  10.081 -1.7116 -0.6854 -0.8585
   67CHL1   H4B 7371   3.795   5.910  10.132 -0.9192 -1.0449 -1.9840
   67CHL1    C5 7372   3.800   6.026   9.949  0.3182 -0.3760  0.6340
   67CHL1    C6 7373   3.688   5.966   9.900  0.1697  0.2759 -0.1199
   67CHL1    H6 7374   3.638   5.879   9.945 -1.3238  0.2296 -1.8060
   67CHL1    C7 7375   3.627   6.008   9.771  0.3741 -0.2148  0.5286
   67CHL1   H7A 7376   3.591   5.918   9.715 -1.3841  1.3644 -0.9265
   67CHL1   H7B 7377   3.537   6.072   9.783 -1.3162 -2.6947  1.6678
   67CHL1    C8 7378   3.730   6.086   9.689 -0.3816  0.2686 -0.4047
   67CHL1    H8 7379   3.814   6.025   9.650  1.0326  0.9517  1.4687
   67CHL1   C14 7380   3.657   6.135   9.567 -0.1393  0.2598  0.2108
   67CHL1   H14 7381   3.576   6.203   9.602  0.2737  1.8129 -1.7948
   67CHL1   C15 7382   3.566   6.038   9.486  0.6266 -0.1767 -0.0405
   67CHL1  H15A 7383   3.605   5.936   9.465 -1.3127 -1.0930  0.6650
   67CHL1  H15B 7384   3.468   6.036   9.540  0.5278  1.4706 -0.1399
   67CHL1   C16 7385   3.552   6.118   9.352 -0.2240  0.0844  0.0930
   67CHL1  H16A 7386   3.597   6.059   9.269  2.9135  0.6143  1.3652
   67CHL1  H16B 7387   3.450   6.156   9.330  0.9096  2.8294 -0.6406
   67CHL1   C17 7388   3.632   6.257   9.367 -0.4106  0.1889 -0.0781
   67CHL1   H17 7389   3.578   6.337   9.422  1.2008  2.1299 -1.2512
   67CHL1   C13 7390   3.739   6.210   9.472 -0.2043 -0.4756  0.3387
   67CHL1   C18 7391   3.849   6.117   9.404  0.1267  0.8347  0.0419
   67CHL1  H18A 7392   3.795   6.025   9.372  0.5229  0.6954 -0.2400
   67CHL1  H18B 7393   3.906   6.182   9.333 -0.5324 -0.9452 -2.1771
   67CHL1  H18C 7394   3.921   6.082   9.481 -2.1794 -0.4252  1.6795
   67CHL1   C12 7395   3.800   6.335   9.552  0.3655 -0.3284  0.0364
   67CHL1  H12A 7396   3.870   6.386   9.483  2.0999 -1.6272  0.7954
   67CHL1  H12B 7397   3.720   6.406   9.584 -0.1840 -0.6719 -0.5581
   67CHL1   C11 7398   3.878   6.293   9.676 -0.4679  0.4186 -0.5517
   67CHL1  H11A 7399   3.970   6.249   9.631  0.2145  1.2351  0.0312
   67CHL1  H11B 7400   3.902   6.393   9.719  1.2252  0.4596 -1.5498
   67CHL1    C9 7401   3.796   6.200   9.770  0.0935 -0.6089 -0.8980
   67CHL1    H9 7402   3.708   6.259   9.805  0.4246 -2.0578  2.6337
   67CHL1   C10 7403   3.874   6.140   9.882 -0.1029 -0.0271 -0.4187
   67CHL1   C19 7404   4.004   6.066   9.833  0.3503 -0.3880 -0.1714
   67CHL1  H19A 7405   3.975   6.007   9.743 -1.1022 -0.8281  0.5759
   67CHL1  H19B 7406   4.078   6.140   9.797  0.3032 -0.3093 -0.1035
   67CHL1  H19C 7407   4.060   6.009   9.910 -0.9958 -2.1240 -0.4492
   67CHL1    C1 7408   3.908   6.249   9.984 -0.2602  0.0740  0.0045
   67CHL1   H1A 7409   3.989   6.307   9.935 -0.5083 -1.2884 -2.1038
   67CHL1   H1B 7410   3.815   6.306  10.005  0.6038  2.0438 -1.3493
   67CHL1    C2 7411   3.954   6.205  10.126 -0.1697 -0.5632  0.6695
   67CHL1   H2A 7412   3.971   6.293  10.192 -0.8323 -0.2984  0.4894
   67CHL1   H2B 7413   4.055   6.166  10.101 -0.0064 -0.7401  1.6059
   67CHL1   C20 7414   3.688   6.317   9.233 -0.1742  0.0624  0.5002
   67CHL1   H20 7415   3.747   6.240   9.179  0.0233  1.3707 -1.1957
   67CHL1   C21 7416   3.788   6.438   9.244  0.1519  0.0565  0.3224
   67CHL1  H21A 7417   3.813   6.486   9.147 -0.5134  0.5862  0.4075
   67CHL1  H21B 7418   3.882   6.407   9.294  0.2663 -0.6704 -0.3334
   67CHL1  H21C 7419   3.751   6.520   9.309 -0.1646 -1.9705  2.7586
   67CHL1   C22 7420   3.569   6.349   9.144  0.2247 -0.3450 -0.4624
   67CHL1  H22A 7421   3.509   6.255   9.138 -3.8912  2.0810  0.9096
   67CHL1  H22B 7422   3.508   6.424   9.199 -0.5318 -0.1671 -1.5254
   67CHL1   C23 7423   3.605   6.410   9.005  1.0279 -0.1841  0.2715
   67CHL1  H23A 7424   3.636   6.514   9.032 -1.0506  0.3402  0.7386
   67CHL1  H23B 7425   3.693   6.368   8.953 -1.3869 -2.4609 -2.0830
   67CHL1   C24 7426   3.482   6.429   8.924  0.7813 -0.1038 -0.3365
   67CHL1  H24A 7427   3.429   6.333   8.939 -0.0038  0.1669 -1.2645
   67CHL1  H24B 7428   3.417   6.508   8.969  1.7433 -0.1376  1.1098
   67CHL1   C25 7429   3.510   6.473   8.780  0.2004  0.0833 -0.2688
   67CHL1   H25 7430   3.597   6.543   8.782  1.8199 -1.8670 -0.9903
   67CHL1   C26 7431   3.572   6.358   8.697  0.4251 -0.2552 -0.3019
   67CHL1  H26A 7432   3.630   6.392   8.608  0.2161 -0.5460 -0.5541
   67CHL1  H26B 7433   3.637   6.307   8.771  2.0578  2.4881  0.1975
   67CHL1  H26C 7434   3.504   6.272   8.675  0.9552 -1.6129  3.0862
   67CHL1   C27 7435   3.398   6.555   8.719  0.3145  0.1160  0.3084
   67CHL1  H27A 7436   3.378   6.641   8.786 -2.1754 -1.2565  1.3845
   67CHL1  H27B 7437   3.436   6.588   8.619  0.0654  1.8623  0.7709
   67CHL1  H27C 7438   3.305   6.494   8.708 -0.3293  0.7516  2.1124
   68CHL1    C3 7439   1.445   0.148  10.295  0.2940 -0.2192  0.1844
   68CHL1    H3 7440   1.380   0.058  10.287  0.2654 -0.2375  0.6251
   68CHL1    O3 7441   1.491   0.169  10.425  0.3110  0.5807  0.1942
   68CHL1   H3' 7442   1.573   0.119  10.419 -0.3663 -0.4675 -0.7317
   68CHL1    C4 7443   1.561   0.131  10.193 -0.5770  0.2190  0.2520
   68CHL1   H4A 7444   1.621   0.225  10.196  1.2297 -0.9511  1.2156
   68CHL1   H4B 7445   1.628   0.048  10.225 -0.3344  0.4230  0.2810
   68CHL1    C5 7446   1.528   0.128  10.042 -0.4246  0.3496 -0.9502
   68CHL1    C6 7447   1.576   0.029   9.958 -0.5702 -0.1844 -0.1378
   68CHL1    H6 7448   1.646  -0.049   9.992 -1.2013 -0.1880  1.1643
   68CHL1    C7 7449   1.542   0.020   9.809 -0.1118  0.8086 -0.4695
   68CHL1   H7A 7450   1.631  -0.018   9.755 -0.9506 -1.5853 -0.2610
   68CHL1   H7B 7451   1.464  -0.058   9.796  0.3818  0.5512 -1.9150
   68CHL1    C8 7452   1.481   0.155   9.756  0.0216  0.2471 -0.2611
   68CHL1    H8 7453   1.566   0.226   9.750 -0.7740  1.4360  1.7925
   68CHL1   C14 7454   1.412   0.131   9.626  0.0047 -0.2255  0.4460
   68CHL1   H14 7455   1.334   0.057   9.654 -0.7429 -0.3436 -1.8749
   68CHL1   C15 7456   1.486   0.054   9.518  0.4542  0.0329  0.7903
   68CHL1  H15A 7457   1.585   0.104   9.506 -1.5655  3.6299 -2.3089
   68CHL1  H15B 7458   1.495  -0.056   9.527 -0.9542 -0.1661 -0.1320
   68CHL1   C16 7459   1.394   0.079   9.390  0.8973  0.0455  0.1510
   68CHL1  H16A 7460   1.459   0.115   9.307  1.5554 -0.0881  0.6020
   68CHL1  H16B 7461   1.346  -0.014   9.353 -1.7400  1.8363 -1.0192
   68CHL1   C17 7462   1.285   0.181   9.424  0.3358  0.7849 -0.6651
   68CHL1   H17 7463   1.199   0.117   9.454  1.0856  0.7322  1.4377
   68CHL1   C13 7464   1.340   0.246   9.556 -0.0579 -0.3835 -0.2034
   68CHL1   C18 7465   1.439   0.360   9.515 -0.1334  0.3386 -0.1444
   68CHL1  H18A 7466   1.525   0.320   9.458 -0.9751 -1.1621 -0.3687
   68CHL1  H18B 7467   1.393   0.440   9.452 -1.4013  0.5713  1.0427
   68CHL1  H18C 7468   1.483   0.407   9.605 -1.0360  2.0895 -0.5863
   68CHL1   C12 7469   1.225   0.290   9.660  0.0231 -0.5849 -0.0121
   68CHL1  H12A 7470   1.173   0.378   9.618  2.3350  1.4304  1.2314
   68CHL1  H12B 7471   1.155   0.204   9.661  0.2282 -0.7529  0.6971
   68CHL1   C11 7472   1.283   0.322   9.800  0.8816  0.8000 -0.2627
   68CHL1  H11A 7473   1.347   0.409   9.773  0.2327  1.4882  0.4196
   68CHL1  H11B 7474   1.198   0.337   9.870  0.9246  3.4795 -0.7318
   68CHL1    C9 7475   1.371   0.208   9.857 -0.4225  0.2423 -0.0210
   68CHL1    H9 7476   1.306   0.119   9.874  0.0044 -0.1745 -0.5438
   68CHL1   C10 7477   1.426   0.235  10.002  0.3118 -0.3201 -0.3958
   68CHL1   C19 7478   1.498   0.371   9.993 -0.5378  0.0718 -0.0028
   68CHL1  H19A 7479   1.560   0.374   9.900 -1.0058  0.7949 -0.2973
   68CHL1  H19B 7480   1.428   0.457   9.982 -1.0985 -0.3135  0.5360
   68CHL1  H19C 7481   1.560   0.406  10.077 -0.1945  0.0748 -0.2559
   68CHL1    C1 7482   1.307   0.251  10.103 -0.4978 -0.4481  0.1619
   68CHL1   H1A 7483   1.246   0.340  10.080  0.7561  0.6037  0.8225
   68CHL1   H1B 7484   1.244   0.159  10.106 -2.1245  0.6971  2.4311
   68CHL1    C2 7485   1.355   0.271  10.251 -1.1157  0.6895 -0.7660
   68CHL1   H2A 7486   1.269   0.279  10.321 -0.4738 -0.2432  0.1537
   68CHL1   H2B 7487   1.415   0.364  10.247  1.6057 -0.9756 -0.2074
   68CHL1   C20 7488   1.229   0.264   9.308 -0.3889 -0.5044 -1.0366
   68CHL1   H20 7489   1.320   0.315   9.270  0.9892  0.5398  3.3555
   68CHL1   C21 7490   1.121   0.361   9.357 -0.7919  0.7615  0.1272
   68CHL1  H21A 7491   1.180   0.446   9.397  0.5000  0.5867 -1.3585
   68CHL1  H21B 7492   1.055   0.307   9.428 -1.7822  1.9485  0.1360
   68CHL1  H21C 7493   1.059   0.402   9.275 -0.6113  2.2106  0.6940
   68CHL1   C22 7494   1.164   0.164   9.205  0.4772  0.1101  0.5556
   68CHL1  H22A 7495   1.221   0.068   9.197  3.3730  1.8874 -0.9079
   68CHL1  H22B 7496   1.060   0.140   9.234 -0.5484  1.2422 -2.0265
   68CHL1   C23 7497   1.141   0.224   9.065 -0.3224  0.4656  0.0163
   68CHL1  H23A 7498   1.095   0.322   9.092  2.5888  1.1389  2.8076
   68CHL1  H23B 7499   1.233   0.238   9.005 -0.2357  0.4802  0.1517
   68CHL1   C24 7500   1.040   0.136   8.984 -0.2833  0.6183  0.1952
   68CHL1  H24A 7501   1.075   0.031   8.973 -1.0013  0.0124  3.3489
   68CHL1  H24B 7502   0.940   0.142   9.031  1.1106  2.2564  3.0579
   68CHL1   C25 7503   1.014   0.200   8.835  0.1220 -0.2300  0.4853
   68CHL1   H25 7504   1.110   0.172   8.787  0.7710 -0.4125  1.8519
   68CHL1   C26 7505   0.904   0.117   8.762 -0.3662  0.1552 -0.0792
   68CHL1  H26A 7506   0.808   0.125   8.819  0.1000  1.8460  0.4916
   68CHL1  H26B 7507   0.888   0.170   8.666 -1.1625  0.5038  0.2396
   68CHL1  H26C 7508   0.935   0.011   8.749 -0.7159  0.0470 -0.0555
   68CHL1   C27 7509   0.984   0.347   8.828  0.2291  0.0123  0.1265
   68CHL1  H27A 7510   0.879   0.367   8.859  0.7111  0.8837  1.2705
   68CHL1  H27B 7511   1.053   0.402   8.896 -0.2225  1.1745 -0.3342
   68CHL1  H27C 7512   0.987   0.393   8.727 -1.8478  1.4036  0.6488
   69CHL1    C3 7513   0.868   4.642   6.756  0.0524  0.0063  0.1462
   69CHL1    H3 7514   0.955   4.604   6.698 -1.0855  1.9564 -2.9713
   69CHL1    O3 7515   0.776   4.678   6.654  0.5674 -0.2857 -0.8738
   69CHL1   H3' 7516   0.700   4.719   6.697  0.3144  1.2048 -2.6983
   69CHL1    C4 7517   0.809   4.548   6.859 -0.0597 -0.2159 -0.4901
   69CHL1   H4A 7518   0.720   4.604   6.896 -0.3460 -0.5238 -0.7131
   69CHL1   H4B 7519   0.768   4.462   6.803  2.6517 -2.1983  0.4637
   69CHL1    C5 7520   0.903   4.510   6.973  0.0492  0.2556  0.9565
   69CHL1    C6 7521   0.941   4.382   6.999 -0.5937  0.7048  0.3648
   69CHL1    H6 7522   0.894   4.298   6.945 -1.3359 -1.0889  3.6163
   69CHL1    C7 7523   1.028   4.339   7.114 -0.2737  0.7236 -0.4419
   69CHL1   H7A 7524   0.990   4.254   7.174  1.6047  1.9223  2.5315
   69CHL1   H7B 7525   1.122   4.296   7.074 -0.3449  1.7725 -1.7902
   69CHL1    C8 7526   1.043   4.461   7.210 -0.3892  0.5000 -0.3137
   69CHL1    H8 7527   0.942   4.464   7.256 -1.2388 -1.2262 -1.9823
   69CHL1   C14 7528   1.140   4.438   7.323 -0.3247  0.3181  0.3044
   69CHL1   H14 7529   1.240   4.412   7.283 -0.8027 -1.6544  0.3240
   69CHL1   C15 7530   1.118   4.310   7.405  0.2006 -0.1856  1.2416
   69CHL1  H15A 7531   1.010   4.311   7.432 -0.3613 -0.4874 -0.9061
   69CHL1  H15B 7532   1.147   4.223   7.342 -0.1234 -0.2427  1.1691
   69CHL1   C16 7533   1.205   4.337   7.529 -0.0652 -0.5982  0.5349
   69CHL1  H16A 7534   1.143   4.321   7.619 -0.4991 -0.8458  0.1936
   69CHL1  H16B 7535   1.290   4.266   7.530 -0.4681 -1.0675  1.1107
   69CHL1   C17 7536   1.270   4.479   7.512  0.0276  0.3576  0.0548
   69CHL1   H17 7537   1.354   4.459   7.443 -1.2595 -0.1331 -1.4092
   69CHL1   C13 7538   1.174   4.552   7.420  0.9236  0.1932 -0.4797
   69CHL1   C18 7539   1.046   4.598   7.490 -0.3783 -0.1351  1.0285
   69CHL1  H18A 7540   1.023   4.520   7.566  1.1822  0.1749  1.8358
   69CHL1  H18B 7541   1.067   4.700   7.529 -0.7975 -0.0133  0.9341
   69CHL1  H18C 7542   0.955   4.595   7.426  0.9827  3.9274 -1.2910
   69CHL1   C12 7543   1.241   4.659   7.327  0.0434  0.1422  0.4121
   69CHL1  H12A 7544   1.276   4.747   7.385  1.8347 -0.7263  0.6602
   69CHL1  H12B 7545   1.326   4.610   7.277 -0.3735  1.5071 -1.7222
   69CHL1   C11 7546   1.151   4.701   7.214 -0.6051 -0.5882  0.8213
   69CHL1  H11A 7547   1.070   4.760   7.262  1.1751  0.4833  2.5920
   69CHL1  H11B 7548   1.209   4.766   7.145 -0.8338  1.6229  2.6421
   69CHL1    C9 7549   1.079   4.591   7.132 -0.2785 -1.1017 -0.7331
   69CHL1    H9 7550   1.154   4.560   7.056 -0.5161  0.1517 -1.5060
   69CHL1   C10 7551   0.961   4.633   7.041  0.4084 -0.0597  0.3983
   69CHL1   C19 7552   0.849   4.691   7.131  0.0404  0.1541  0.4619
   69CHL1  H19A 7553   0.844   4.644   7.232  3.2312 -1.3574  0.0108
   69CHL1  H19B 7554   0.865   4.800   7.146  1.2175  0.3519 -2.0058
   69CHL1  H19C 7555   0.756   4.686   7.071  0.3825 -1.2726  0.0162
   69CHL1    C1 7556   1.018   4.744   6.945 -0.4876 -0.2938  0.5712
   69CHL1   H1A 7557   1.039   4.840   6.996 -1.8441  0.8212 -0.9296
   69CHL1   H1B 7558   1.104   4.705   6.886 -1.2378 -1.0998 -0.0029
   69CHL1    C2 7559   0.915   4.772   6.832  0.1747  0.3117  0.1472
   69CHL1   H2A 7560   0.963   4.838   6.757 -1.0360 -1.2444 -2.0380
   69CHL1   H2B 7561   0.832   4.827   6.883 -1.1930  0.3559 -2.0709
   69CHL1   C20 7562   1.298   4.548   7.643 -0.8842 -0.5949 -1.0501
   69CHL1   H20 7563   1.214   4.541   7.714  1.1901  2.5486  1.8609
   69CHL1   C21 7564   1.336   4.698   7.626 -0.0230 -0.3596 -0.0366
   69CHL1  H21A 7565   1.391   4.735   7.715 -1.1771  1.3457 -0.0185
   69CHL1  H21B 7566   1.243   4.758   7.622  0.6181  0.4966 -2.5385
   69CHL1  H21C 7567   1.409   4.708   7.543 -0.1005  2.6235  0.2021
   69CHL1   C22 7568   1.426   4.481   7.703 -0.2419 -0.1646 -0.3445
   69CHL1  H22A 7569   1.406   4.372   7.705 -4.0411  0.4261 -1.4562
   69CHL1  H22B 7570   1.517   4.501   7.643 -0.9809  2.4642 -0.6641
   69CHL1   C23 7571   1.455   4.520   7.848  0.3690  0.3557  0.8420
   69CHL1  H23A 7572   1.477   4.628   7.850 -0.6165  0.5521  1.5969
   69CHL1  H23B 7573   1.359   4.514   7.903 -0.6091  0.6980 -0.8312
   69CHL1   C24 7574   1.547   4.427   7.923  0.4960 -0.3468 -0.1329
   69CHL1  H24A 7575   1.520   4.319   7.918 -0.7086 -0.1225  1.2808
   69CHL1  H24B 7576   1.644   4.438   7.869 -0.1870 -2.9106 -1.9646
   69CHL1   C25 7577   1.556   4.462   8.079  0.3654  0.9614  0.1078
   69CHL1   H25 7578   1.453   4.459   8.120 -0.1108  0.9191 -1.0906
   69CHL1   C26 7579   1.634   4.347   8.150 -0.4517 -0.2307  0.0045
   69CHL1  H26A 7580   1.572   4.289   8.221 -0.6358  0.6860  0.6008
   69CHL1  H26B 7581   1.677   4.277   8.075 -0.1351  0.3273 -0.3451
   69CHL1  H26C 7582   1.716   4.390   8.211  0.1502  0.2560 -1.1196
   69CHL1   C27 7583   1.609   4.604   8.102 -0.3755  1.0267  0.6499
   69CHL1  H27A 7584   1.613   4.613   8.213  0.5679 -1.3635  0.8276
   69CHL1  H27B 7585   1.706   4.624   8.052 -1.5742  1.2236 -1.6725
   69CHL1  H27C 7586   1.542   4.679   8.055 -1.0918  0.0304  0.0738
   70CHL1    C3 7587   0.010   1.050   7.289  0.5157 -0.1303 -0.0216
   70CHL1    H3 7588  -0.001   0.943   7.316  2.0321 -0.5458 -1.0404
   70CHL1    O3 7589  -0.031   1.068   7.155 -0.1240 -0.0878 -0.3299
   70CHL1   H3' 7590   0.037   1.126   7.119 -1.2841  1.3448 -0.2762
   70CHL1    C4 7591  -0.079   1.144   7.379 -0.2528  0.0010  0.4913
   70CHL1   H4A 7592  -0.057   1.247   7.345 -0.4011 -0.6446 -1.6533
   70CHL1   H4B 7593  -0.187   1.121   7.366  0.1864 -1.7613 -0.1662
   70CHL1    C5 7594  -0.036   1.143   7.517 -0.0845 -0.0599 -0.0125
   70CHL1    C6 7595  -0.124   1.090   7.605 -0.0007 -0.9756 -0.4144
   70CHL1    H6 7596  -0.219   1.057   7.560  1.7034 -2.5342 -2.9987
   70CHL1    C7 7597  -0.089   1.065   7.751  0.1913  0.5364 -0.1004
   70CHL1   H7A 7598  -0.179   1.083   7.814  2.0557  0.6274  2.6367
   70CHL1   H7B 7599  -0.077   0.955   7.760  1.7052  0.6202 -1.0200
   70CHL1    C8 7600   0.038   1.147   7.801  0.7544 -0.5498 -0.0011
   70CHL1    H8 7601  -0.001   1.251   7.797 -0.1092 -0.8542  0.4889
   70CHL1   C14 7602   0.074   1.117   7.944 -0.1189 -0.1352  1.0209
   70CHL1   H14 7603   0.107   1.011   7.937 -0.0782 -0.0377 -0.6323
   70CHL1   C15 7604  -0.030   1.128   8.054 -0.2795  0.1655 -0.2061
   70CHL1  H15A 7605  -0.081   1.226   8.046  1.1051  0.8235 -1.1821
   70CHL1  H15B 7606  -0.099   1.042   8.038 -2.6052  2.0002 -0.2609
   70CHL1   C16 7607   0.055   1.130   8.183 -0.5964 -1.0702  0.1322
   70CHL1  H16A 7608   0.024   1.218   8.245  2.3818  0.2104 -0.1019
   70CHL1  H16B 7609   0.032   1.043   8.248  0.4431 -0.3191  1.5250
   70CHL1   C17 7610   0.205   1.134   8.137 -0.2107 -0.4100  1.1101
   70CHL1   H17 7611   0.236   1.029   8.123  1.8092  0.4449 -1.2760
   70CHL1   C13 7612   0.203   1.188   7.989 -0.5457  0.4909 -0.2188
   70CHL1   C18 7613   0.186   1.337   7.998  0.3226 -0.5689 -0.5744
   70CHL1  H18A 7614   0.278   1.387   8.036 -0.0010  0.0417 -0.5913
   70CHL1  H18B 7615   0.163   1.382   7.900  2.2308 -2.5662 -2.0003
   70CHL1  H18C 7616   0.101   1.369   8.062 -0.4115 -1.8709 -0.8666
   70CHL1   C12 7617   0.317   1.148   7.893 -0.7794  0.6089  0.6704
   70CHL1  H12A 7618   0.409   1.203   7.923 -0.9842  0.8503  0.8602
   70CHL1  H12B 7619   0.338   1.040   7.901 -0.8120  0.6098  0.7782
   70CHL1   C11 7620   0.287   1.186   7.746  0.1952 -0.0566 -0.3292
   70CHL1  H11A 7621   0.288   1.297   7.737  0.8499 -0.0697 -0.4251
   70CHL1  H11B 7622   0.370   1.152   7.682  2.1221  0.7867  1.6537
   70CHL1    C9 7623   0.158   1.122   7.696  0.4465 -0.3707 -0.4641
   70CHL1    H9 7624   0.175   1.013   7.687 -0.5022 -0.5459 -0.1763
   70CHL1   C10 7625   0.118   1.163   7.547 -0.8437  0.1419  0.0347
   70CHL1   C19 7626   0.152   1.309   7.519 -0.9273  0.4687  0.4809
   70CHL1  H19A 7627   0.108   1.340   7.422  0.0914  0.7054  0.0910
   70CHL1  H19B 7628   0.116   1.369   7.604  0.8095 -0.2572  1.7665
   70CHL1  H19C 7629   0.260   1.333   7.516 -0.9741  0.5669 -1.5318
   70CHL1    C1 7630   0.203   1.077   7.446  0.2580 -0.2683 -0.4148
   70CHL1   H1A 7631   0.310   1.103   7.462  0.4765 -0.9929 -0.6773
   70CHL1   H1B 7632   0.187   0.972   7.477  1.0702 -0.3607 -0.2887
   70CHL1    C2 7633   0.158   1.092   7.299  0.2276 -0.2897 -0.0107
   70CHL1   H2A 7634   0.216   1.021   7.236  1.0519 -0.9320  1.4683
   70CHL1   H2B 7635   0.182   1.195   7.267  2.5884  0.0951  2.8752
   70CHL1   C20 7636   0.289   1.205   8.247 -0.1054  0.0175  0.3531
   70CHL1   H20 7637   0.258   1.311   8.261  1.7352  0.6729 -0.3989
   70CHL1   C21 7638   0.439   1.209   8.215 -0.0158 -0.0021  0.2609
   70CHL1  H21A 7639   0.477   1.223   8.319  0.5465 -2.3149  0.3901
   70CHL1  H21B 7640   0.472   1.306   8.171 -0.1840  0.0373  0.2221
   70CHL1  H21C 7641   0.476   1.119   8.161 -1.5304 -0.1067 -0.6259
   70CHL1   C22 7642   0.267   1.145   8.384  0.4763 -0.7591 -0.2954
   70CHL1  H22A 7643   0.322   1.198   8.466  2.9400 -0.7437 -1.8891
   70CHL1  H22B 7644   0.159   1.148   8.407  0.5948  0.0028  0.2018
   70CHL1   C23 7645   0.328   1.005   8.406 -0.7745 -0.2235  0.0115
   70CHL1  H23A 7646   0.304   0.936   8.322 -2.9500 -1.4543  1.5750
   70CHL1  H23B 7647   0.436   1.021   8.426 -0.9689 -2.9302  3.8016
   70CHL1   C24 7648   0.268   0.932   8.531 -0.5610 -0.1025 -0.3140
   70CHL1  H24A 7649   0.246   0.992   8.621 -0.5056 -1.0948  0.3735
   70CHL1  H24B 7650   0.170   0.887   8.504 -0.2301 -0.2068 -1.3779
   70CHL1   C25 7651   0.370   0.823   8.591  0.3720 -0.7405  0.0447
   70CHL1   H25 7652   0.457   0.886   8.619 -1.5964  1.1252  2.1700
   70CHL1   C26 7653   0.294   0.748   8.699 -0.2171  0.1900  1.0228
   70CHL1  H26A 7654   0.272   0.810   8.788 -0.1796  1.6245  0.0580
   70CHL1  H26B 7655   0.193   0.710   8.673  0.2213 -1.2501  1.3791
   70CHL1  H26C 7656   0.349   0.658   8.735  0.4505  0.2644  0.2102
   70CHL1   C27 7657   0.416   0.733   8.472 -0.1007  0.6466 -0.4509
   70CHL1  H27A 7658   0.496   0.669   8.514 -0.8474  1.1440  1.8435
   70CHL1  H27B 7659   0.328   0.674   8.438  0.8964 -1.7371  1.0059
   70CHL1  H27C 7660   0.447   0.805   8.393 -0.9452 -0.5257 -1.8707
   71CHL1    C3 7661   6.717   2.992   7.029  0.4751  0.6242  0.7910
   71CHL1    H3 7662   6.824   2.972   7.051  0.1866 -0.9197  0.8287
   71CHL1    O3 7663   6.672   2.953   6.900  0.4138 -0.8368 -0.2695
   71CHL1   H3' 7664   6.587   2.996   6.894  0.2678 -0.9117  1.0946
   71CHL1    C4 7665   6.623   2.945   7.137 -0.3135 -0.4830 -0.8716
   71CHL1   H4A 7666   6.515   2.966   7.118 -0.3388  2.4910  1.9772
   71CHL1   H4B 7667   6.639   2.835   7.138 -3.3514 -0.9692  0.4018
   71CHL1    C5 7668   6.658   3.002   7.276  0.0375 -0.0831 -0.4210
   71CHL1    C6 7669   6.684   2.929   7.385  0.7652  0.2399  0.5045
   71CHL1    H6 7670   6.684   2.820   7.371  0.4636  0.3368 -0.2869
   71CHL1    C7 7671   6.713   2.986   7.525  0.3522  0.1092 -0.4442
   71CHL1   H7A 7672   6.666   2.939   7.614 -1.3157  0.8429 -0.9229
   71CHL1   H7B 7673   6.820   2.965   7.543 -0.3463 -2.2628  1.1738
   71CHL1    C8 7674   6.679   3.137   7.539 -0.5740  1.0991 -0.1493
   71CHL1    H8 7675   6.569   3.141   7.552 -0.6688 -1.2312  0.0246
   71CHL1   C14 7676   6.747   3.204   7.659 -0.5723 -0.2163  0.2024
   71CHL1   H14 7677   6.857   3.216   7.644 -1.0946  2.1543 -2.0563
   71CHL1   C15 7678   6.740   3.129   7.798  0.6367  0.2981 -0.1853
   71CHL1  H15A 7679   6.640   3.090   7.827  0.8727 -0.0904  0.1154
   71CHL1  H15B 7680   6.812   3.045   7.799 -0.1022 -0.3589 -1.5448
   71CHL1   C16 7681   6.783   3.238   7.896  0.0939 -0.0828 -0.2343
   71CHL1  H16A 7682   6.707   3.253   7.975  1.2941  1.3465  0.6816
   71CHL1  H16B 7683   6.885   3.221   7.937  0.8520  1.6594 -1.3144
   71CHL1   C17 7684   6.783   3.377   7.813 -0.7706 -0.1096 -0.0479
   71CHL1   H17 7685   6.887   3.388   7.776 -0.1695  1.9202  2.1061
   71CHL1   C13 7686   6.706   3.345   7.681 -0.1677  0.1598  0.3185
   71CHL1   C18 7687   6.558   3.367   7.716  0.9007  0.1285  0.1359
   71CHL1  H18A 7688   6.490   3.334   7.634 -1.9940 -0.2679  2.6273
   71CHL1  H18B 7689   6.533   3.306   7.806 -1.1348  1.5117  0.5530
   71CHL1  H18C 7690   6.531   3.468   7.753  1.0199 -0.4536  1.8678
   71CHL1   C12 7691   6.750   3.430   7.561  0.4674  0.2496  0.4941
   71CHL1  H12A 7692   6.716   3.534   7.578  1.9403  1.2021 -2.1510
   71CHL1  H12B 7693   6.860   3.418   7.552  0.0924 -2.5390 -0.8578
   71CHL1   C11 7694   6.694   3.369   7.427  0.1718 -0.6370 -0.3040
   71CHL1  H11A 7695   6.589   3.406   7.421  1.2839  2.4269 -2.4379
   71CHL1  H11B 7696   6.750   3.415   7.343 -1.9045 -1.1944 -2.0459
   71CHL1    C9 7697   6.716   3.213   7.409  0.4104 -0.0932 -0.8482
   71CHL1    H9 7698   6.825   3.196   7.401  0.5905  0.5997  0.0684
   71CHL1   C10 7699   6.658   3.154   7.275  0.4442  0.1687 -0.3530
   71CHL1   C19 7700   6.520   3.213   7.248 -0.7107 -0.2361 -0.2591
   71CHL1  H19A 7701   6.454   3.148   7.187  1.5855 -1.7489 -1.1698
   71CHL1  H19B 7702   6.462   3.209   7.343  0.1965 -0.0895  0.3056
   71CHL1  H19C 7703   6.523   3.316   7.205  0.2512 -0.3053 -0.3505
   71CHL1    C1 7704   6.755   3.198   7.159  0.5071  0.3043  0.0597
   71CHL1   H1A 7705   6.763   3.308   7.145  1.6503  0.5010  2.0022
   71CHL1   H1B 7706   6.854   3.151   7.180  1.3296  2.3251  0.8450
   71CHL1    C2 7707   6.713   3.143   7.024 -0.0114 -0.2108  0.8182
   71CHL1   H2A 7708   6.770   3.191   6.942  0.7278 -0.4167  1.2082
   71CHL1   H2B 7709   6.611   3.186   7.011 -0.3395 -1.5363 -1.2081
   71CHL1   C20 7710   6.753   3.493   7.912  0.8967  0.8343  0.2693
   71CHL1   H20 7711   6.649   3.468   7.941  0.8693  1.2726  0.5588
   71CHL1   C21 7712   6.737   3.630   7.853  0.2023 -0.3505  0.4342
   71CHL1  H21A 7713   6.716   3.708   7.929  3.5205  1.0751 -0.0256
   71CHL1  H21B 7714   6.655   3.628   7.779  0.2443 -1.7199  0.4151
   71CHL1  H21C 7715   6.833   3.660   7.806  1.0769 -2.6248  0.7026
   71CHL1   C22 7716   6.847   3.496   8.027 -0.3539  0.1382  0.2117
   71CHL1  H22A 7717   6.815   3.404   8.080 -2.4800 -0.4404 -1.9494
   71CHL1  H22B 7718   6.952   3.494   7.990  0.2453  0.8029  1.8513
   71CHL1   C23 7719   6.841   3.620   8.131 -0.5005  0.3483 -0.6720
   71CHL1  H23A 7720   6.858   3.715   8.076  0.4288 -0.4388 -1.7629
   71CHL1  H23B 7721   6.740   3.615   8.177  0.4513  0.3442  1.4386
   71CHL1   C24 7722   6.941   3.597   8.246 -0.7807 -0.1455 -0.4000
   71CHL1  H24A 7723   6.926   3.495   8.288  1.9765 -2.0544 -3.6924
   71CHL1  H24B 7724   7.044   3.609   8.207 -0.7893 -1.3479 -0.8343
   71CHL1   C25 7725   6.916   3.687   8.365  0.1771 -0.9583 -0.5706
   71CHL1   H25 7726   6.810   3.671   8.396  0.2386 -0.0297  0.1642
   71CHL1   C26 7727   7.007   3.647   8.476 -0.8207 -0.1081  0.3167
   71CHL1  H26A 7728   7.108   3.678   8.441 -1.3581  0.9610 -0.2938
   71CHL1  H26B 7729   6.976   3.687   8.575 -0.9529 -0.8424  0.5733
   71CHL1  H26C 7730   7.001   3.536   8.478  0.2932 -0.1745  0.7004
   71CHL1   C27 7731   6.936   3.835   8.349 -0.1184 -0.3379  0.4329
   71CHL1  H27A 7732   7.036   3.866   8.313  0.3149 -1.6604  0.4916
   71CHL1  H27B 7733   6.869   3.863   8.265  1.6266 -2.3770 -1.7167
   71CHL1  H27C 7734   6.915   3.893   8.442 -2.0190  2.1390 -1.4596
   72CHL1    C3 7735   0.288   1.610   7.120 -0.0661 -0.4782 -0.3400
   72CHL1    H3 7736   0.220   1.532   7.162  2.8128 -1.7490  2.1033
   72CHL1    O3 7737   0.279   1.609   6.983  0.2101  0.2413  0.1341
   72CHL1   H3' 7738   0.326   1.531   6.952 -0.9586 -0.4752  0.1083
   72CHL1    C4 7739   0.244   1.748   7.181 -0.1054  0.4538  0.3250
   72CHL1   H4A 7740   0.310   1.825   7.138  1.4725 -0.1414  1.6467
   72CHL1   H4B 7741   0.142   1.772   7.144 -1.1933 -2.4301  1.2758
   72CHL1    C5 7742   0.242   1.747   7.329  0.1607  0.4468 -0.9225
   72CHL1    C6 7743   0.135   1.782   7.399  0.4151  0.4490 -0.0553
   72CHL1    H6 7744   0.040   1.810   7.352 -1.7527  1.2683  4.6274
   72CHL1    C7 7745   0.138   1.793   7.552  0.2342  1.3561 -0.6289
   72CHL1   H7A 7746   0.086   1.883   7.592  0.2055  1.2116 -0.3389
   72CHL1   H7B 7747   0.079   1.702   7.578 -1.1260  2.2082 -0.6855
   72CHL1    C8 7748   0.274   1.782   7.617  0.4964  0.4212 -0.4562
   72CHL1    H8 7749   0.333   1.874   7.598  1.0092  0.4613  1.2686
   72CHL1   C14 7750   0.269   1.754   7.765 -0.5133 -0.7533 -0.1603
   72CHL1   H14 7751   0.227   1.651   7.771 -1.9067 -0.1541  0.6602
   72CHL1   C15 7752   0.172   1.847   7.850  0.6358 -0.1434 -0.1137
   72CHL1  H15A 7753   0.179   1.955   7.824  0.6643  0.0435  0.6503
   72CHL1  H15B 7754   0.070   1.819   7.816 -0.9850  4.4663  0.6000
   72CHL1   C16 7755   0.216   1.810   7.991  0.5364  0.0635 -0.3100
   72CHL1  H16A 7756   0.225   1.907   8.044 -0.3938 -1.7130  3.2497
   72CHL1  H16B 7757   0.133   1.754   8.039  2.3907 -1.3584  1.3095
   72CHL1   C17 7758   0.348   1.728   7.991  0.4089 -0.3627  0.4413
   72CHL1   H17 7759   0.319   1.622   8.005  0.6617 -0.9947 -3.3242
   72CHL1   C13 7760   0.398   1.744   7.843  0.1237  0.7025  0.8307
   72CHL1   C18 7761   0.472   1.876   7.826  0.0432 -0.3411  0.5519
   72CHL1  H18A 7762   0.398   1.957   7.813  0.5538 -0.3459 -2.9317
   72CHL1  H18B 7763   0.537   1.886   7.915  1.4122 -0.6135 -0.3934
   72CHL1  H18C 7764   0.543   1.882   7.740  0.3744 -1.1783  0.7655
   72CHL1   C12 7765   0.478   1.631   7.780 -0.7596 -1.4969 -0.1209
   72CHL1  H12A 7766   0.580   1.630   7.824 -1.2614  3.5098  1.3774
   72CHL1  H12B 7767   0.431   1.534   7.807  0.3977 -2.4689 -1.4972
   72CHL1   C11 7768   0.482   1.636   7.623 -0.3656  0.0180  0.4992
   72CHL1  H11A 7769   0.552   1.719   7.602  2.7580 -2.1692  1.8428
   72CHL1  H11B 7770   0.527   1.544   7.581 -1.4740  0.2281 -1.2081
   72CHL1    C9 7771   0.348   1.663   7.554  0.6660  0.2152  0.0556
   72CHL1    H9 7772   0.277   1.578   7.570 -0.3713  0.8527 -1.0087
   72CHL1   C10 7773   0.363   1.693   7.404 -0.0773 -0.0227  0.3733
   72CHL1   C19 7774   0.476   1.800   7.371 -1.4667 -0.8809 -0.4788
   72CHL1  H19A 7775   0.466   1.882   7.444 -1.4867 -0.6870 -0.6990
   72CHL1  H19B 7776   0.575   1.750   7.379 -1.2717 -0.4699 -0.3317
   72CHL1  H19C 7777   0.489   1.847   7.271  2.0541  1.0594  0.7942
   72CHL1    C1 7778   0.410   1.564   7.341  0.0925 -0.1615 -0.4153
   72CHL1   H1A 7779   0.498   1.509   7.380 -0.4762 -0.6979  0.1126
   72CHL1   H1B 7780   0.333   1.487   7.360 -0.6722  0.5142 -0.7606
   72CHL1    C2 7781   0.422   1.571   7.185  0.6849  0.5822  1.4585
   72CHL1   H2A 7782   0.445   1.469   7.147 -2.5673  0.6395 -0.8477
   72CHL1   H2B 7783   0.504   1.639   7.155  2.5496 -1.2498  2.2951
   72CHL1   C20 7784   0.440   1.760   8.107 -0.6860 -0.4514  0.2838
   72CHL1   H20 7785   0.476   1.864   8.101  1.2561 -1.1491 -0.7105
   72CHL1   C21 7786   0.558   1.664   8.113  0.3663  0.1708 -0.3084
   72CHL1  H21A 7787   0.609   1.678   8.210  0.2753 -1.5341 -0.0048
   72CHL1  H21B 7788   0.625   1.690   8.029  0.6111  0.3722 -0.0505
   72CHL1  H21C 7789   0.530   1.557   8.116 -0.7211  0.4713  0.9396
   72CHL1   C22 7790   0.362   1.759   8.243 -0.7308  0.2714 -0.2069
   72CHL1  H22A 7791   0.424   1.804   8.325 -1.0554  1.1844 -0.4522
   72CHL1  H22B 7792   0.274   1.826   8.231 -1.4001 -0.7873 -1.2897
   72CHL1   C23 7793   0.304   1.616   8.292  0.1909 -0.5413 -0.0152
   72CHL1  H23A 7794   0.235   1.566   8.220 -1.0210  0.8661  0.1553
   72CHL1  H23B 7795   0.388   1.547   8.314  0.2002 -1.2110 -2.0335
   72CHL1   C24 7796   0.207   1.648   8.410  0.3026  0.3987  0.1949
   72CHL1  H24A 7797   0.251   1.715   8.487 -1.1987  0.1515  1.2705
   72CHL1  H24B 7798   0.120   1.698   8.363 -0.4931 -1.0936  0.0849
   72CHL1   C25 7799   0.165   1.527   8.497  0.3377  0.0437  0.2581
   72CHL1   H25 7800   0.103   1.462   8.430 -0.1671  2.0946 -1.3191
   72CHL1   C26 7801   0.277   1.456   8.564  0.0958 -0.1895 -0.3429
   72CHL1  H26A 7802   0.244   1.363   8.616  2.2974 -1.3332 -0.9305
   72CHL1  H26B 7803   0.350   1.428   8.485 -1.5645 -2.0929 -1.2594
   72CHL1  H26C 7804   0.336   1.519   8.634  0.1352  0.3610 -0.8758
   72CHL1   C27 7805   0.057   1.586   8.594 -0.3569  0.1287 -0.5136
   72CHL1  H27A 7806   0.102   1.667   8.656  1.9250 -0.0638 -1.8397
   72CHL1  H27B 7807  -0.034   1.629   8.547 -0.1985 -0.9301 -1.8064
   72CHL1  H27C 7808   0.032   1.500   8.660  2.0029 -1.5632 -1.7492
   73CHL1    C3 7809   6.755   4.567   6.957  0.0741 -1.1779  0.0764
   73CHL1    H3 7810   6.823   4.655   6.952 -1.9322  0.4630  1.1124
   73CHL1    O3 7811   6.726   4.533   6.819 -0.2417 -0.4390 -0.1893
   73CHL1   H3' 7812   6.816   4.521   6.788 -0.1399 -0.4765  0.1127
   73CHL1    C4 7813   6.820   4.445   7.024 -0.1067  0.1151 -0.1554
   73CHL1   H4A 7814   6.746   4.362   7.012  1.2314 -1.0295 -0.6650
   73CHL1   H4B 7815   6.911   4.426   6.963  0.8251 -1.2623  1.5881
   73CHL1    C5 7816   6.854   4.469   7.173 -0.1597 -0.0232  0.2363
   73CHL1    C6 7817   6.984   4.449   7.210 -0.3684 -0.1237  0.3401
   73CHL1    H6 7818   7.062   4.414   7.139 -0.7430 -0.2065 -0.0312
   73CHL1    C7 7819   7.025   4.474   7.347  0.3376 -0.7249 -0.0290
   73CHL1   H7A 7820   7.095   4.397   7.384  1.7011  0.2099 -0.6131
   73CHL1   H7B 7821   7.087   4.566   7.353 -0.7034  0.0647 -1.1141
   73CHL1    C8 7822   6.909   4.494   7.446 -0.6383  0.0805  0.4187
   73CHL1    H8 7823   6.864   4.395   7.468  1.1459 -0.9051 -0.2790
   73CHL1   C14 7824   6.956   4.556   7.574  0.5293 -0.0441 -0.3377
   73CHL1   H14 7825   6.986   4.659   7.544  1.0358  0.2210  1.0506
   73CHL1   C15 7826   7.078   4.490   7.642  0.1459  0.6596  0.3804
   73CHL1  H15A 7827   7.067   4.381   7.622 -3.8135  1.1819 -0.7883
   73CHL1  H15B 7828   7.172   4.520   7.591 -0.6951  0.2357 -1.4734
   73CHL1   C16 7829   7.075   4.544   7.790  0.4337 -0.7878 -0.5178
   73CHL1  H16A 7830   7.065   4.458   7.860  4.5290 -0.6970  0.3110
   73CHL1  H16B 7831   7.167   4.602   7.810 -0.5973  0.2775  1.3613
   73CHL1   C17 7832   6.941   4.629   7.797 -0.0109 -0.0933 -0.6346
   73CHL1   H17 7833   6.971   4.733   7.771 -1.2095  0.1703 -0.9919
   73CHL1   C13 7834   6.852   4.576   7.689 -0.3025 -0.0062  0.7192
   73CHL1   C18 7835   6.804   4.436   7.730 -0.0818  0.3290  0.2731
   73CHL1  H18A 7836   6.757   4.398   7.637  0.8621 -3.0716  1.0964
   73CHL1  H18B 7837   6.880   4.361   7.760  1.0356  1.0111 -0.8682
   73CHL1  H18C 7838   6.731   4.433   7.815 -1.1321  0.2076 -0.6235
   73CHL1   C12 7839   6.739   4.660   7.628  0.4542  0.2973  0.5400
   73CHL1  H12A 7840   6.657   4.673   7.702 -1.2738 -0.3792 -1.2193
   73CHL1  H12B 7841   6.777   4.764   7.618  1.3571 -0.0509  0.3447
   73CHL1   C11 7842   6.685   4.610   7.495  0.5028  0.6551 -0.1022
   73CHL1  H11A 7843   6.619   4.525   7.520  1.7466 -0.0917  0.7368
   73CHL1  H11B 7844   6.620   4.687   7.450  0.6893  1.0036  0.2216
   73CHL1    C9 7845   6.798   4.579   7.393 -0.3130 -0.2211  0.3376
   73CHL1    H9 7846   6.841   4.673   7.352  1.0883 -1.3886 -0.9376
   73CHL1   C10 7847   6.745   4.522   7.257 -0.5300  0.3775  0.0343
   73CHL1   C19 7848   6.639   4.414   7.287  0.9344 -0.3037  0.4283
   73CHL1  H19A 7849   6.665   4.336   7.361 -0.7920 -1.4511 -0.1401
   73CHL1  H19B 7850   6.544   4.464   7.315  1.0281 -0.3398  0.8151
   73CHL1  H19C 7851   6.619   4.358   7.194 -2.0162  1.5337 -0.1269
   73CHL1    C1 7852   6.671   4.635   7.180 -0.8829  0.2290  0.4879
   73CHL1   H1A 7853   6.578   4.673   7.227 -2.1615  0.1154 -1.8682
   73CHL1   H1B 7854   6.734   4.724   7.162  0.1377  0.1525  3.5316
   73CHL1    C2 7855   6.627   4.599   7.034 -0.8924 -0.5928  0.4140
   73CHL1   H2A 7856   6.595   4.694   6.987 -0.7596 -1.3589 -1.2394
   73CHL1   H2B 7857   6.552   4.517   7.032 -0.1564 -1.2922  1.1974
   73CHL1   C20 7858   6.889   4.626   7.944  0.4969 -0.2127  0.1956
   73CHL1   H20 7859   6.827   4.536   7.958  2.5038 -2.1256 -2.7356
   73CHL1   C21 7860   6.798   4.751   7.963  0.5284 -0.3617  0.0818
   73CHL1  H21A 7861   6.775   4.757   8.071  1.9717 -3.1041  0.5903
   73CHL1  H21B 7862   6.704   4.738   7.905 -0.3622  0.1439  1.3953
   73CHL1  H21C 7863   6.856   4.840   7.930 -0.3022 -0.5147 -1.8563
   73CHL1   C22 7864   6.991   4.640   8.055  0.5092  0.3845 -0.0283
   73CHL1  H22A 7865   7.080   4.575   8.042 -1.6073 -2.6427 -0.1136
   73CHL1  H22B 7866   7.025   4.745   8.054  0.5789  0.4039  2.1387
   73CHL1   C23 7867   6.946   4.607   8.192  0.4650 -0.4434  0.2560
   73CHL1  H23A 7868   6.858   4.669   8.220 -0.5737 -1.9703  0.4892
   73CHL1  H23B 7869   6.914   4.500   8.184 -0.5577 -0.0240 -1.4239
   73CHL1   C24 7870   7.064   4.617   8.289 -0.3897  0.5153  0.5065
   73CHL1  H24A 7871   7.112   4.517   8.287  1.1956  1.2873 -0.6686
   73CHL1  H24B 7872   7.117   4.710   8.261 -0.0392  0.0090 -0.5247
   73CHL1   C25 7873   7.010   4.625   8.431 -0.2992 -0.0886 -0.5101
   73CHL1   H25 7874   7.109   4.609   8.478 -0.9706  0.4159  1.1013
   73CHL1   C26 7875   6.960   4.764   8.469 -0.0247 -0.9214 -0.4724
   73CHL1  H26A 7876   6.910   4.779   8.567  1.7902  1.2565  0.1734
   73CHL1  H26B 7877   7.039   4.841   8.456 -2.7683  1.8382 -1.1128
   73CHL1  H26C 7878   6.884   4.794   8.395  1.1712  0.8334 -1.0305
   73CHL1   C27 7879   6.904   4.527   8.475 -0.4308  0.1756 -0.0008
   73CHL1  H27A 7880   6.813   4.550   8.416 -1.8314 -0.8742  1.7260
   73CHL1  H27B 7881   6.945   4.426   8.455 -1.8642 -0.9506  2.6030
   73CHL1  H27C 7882   6.883   4.536   8.583 -0.5678 -0.6909  0.0462
   74CHL1    C3 7883   5.894   3.165   6.957 -0.2929 -0.9478  0.6788
   74CHL1    H3 7884   5.936   3.268   6.954 -0.2639 -0.9616  0.5993
   74CHL1    O3 7885   5.896   3.118   6.818  0.3657 -0.0268 -0.0461
   74CHL1   H3' 7886   5.847   3.036   6.822 -1.6554  1.0815 -1.2094
   74CHL1    C4 7887   5.986   3.082   7.042  0.1254  0.8739 -0.0119
   74CHL1   H4A 7888   5.958   2.974   7.043  0.8026  0.6881 -0.8692
   74CHL1   H4B 7889   6.090   3.089   7.005 -0.2746  0.1979 -1.2863
   74CHL1    C5 7890   5.977   3.133   7.188  0.2326 -0.6526 -0.1961
   74CHL1    C6 7891   6.083   3.171   7.261  0.8424  0.0663 -0.4956
   74CHL1    H6 7892   6.183   3.167   7.216  0.1632 -0.7745 -1.9767
   74CHL1    C7 7893   6.079   3.220   7.401  0.1945 -0.0049 -0.0069
   74CHL1   H7A 7894   6.154   3.165   7.461 -0.2942  0.4805  1.0736
   74CHL1   H7B 7895   6.109   3.327   7.409  4.2316 -1.0326 -0.6539
   74CHL1    C8 7896   5.944   3.201   7.471  0.0401 -0.2722 -0.2577
   74CHL1    H8 7897   5.934   3.094   7.496 -1.4622 -0.3301 -1.0743
   74CHL1   C14 7898   5.936   3.283   7.595 -0.1567  0.4144 -0.9474
   74CHL1   H14 7899   5.956   3.390   7.573 -0.3928  0.9333  1.2097
   74CHL1   C15 7900   6.044   3.260   7.699 -0.5625  0.3835 -0.7557
   74CHL1  H15A 7901   6.060   3.151   7.715 -0.2000  0.5159 -0.1759
   74CHL1  H15B 7902   6.145   3.302   7.678  0.8804 -0.8693  3.1031
   74CHL1   C16 7903   5.996   3.340   7.823 -0.3369  0.9894  0.7548
   74CHL1  H16A 7904   6.016   3.280   7.915  3.3789  2.2313  0.8773
   74CHL1  H16B 7905   6.048   3.438   7.836  0.8173  1.0197 -3.4588
   74CHL1   C17 7906   5.840   3.353   7.800 -0.0218 -0.9169 -0.3589
   74CHL1   H17 7907   5.821   3.454   7.758  0.2362 -0.7769 -0.1431
   74CHL1   C13 7908   5.808   3.270   7.676  0.0619 -0.1125  0.2037
   74CHL1   C18 7909   5.785   3.124   7.718 -0.5289  0.3286  0.0206
   74CHL1  H18A 7910   5.685   3.119   7.766 -1.0049 -1.2876 -1.1060
   74CHL1  H18B 7911   5.775   3.059   7.629 -0.3813  1.2297 -0.6603
   74CHL1  H18C 7912   5.865   3.077   7.778 -0.6945 -1.4439 -1.1326
   74CHL1   C12 7913   5.701   3.322   7.578  0.9199 -0.2433  0.3261
   74CHL1  H12A 7914   5.600   3.321   7.625 -0.2683  1.6477 -2.1056
   74CHL1  H12B 7915   5.713   3.429   7.552 -0.3468 -0.4109 -1.0137
   74CHL1   C11 7916   5.689   3.238   7.450 -0.3725  0.0659 -0.2793
   74CHL1  H11A 7917   5.652   3.140   7.487  3.0100 -1.5041 -0.8001
   74CHL1  H11B 7918   5.620   3.288   7.379 -1.0342  0.3700  0.5729
   74CHL1    C9 7919   5.831   3.232   7.371  0.2848  0.0963 -0.2315
   74CHL1    H9 7920   5.849   3.334   7.329 -1.2035  0.6465  0.4229
   74CHL1   C10 7921   5.835   3.142   7.246  0.0864 -0.4893  0.4316
   74CHL1   C19 7922   5.775   3.005   7.277  0.6808 -0.6117  0.3878
   74CHL1  H19A 7923   5.738   2.960   7.182 -1.9067  2.9292 -0.4121
   74CHL1  H19B 7924   5.841   2.943   7.341 -0.9210 -1.9016  0.8016
   74CHL1  H19C 7925   5.677   3.017   7.327  0.5033  0.5285 -0.2114
   74CHL1    C1 7926   5.742   3.213   7.138 -0.6910 -0.5141 -0.2266
   74CHL1   H1A 7927   5.635   3.221   7.163 -0.4694 -0.8780  0.8497
   74CHL1   H1B 7928   5.788   3.314   7.133  1.1159 -1.1948  1.6410
   74CHL1    C2 7929   5.745   3.160   7.002  0.0074  0.5011 -0.3884
   74CHL1   H2A 7930   5.681   3.211   6.926 -1.5903  0.4878  0.9283
   74CHL1   H2B 7931   5.697   3.060   7.004 -0.1921  0.6077  0.1328
   74CHL1   C20 7932   5.751   3.337   7.928 -1.3129  0.8967 -0.1553
   74CHL1   H20 7933   5.742   3.232   7.964  2.6232  0.4486 -0.2873
   74CHL1   C21 7934   5.611   3.398   7.889  0.2141  0.7182  0.0982
   74CHL1  H21A 7935   5.549   3.421   7.978 -1.5894 -0.8436 -0.7211
   74CHL1  H21B 7936   5.553   3.338   7.816  1.9868  0.7579 -1.3900
   74CHL1  H21C 7937   5.643   3.487   7.830 -1.3863 -0.2001 -2.2201
   74CHL1   C22 7938   5.812   3.415   8.050  0.7638  0.0104  0.1779
   74CHL1  H22A 7939   5.923   3.401   8.053  0.5487 -2.5718 -1.6672
   74CHL1  H22B 7940   5.795   3.522   8.024 -3.2123 -0.3451  1.0881
   74CHL1   C23 7941   5.765   3.379   8.189  0.2822  0.6294  0.3725
   74CHL1  H23A 7942   5.665   3.418   8.219  0.2430 -0.3397  1.5388
   74CHL1  H23B 7943   5.778   3.269   8.194  1.3731  0.6959 -0.8294
   74CHL1   C24 7944   5.876   3.423   8.292  0.0201  0.3076 -0.2184
   74CHL1  H24A 7945   5.971   3.384   8.248 -0.0886 -1.3856  0.9656
   74CHL1  H24B 7946   5.880   3.534   8.294 -0.7556  0.3336 -0.0355
   74CHL1   C25 7947   5.871   3.356   8.434 -0.0723 -1.3901  0.4587
   74CHL1   H25 7948   5.782   3.402   8.483 -0.8932 -3.3049  0.8126
   74CHL1   C26 7949   5.851   3.207   8.429  0.3326  0.1552 -0.1253
   74CHL1  H26A 7950   5.923   3.162   8.358  1.2918  2.0130 -0.3672
   74CHL1  H26B 7951   5.878   3.173   8.532 -0.5421 -3.4758 -1.0264
   74CHL1  H26C 7952   5.746   3.175   8.417  0.3788 -0.5947  1.3276
   74CHL1   C27 7953   5.980   3.398   8.536  0.3330  0.9325  0.0182
   74CHL1  H27A 7954   6.082   3.360   8.511  0.0859  0.8821 -0.8998
   74CHL1  H27B 7955   5.988   3.508   8.533  1.4543  0.8839  0.6977
   74CHL1  H27C 7956   5.963   3.382   8.645 -1.2374  3.8134  0.2283
   75CHL1    C3 7957   2.259   5.345   6.696  0.2262 -0.0718 -0.8056
   75CHL1    H3 7958   2.151   5.322   6.713  1.3781 -2.2931  4.3421
   75CHL1    O3 7959   2.270   5.338   6.560  0.2425  0.1894  0.4041
   75CHL1   H3' 7960   2.325   5.415   6.545 -0.6727  0.8255  0.2459
   75CHL1    C4 7961   2.286   5.485   6.749  0.0785 -0.2610  0.2333
   75CHL1   H4A 7962   2.391   5.509   6.720 -0.6644  0.4343 -1.9585
   75CHL1   H4B 7963   2.225   5.558   6.692  1.0321  0.7741  0.5065
   75CHL1    C5 7964   2.262   5.493   6.897 -0.2618  0.3878 -1.0372
   75CHL1    C6 7965   2.172   5.579   6.946 -0.2134  0.3102 -0.6184
   75CHL1    H6 7966   2.118   5.646   6.877 -2.4171 -1.8518 -1.0502
   75CHL1    C7 7967   2.136   5.588   7.091 -0.5152 -0.1599  0.4955
   75CHL1   H7A 7968   2.118   5.693   7.123  1.3591 -0.3444  2.1892
   75CHL1   H7B 7969   2.042   5.530   7.103  0.6521 -1.5586  3.4102
   75CHL1    C8 7970   2.247   5.516   7.183 -0.2151  0.1843 -0.5311
   75CHL1    H8 7971   2.328   5.593   7.175 -0.9328  1.0240  0.2399
   75CHL1   C14 7972   2.205   5.518   7.328  0.3935  0.5169  1.0063
   75CHL1   H14 7973   2.115   5.452   7.340  0.5581  0.2852  0.9781
   75CHL1   C15 7974   2.162   5.656   7.378 -0.7818  1.0699  0.2106
   75CHL1  H15A 7975   2.244   5.727   7.357  1.5880 -1.7603 -0.3592
   75CHL1  H15B 7976   2.065   5.685   7.332 -0.5630  0.3291 -0.7353
   75CHL1   C16 7977   2.161   5.630   7.529  0.0742 -0.0026 -0.2817
   75CHL1  H16A 7978   2.190   5.732   7.563 -2.8535  1.5277 -2.1417
   75CHL1  H16B 7979   2.057   5.615   7.562  1.2440 -0.9664  3.1536
   75CHL1   C17 7980   2.260   5.510   7.557 -0.1746 -0.4257 -0.6592
   75CHL1   H17 7981   2.190   5.430   7.588  0.1355 -0.3364  0.2956
   75CHL1   C13 7982   2.319   5.475   7.418 -0.3010  0.3783 -0.1921
   75CHL1   C18 7983   2.449   5.562   7.407  0.0373  0.5778 -0.1615
   75CHL1  H18A 7984   2.430   5.666   7.441  2.0526  1.3063 -1.2286
   75CHL1  H18B 7985   2.508   5.524   7.493 -0.0102  1.1986  0.1520
   75CHL1  H18C 7986   2.499   5.552   7.309  0.6654  0.6837  0.1431
   75CHL1   C12 7987   2.339   5.328   7.388 -0.1356 -0.7357  0.4078
   75CHL1  H12A 7988   2.420   5.304   7.460  1.9447  2.3769 -0.7860
   75CHL1  H12B 7989   2.242   5.278   7.409  0.1505 -2.0304 -1.2824
   75CHL1   C11 7990   2.385   5.312   7.246  0.3333  0.0356 -0.0040
   75CHL1  H11A 7991   2.489   5.337   7.218  0.1008 -0.2208 -1.1532
   75CHL1  H11B 7992   2.386   5.202   7.225  1.3751 -0.2458  1.4701
   75CHL1    C9 7993   2.289   5.385   7.137  0.0296 -0.0108 -0.0821
   75CHL1    H9 7994   2.201   5.318   7.148 -0.2736  0.8831  3.9185
   75CHL1   C10 7995   2.340   5.382   6.983  0.4082  0.2593 -0.7012
   75CHL1   C19 7996   2.490   5.430   6.974 -0.8553  0.2447  0.1299
   75CHL1  H19A 7997   2.508   5.447   6.866 -2.4109 -0.3792 -0.2452
   75CHL1  H19B 7998   2.495   5.531   7.020  1.7268  0.2231 -0.0326
   75CHL1  H19C 7999   2.565   5.362   7.020 -1.3819  0.2961  1.0851
   75CHL1    C1 8000   2.321   5.242   6.918 -0.2916  0.7116  0.5946
   75CHL1   H1A 8001   2.397   5.174   6.961 -0.6461 -1.3376 -1.9027
   75CHL1   H1B 8002   2.218   5.209   6.942 -0.1325 -0.4260 -0.2640
   75CHL1    C2 8003   2.347   5.244   6.763  0.2261 -0.6852  0.6413
   75CHL1   H2A 8004   2.321   5.144   6.723 -0.4285 -0.4367  0.4463
   75CHL1   H2B 8005   2.455   5.267   6.747  0.3181 -0.6492  1.2881
   75CHL1   C20 8006   2.353   5.535   7.682 -0.1025 -0.5985  0.1178
   75CHL1   H20 8007   2.426   5.613   7.651 -3.5463  2.2886 -1.1764
   75CHL1   C21 8008   2.424   5.405   7.722  0.7230 -0.3701 -0.2491
   75CHL1  H21A 8009   2.359   5.324   7.760  1.1071 -1.1237 -1.1628
   75CHL1  H21B 8010   2.502   5.424   7.799 -1.0165 -3.6265  2.4317
   75CHL1  H21C 8011   2.481   5.359   7.638  0.2026 -0.5872 -0.4819
   75CHL1   C22 8012   2.277   5.595   7.800 -0.0701  0.1882 -0.1790
   75CHL1  H22A 8013   2.261   5.702   7.773 -1.4659 -0.0199 -0.1964
   75CHL1  H22B 8014   2.182   5.544   7.825 -0.6679  1.0451 -0.6808
   75CHL1   C23 8015   2.360   5.606   7.935  0.8668  0.5194  0.4934
   75CHL1  H23A 8016   2.389   5.501   7.957  0.8466 -0.2525 -2.8515
   75CHL1  H23B 8017   2.458   5.653   7.912  1.1300 -0.0787  0.3882
   75CHL1   C24 8018   2.315   5.697   8.048 -0.1838 -0.6505  0.1914
   75CHL1  H24A 8019   2.286   5.800   8.017  0.5331 -0.7538 -0.8211
   75CHL1  H24B 8020   2.223   5.653   8.092  0.5419 -2.5930 -0.2227
   75CHL1   C25 8021   2.423   5.718   8.156  0.1450 -0.4986  0.2121
   75CHL1   H25 8022   2.517   5.762   8.116  1.0139 -0.0986  2.5678
   75CHL1   C26 8023   2.365   5.816   8.257  0.7717 -0.6478 -0.2031
   75CHL1  H26A 8024   2.282   5.765   8.310 -1.9505  1.5685 -2.1487
   75CHL1  H26B 8025   2.439   5.844   8.335 -0.7570  1.6971  0.4551
   75CHL1  H26C 8026   2.330   5.909   8.207  0.6205 -1.6372 -2.0054
   75CHL1   C27 8027   2.464   5.587   8.226  0.0608 -0.4842  0.4395
   75CHL1  H27A 8028   2.375   5.528   8.257 -0.4688  0.0657 -0.0030
   75CHL1  H27B 8029   2.525   5.516   8.167  3.1130  2.8206 -0.6055
   75CHL1  H27C 8030   2.528   5.613   8.312  0.5449  0.5139 -0.2065
   76CHL1    C3 8031   6.169   0.290   7.303 -0.1796 -0.0110  0.3923
   76CHL1    H3 8032   6.218   0.191   7.322 -2.5866 -1.2680  0.1626
   76CHL1    O3 8033   6.176   0.336   7.168 -0.3594 -0.1587  0.1804
   76CHL1   H3' 8034   6.268   0.359   7.151 -0.7916  1.4290 -0.1503
   76CHL1    C4 8035   6.023   0.261   7.347 -0.2236 -0.1344  0.5890
   76CHL1   H4A 8036   5.971   0.359   7.349  0.9488  0.4748  2.5774
   76CHL1   H4B 8037   5.968   0.193   7.278  1.7860 -1.1165 -0.0633
   76CHL1    C5 8038   6.027   0.216   7.488 -0.4810 -0.3019  0.1167
   76CHL1    C6 8039   5.969   0.095   7.504 -0.7133 -0.5529 -0.1546
   76CHL1    H6 8040   5.907   0.053   7.423 -1.0556  0.8893 -0.6587
   76CHL1    C7 8041   5.952   0.036   7.642 -0.2705  0.1817  0.1836
   76CHL1   H7A 8042   5.849  -0.007   7.649 -0.4577  0.0109 -2.8018
   76CHL1   H7B 8043   6.017  -0.053   7.656 -0.6569  0.0243  1.0030
   76CHL1    C8 8044   5.994   0.132   7.752  0.3042 -0.1273 -0.0328
   76CHL1    H8 8045   5.908   0.203   7.760  0.0297 -0.0233 -3.1330
   76CHL1   C14 8046   6.013   0.070   7.890  0.0061 -0.2742 -0.4481
   76CHL1   H14 8047   6.098  -0.001   7.883 -0.1955 -0.4760 -0.9049
   76CHL1   C15 8048   5.896  -0.010   7.941 -0.4710  0.4386  0.1828
   76CHL1  H15A 8049   5.805   0.054   7.934  0.6919  1.9344 -1.5708
   76CHL1  H15B 8050   5.889  -0.106   7.886  1.2700 -0.1567  0.9792
   76CHL1   C16 8051   5.923  -0.036   8.094  0.0792 -0.1453 -0.1364
   76CHL1  H16A 8052   5.836  -0.007   8.156  1.0784 -2.2213  2.2976
   76CHL1  H16B 8053   5.941  -0.143   8.117 -3.1915 -0.6887  0.0720
   76CHL1   C17 8054   6.044   0.057   8.124  0.3981 -0.0960 -0.0442
   76CHL1   H17 8055   6.131  -0.010   8.110  0.8753  0.3511  0.7172
   76CHL1   C13 8056   6.057   0.161   8.011  0.1594  0.6770 -0.8911
   76CHL1   C18 8057   5.953   0.273   8.034  0.2557 -0.0703 -0.1717
   76CHL1  H18A 8058   5.922   0.322   7.939 -1.0968 -1.6117 -0.5435
   76CHL1  H18B 8059   5.856   0.246   8.081  0.7978  0.6306  1.3976
   76CHL1  H18C 8060   5.999   0.353   8.095 -2.5251  0.5971  1.1231
   76CHL1   C12 8061   6.194   0.216   7.974  0.2980  0.7905  0.0467
   76CHL1  H12A 8062   6.227   0.287   8.053 -0.7853 -0.8011  1.9899
   76CHL1  H12B 8063   6.269   0.135   7.968 -0.0154  0.6119 -1.4766
   76CHL1   C11 8064   6.184   0.289   7.836 -0.4217 -0.7847 -0.4139
   76CHL1  H11A 8065   6.132   0.386   7.847 -1.1382 -1.1235 -0.8253
   76CHL1  H11B 8066   6.288   0.328   7.826 -1.2354  1.2699 -1.0759
   76CHL1    C9 8067   6.124   0.208   7.720  0.5335 -0.0442 -0.4773
   76CHL1    H9 8068   6.201   0.130   7.703  0.1375 -0.7725  1.0111
   76CHL1   C10 8069   6.100   0.300   7.594 -0.1441 -0.0754  0.2495
   76CHL1   C19 8070   6.020   0.428   7.621  0.6050  0.4654  0.1586
   76CHL1  H19A 8071   5.999   0.477   7.524 -1.0153  2.0344  1.2930
   76CHL1  H19B 8072   5.923   0.406   7.670 -0.3335 -0.7672 -2.1818
   76CHL1  H19C 8073   6.094   0.494   7.671  1.4174  1.2263 -2.0045
   76CHL1    C1 8074   6.236   0.335   7.540 -0.5724 -0.2531 -0.1888
   76CHL1   H1A 8075   6.293   0.406   7.605  0.6706  1.1687 -2.7807
   76CHL1   H1B 8076   6.294   0.240   7.538 -2.0707 -1.1762 -0.8279
   76CHL1    C2 8077   6.231   0.392   7.393 -1.1582  0.0456 -0.3079
   76CHL1   H2A 8078   6.336   0.408   7.363 -0.9932 -1.3685 -0.5416
   76CHL1   H2B 8079   6.173   0.486   7.388 -3.1646 -1.1335  0.0786
   76CHL1   C20 8080   6.034   0.104   8.272  0.1259  1.0017 -0.0823
   76CHL1   H20 8081   5.944   0.170   8.268 -1.3790 -1.0717 -1.9481
   76CHL1   C21 8082   6.164   0.187   8.314  0.4274  0.0925  0.0302
   76CHL1  H21A 8083   6.259   0.138   8.282 -0.0020  0.7329 -2.3217
   76CHL1  H21B 8084   6.159   0.205   8.423 -1.9149  0.2840 -0.0973
   76CHL1  H21C 8085   6.162   0.291   8.274 -1.3514  0.7589  1.8010
   76CHL1   C22 8086   6.015  -0.015   8.374 -0.0629  0.2260 -0.3660
   76CHL1  H22A 8087   6.015   0.028   8.477  2.6459  1.4630 -0.8534
   76CHL1  H22B 8088   5.913  -0.051   8.350 -0.3521  1.2516 -0.6622
   76CHL1   C23 8089   6.117  -0.127   8.370  0.1932  0.2243  0.2280
   76CHL1  H23A 8090   6.135  -0.160   8.265 -0.1011 -3.0099  1.1696
   76CHL1  H23B 8091   6.216  -0.096   8.410 -0.0832 -0.0215  1.0956
   76CHL1   C24 8092   6.076  -0.258   8.441 -0.8298 -0.4988  0.3581
   76CHL1  H24A 8093   6.083  -0.243   8.551  0.4316 -0.2276  0.2544
   76CHL1  H24B 8094   5.977  -0.287   8.399  0.1965  1.8109 -3.9091
   76CHL1   C25 8095   6.167  -0.377   8.417 -0.7953  0.3876 -0.1490
   76CHL1   H25 8096   6.266  -0.346   8.457 -1.8782  3.6287  0.1716
   76CHL1   C26 8097   6.118  -0.490   8.508 -0.0127 -0.0986  1.0046
   76CHL1  H26A 8098   6.010  -0.505   8.485  0.1815 -1.0713  0.6955
   76CHL1  H26B 8099   6.178  -0.583   8.496 -1.5759 -0.9165 -0.8272
   76CHL1  H26C 8100   6.133  -0.455   8.613  2.3054  0.1840  0.6021
   76CHL1   C27 8101   6.172  -0.425   8.276  0.5770 -0.2653  1.2114
   76CHL1  H27A 8102   6.071  -0.461   8.249  0.3257  1.1592  0.1906
   76CHL1  H27B 8103   6.198  -0.345   8.203 -1.7852  1.6854  2.4166
   76CHL1  H27C 8104   6.249  -0.503   8.260  0.0833  0.0387 -3.3792
   77CHL1    C3 8105   6.618   5.146   6.985 -0.0847  0.2426  0.1095
   77CHL1    H3 8106   6.559   5.230   7.028 -0.1443  0.0005  0.5027
   77CHL1    O3 8107   6.593   5.126   6.848 -0.0402  0.3271  0.0520
   77CHL1   H3' 8108   6.533   5.052   6.841 -0.3255  0.4122  1.4960
   77CHL1    C4 8109   6.767   5.188   6.991 -0.9816 -0.7660 -0.1215
   77CHL1   H4A 8110   6.821   5.109   6.936 -0.8637  0.9923 -2.6177
   77CHL1   H4B 8111   6.795   5.285   6.945  0.0469  0.1017  2.2139
   77CHL1    C5 8112   6.831   5.204   7.127 -0.1681  0.3396  0.1351
   77CHL1    C6 8113   6.898   5.318   7.160  0.0473  0.8300  0.0850
   77CHL1    H6 8114   6.905   5.398   7.085 -0.6712  1.4476  0.6794
   77CHL1    C7 8115   6.963   5.334   7.288  0.2713  0.4899  0.5936
   77CHL1   H7A 8116   7.067   5.374   7.283  0.2271  0.4046 -1.2092
   77CHL1   H7B 8117   6.903   5.413   7.338 -0.6900  0.4527 -0.4741
   77CHL1    C8 8118   6.957   5.206   7.384 -0.4931  0.2346 -0.8336
   77CHL1    H8 8119   7.043   5.141   7.358  0.8483  2.1864 -1.3632
   77CHL1   C14 8120   6.978   5.246   7.529 -0.1046 -0.9228 -1.1934
   77CHL1   H14 8121   6.889   5.306   7.560  1.4624 -0.4461  2.6961
   77CHL1   C15 8122   7.094   5.341   7.558 -0.4108  0.0162 -0.6421
   77CHL1  H15A 8123   7.178   5.299   7.498 -1.1738 -1.2847 -0.8211
   77CHL1  H15B 8124   7.078   5.444   7.519  0.8386  0.6870  0.5652
   77CHL1   C16 8125   7.115   5.335   7.708 -0.6614 -0.4121 -0.5279
   77CHL1  H16A 8126   7.214   5.290   7.729 -2.5759 -3.4214  2.5383
   77CHL1  H16B 8127   7.102   5.435   7.756 -1.5673 -1.5122  1.5640
   77CHL1   C17 8128   7.009   5.232   7.760 -0.5185 -0.5337 -0.8902
   77CHL1   H17 8129   6.913   5.287   7.773 -0.7306 -1.1547  0.2262
   77CHL1   C13 8130   6.971   5.139   7.638  0.0282  0.3159 -0.2480
   77CHL1   C18 8131   7.083   5.036   7.627 -0.3275  0.0777 -0.0704
   77CHL1  H18A 8132   7.074   4.970   7.538 -1.1320  2.9335 -2.1763
   77CHL1  H18B 8133   7.180   5.084   7.602 -1.1624  2.4611  1.2249
   77CHL1  H18C 8134   7.097   4.962   7.708 -0.6852  0.1717  0.0791
   77CHL1   C12 8135   6.825   5.087   7.630  0.0418 -0.1158 -0.7012
   77CHL1  H12A 8136   6.799   5.012   7.708 -0.5831 -0.3680 -1.1417
   77CHL1  H12B 8137   6.752   5.168   7.652 -2.7720 -2.2033 -1.8678
   77CHL1   C11 8138   6.802   5.033   7.489  0.5820 -0.0658 -0.0538
   77CHL1  H11A 8139   6.865   4.941   7.486  0.3389 -0.3530  2.6248
   77CHL1  H11B 8140   6.695   5.002   7.488 -0.3632  3.0016  1.4323
   77CHL1    C9 8141   6.825   5.141   7.374  0.5168 -0.5340 -1.0589
   77CHL1    H9 8142   6.751   5.223   7.390  1.1578 -0.1929  0.1764
   77CHL1   C10 8143   6.794   5.094   7.226  0.1283  0.4565  0.8109
   77CHL1   C19 8144   6.881   4.967   7.200 -0.3304  0.1364  0.7525
   77CHL1  H19A 8145   6.875   4.939   7.092  0.2639  0.8247  0.5378
   77CHL1  H19B 8146   6.985   4.994   7.228 -0.5573  0.8556  0.9098
   77CHL1  H19C 8147   6.856   4.872   7.253 -1.2717  0.1000  0.2583
   77CHL1    C1 8148   6.638   5.058   7.217 -0.7361  0.3788  0.0438
   77CHL1   H1A 8149   6.604   4.979   7.287 -0.7678  0.3486 -0.0057
   77CHL1   H1B 8150   6.588   5.153   7.247 -2.6370  0.1393 -2.2677
   77CHL1    C2 8151   6.586   5.025   7.072 -0.1106 -0.0607  0.1431
   77CHL1   H2A 8152   6.476   5.012   7.082 -0.0973 -0.8215 -0.6936
   77CHL1   H2B 8153   6.636   4.935   7.033 -1.2650 -0.3244 -0.7448
   77CHL1   C20 8154   7.036   5.169   7.898 -0.8185 -0.6663  0.9671
   77CHL1   H20 8155   7.086   5.071   7.886  0.8304  0.2532  0.1659
   77CHL1   C21 8156   6.899   5.128   7.962 -0.5071  0.0885  0.3479
   77CHL1  H21A 8157   6.837   5.050   7.914  1.1545 -1.9331  1.4135
   77CHL1  H21B 8158   6.835   5.215   7.990  1.7903  1.6965  0.7664
   77CHL1  H21C 8159   6.916   5.080   8.061  1.8949 -0.9987 -0.5732
   77CHL1   C22 8160   7.129   5.258   7.988 -0.6282  0.2808 -0.1610
   77CHL1  H22A 8161   7.226   5.273   7.934  0.1420 -0.6248  0.9425
   77CHL1  H22B 8162   7.071   5.349   8.013  0.3832  0.8227  0.2609
   77CHL1   C23 8163   7.165   5.182   8.118  0.0602 -0.7458  0.3202
   77CHL1  H23A 8164   7.078   5.187   8.186 -0.3022  1.0953 -0.2596
   77CHL1  H23B 8165   7.196   5.075   8.109  1.3051 -0.2185 -1.9204
   77CHL1   C24 8166   7.275   5.262   8.202 -0.2211  0.2988 -0.0714
   77CHL1  H24A 8167   7.370   5.243   8.148 -1.2418 -4.6719 -0.2893
   77CHL1  H24B 8168   7.249   5.370   8.198  1.6152  0.7082 -1.4358
   77CHL1   C25 8169   7.297   5.220   8.354  0.0835 -0.0137 -0.0033
   77CHL1   H25 8170   7.267   5.113   8.360  0.6391 -0.0485  2.6270
   77CHL1   C26 8171   7.445   5.235   8.394  0.3658  0.3366 -0.2968
   77CHL1  H26A 8172   7.461   5.217   8.502 -0.8692  0.8910 -0.0138
   77CHL1  H26B 8173   7.507   5.184   8.317  0.4026  0.1806 -0.1625
   77CHL1  H26C 8174   7.474   5.341   8.375  0.0584  0.7466  1.4316
   77CHL1   C27 8175   7.213   5.299   8.461 -0.0994  0.2001 -0.9348
   77CHL1  H27A 8176   7.106   5.290   8.432  0.1842 -1.0206 -1.6424
   77CHL1  H27B 8177   7.216   5.229   8.548 -2.2604 -0.8315 -1.6308
   77CHL1  H27C 8178   7.247   5.403   8.473 -0.4002  0.1630  0.2906
   78CHL1    C3 8179   2.050   0.295   6.778 -0.2126  0.1060 -0.5300
   78CHL1    H3 8180   1.949   0.257   6.804  0.4593 -1.2502  0.1119
   78CHL1    O3 8181   2.064   0.277   6.637  0.2317  0.8075  0.2759
   78CHL1   H3' 8182   2.064   0.366   6.600  0.0152  0.5731 -0.2779
   78CHL1    C4 8183   2.071   0.441   6.813  0.2415  0.2141  0.1098
   78CHL1   H4A 8184   2.173   0.464   6.776 -0.5768  2.8719 -0.5433
   78CHL1   H4B 8185   1.997   0.505   6.762 -0.3319 -0.3392  0.2490
   78CHL1    C5 8186   2.059   0.463   6.968 -0.1495 -0.0033 -1.1627
   78CHL1    C6 8187   1.963   0.543   7.018 -0.0249 -0.4441  0.1582
   78CHL1    H6 8188   1.895   0.588   6.944  0.6953 -2.0867 -1.5506
   78CHL1    C7 8189   1.938   0.567   7.166 -0.1001 -0.0873  0.5174
   78CHL1   H7A 8190   1.932   0.677   7.178 -1.7480 -0.0748 -0.2016
   78CHL1   H7B 8191   1.835   0.528   7.183  0.1880 -1.3779 -0.5164
   78CHL1    C8 8192   2.055   0.518   7.256  0.1473 -0.5831 -0.9705
   78CHL1    H8 8193   2.129   0.600   7.247 -0.1229  0.0461  2.0542
   78CHL1   C14 8194   2.027   0.496   7.403  0.6475  0.4185  0.1014
   78CHL1   H14 8195   1.972   0.400   7.411 -0.3115  0.9153 -0.3948
   78CHL1   C15 8196   1.940   0.603   7.461 -0.0815 -0.0422 -0.3314
   78CHL1  H15A 8197   1.978   0.701   7.425  0.1629 -0.6073 -1.6541
   78CHL1  H15B 8198   1.837   0.604   7.420  0.7371 -0.9883 -2.5042
   78CHL1   C16 8199   1.948   0.572   7.616  0.5972  0.9041 -1.0012
   78CHL1  H16A 8200   1.977   0.670   7.659 -2.8573  0.9108  1.4818
   78CHL1  H16B 8201   1.850   0.531   7.649  1.1979 -0.7525 -1.2423
   78CHL1   C17 8202   2.075   0.473   7.632  0.0325 -0.1469  0.3582
   78CHL1   H17 8203   2.031   0.371   7.640 -0.7596 -0.1444 -3.0207
   78CHL1   C13 8204   2.143   0.480   7.494 -0.0390  0.5527  0.3887
   78CHL1   C18 8205   2.235   0.605   7.508 -0.4712 -0.4889  0.1781
   78CHL1  H18A 8206   2.174   0.697   7.522 -0.1070 -0.0916 -0.7853
   78CHL1  H18B 8207   2.302   0.600   7.597 -0.9143 -2.4956  0.4151
   78CHL1  H18C 8208   2.291   0.611   7.413  0.9871 -0.9277  0.9890
   78CHL1   C12 8209   2.210   0.347   7.451  0.3278 -0.2123 -0.6419
   78CHL1  H12A 8210   2.304   0.335   7.510 -1.0111 -0.4783  1.4921
   78CHL1  H12B 8211   2.140   0.260   7.456  0.5821 -0.5756 -2.9331
   78CHL1   C11 8212   2.239   0.351   7.304 -0.1748  0.4407  0.7595
   78CHL1  H11A 8213   2.309   0.436   7.289 -1.9037  1.3625 -2.5780
   78CHL1  H11B 8214   2.282   0.251   7.281  1.0631  0.5957  2.2952
   78CHL1    C9 8215   2.115   0.388   7.208 -0.1706  0.3426  0.2094
   78CHL1    H9 8216   2.041   0.305   7.220 -0.2166  0.2923 -0.4026
   78CHL1   C10 8217   2.153   0.381   7.061  0.8611 -0.3658 -0.5580
   78CHL1   C19 8218   2.295   0.449   7.041  0.4034  0.3234 -0.3518
   78CHL1  H19A 8219   2.292   0.551   7.086  1.5628  0.5019 -0.6552
   78CHL1  H19B 8220   2.370   0.388   7.096 -1.1060 -0.6573  0.6745
   78CHL1  H19C 8221   2.318   0.464   6.934  0.5356 -1.4840 -0.5963
   78CHL1    C1 8222   2.148   0.235   7.010  0.7516 -0.4545  0.4481
   78CHL1   H1A 8223   2.235   0.183   7.056  0.3016 -2.9746 -1.4653
   78CHL1   H1B 8224   2.063   0.168   7.037  2.4400 -1.9446  2.1965
   78CHL1    C2 8225   2.159   0.215   6.854 -0.0506  0.8599  0.9299
   78CHL1   H2A 8226   2.154   0.107   6.828  2.7567  0.1641  2.9988
   78CHL1   H2B 8227   2.260   0.256   6.830  0.7984 -0.2080  2.5287
   78CHL1   C20 8228   2.135   0.493   7.769 -0.1229 -0.1433 -0.5697
   78CHL1   H20 8229   2.167   0.599   7.780 -0.7093  0.1157 -1.3528
   78CHL1   C21 8230   2.254   0.404   7.781 -0.4237  0.3133  0.1084
   78CHL1  H21A 8231   2.237   0.295   7.768  0.9012 -0.1242  1.8535
   78CHL1  H21B 8232   2.296   0.421   7.883 -1.8746  3.8136  0.2098
   78CHL1  H21C 8233   2.334   0.421   7.705 -0.6659 -0.8829 -0.4189
   78CHL1   C22 8234   2.042   0.473   7.896  0.6993  0.2027  0.6195
   78CHL1  H22A 8235   1.948   0.531   7.884 -0.4391 -1.8291 -0.5015
   78CHL1  H22B 8236   2.005   0.369   7.905 -0.3237  0.5163  0.1945
   78CHL1   C23 8237   2.115   0.522   8.027  0.1835  0.0874  0.3139
   78CHL1  H23A 8238   2.183   0.440   8.060  0.4307  0.3356  0.4230
   78CHL1  H23B 8239   2.180   0.610   8.010  0.6991 -0.6131 -1.4902
   78CHL1   C24 8240   2.016   0.563   8.141  0.1229 -0.3661 -0.0177
   78CHL1  H24A 8241   1.950   0.648   8.114 -1.6360 -1.6679  0.0340
   78CHL1  H24B 8242   1.952   0.476   8.169  1.6955 -1.7517 -0.6779
   78CHL1   C25 8243   2.083   0.614   8.268 -0.1097 -0.6618 -0.2183
   78CHL1   H25 8244   2.150   0.695   8.231 -1.8171  0.2520 -1.3852
   78CHL1   C26 8245   1.973   0.669   8.361 -0.9364 -0.5465  0.2034
   78CHL1  H26A 8246   2.020   0.706   8.454  1.0855  1.3118 -1.5096
   78CHL1  H26B 8247   1.937   0.750   8.295  1.1893 -0.4441 -0.8588
   78CHL1  H26C 8248   1.888   0.599   8.378 -1.9805  0.5718 -0.3504
   78CHL1   C27 8249   2.176   0.512   8.338  0.2534 -0.8406  0.2088
   78CHL1  H27A 8250   2.220   0.565   8.425 -2.4428 -2.8194  2.8677
   78CHL1  H27B 8251   2.119   0.421   8.367 -0.8853 -0.3024 -0.3218
   78CHL1  H27C 8252   2.267   0.489   8.279  0.7400  2.2916 -0.3408
   79CHL1    C3 8253   0.902   6.600   7.161 -0.2272 -0.1185 -0.4999
   79CHL1    H3 8254   0.999   6.648   7.186 -0.9260  0.7363  0.5792
   79CHL1    O3 8255   0.885   6.621   7.022  0.3822 -0.4314  0.5752
   79CHL1   H3' 8256   0.943   6.553   6.987 -1.6011 -1.9049  0.0384
   79CHL1    C4 8257   0.891   6.447   7.186 -0.7257 -0.5963  0.9256
   79CHL1   H4A 8258   0.795   6.402   7.153  0.4894 -3.6732  1.4364
   79CHL1   H4B 8259   0.970   6.393   7.129 -1.5385 -1.5930  0.7404
   79CHL1    C5 8260   0.889   6.431   7.340 -0.2350 -0.2375 -0.2950
   79CHL1    C6 8261   0.992   6.364   7.392 -0.6578  0.1888  0.0379
   79CHL1    H6 8262   1.067   6.329   7.318  0.5485 -2.9674  2.6348
   79CHL1    C7 8263   1.006   6.335   7.535  0.5424  0.3754 -1.0928
   79CHL1   H7A 8264   1.040   6.231   7.550  0.7488  0.3799 -1.5232
   79CHL1   H7B 8265   1.079   6.402   7.586  0.4514 -1.3014  1.3294
   79CHL1    C8 8266   0.877   6.363   7.614  0.0847  0.7130 -0.7064
   79CHL1    H8 8267   0.806   6.280   7.594 -0.5270  1.0855 -0.1073
   79CHL1   C14 8268   0.909   6.364   7.761 -0.0721 -0.0555  0.1616
   79CHL1   H14 8269   0.971   6.456   7.766  1.0147 -0.6511 -2.0964
   79CHL1   C15 8270   1.003   6.257   7.825  0.3936  0.3422  0.6547
   79CHL1  H15A 8271   0.976   6.154   7.791 -0.6154  0.7995  0.0301
   79CHL1  H15B 8272   1.111   6.276   7.813  0.1928  0.5080 -1.0363
   79CHL1   C16 8273   0.957   6.262   7.972  0.2987 -0.0128 -0.0469
   79CHL1  H16A 8274   0.914   6.165   8.005  1.5293 -0.4248  0.3807
   79CHL1  H16B 8275   1.044   6.287   8.037 -0.3412  1.5384  0.2333
   79CHL1   C17 8276   0.851   6.370   7.995  0.5106 -0.1880 -0.2519
   79CHL1   H17 8277   0.906   6.467   7.999  0.0366  0.0175  1.3869
   79CHL1   C13 8278   0.790   6.389   7.855  0.3382 -0.2336 -0.0321
   79CHL1   C18 8279   0.692   6.269   7.827  0.0986 -0.7144 -0.5370
   79CHL1  H18A 8280   0.613   6.266   7.905  1.0829  0.1496  0.5000
   79CHL1  H18B 8281   0.646   6.264   7.726 -2.6123 -1.1367  0.6813
   79CHL1  H18C 8282   0.749   6.174   7.838  2.0635  0.5860  0.9047
   79CHL1   C12 8283   0.728   6.527   7.823  0.2890  0.0590 -0.6845
   79CHL1  H12A 8284   0.633   6.547   7.876  0.0742 -1.4158 -0.4954
   79CHL1  H12B 8285   0.803   6.601   7.859  0.3887 -1.0892  1.5358
   79CHL1   C11 8286   0.697   6.540   7.675  0.1923 -0.3948 -0.0551
   79CHL1  H11A 8287   0.610   6.473   7.655  0.3778 -0.5357 -0.3853
   79CHL1  H11B 8288   0.667   6.645   7.653 -0.7737  0.1359  3.3825
   79CHL1    C9 8289   0.815   6.495   7.578  0.2947  1.3146 -0.5517
   79CHL1    H9 8290   0.900   6.566   7.588  1.1750  0.0311  1.2777
   79CHL1   C10 8291   0.783   6.500   7.427  0.7428  0.2917 -0.5044
   79CHL1   C19 8292   0.647   6.425   7.402  0.1230  0.6298 -0.0538
   79CHL1  H19A 8293   0.565   6.478   7.454 -1.3959  0.7607 -2.4800
   79CHL1  H19B 8294   0.617   6.428   7.295 -0.0515 -0.3854 -0.0416
   79CHL1  H19C 8295   0.645   6.320   7.439 -1.6764  1.0726  1.1906
   79CHL1    C1 8296   0.771   6.644   7.382  0.3091 -0.0511  0.3713
   79CHL1   H1A 8297   0.678   6.678   7.431 -0.0960 -2.1580  1.1368
   79CHL1   H1B 8298   0.856   6.708   7.414  0.2409  1.1276 -1.7834
   79CHL1    C2 8299   0.782   6.671   7.228 -0.1628 -0.0252 -0.1295
   79CHL1   H2A 8300   0.789   6.778   7.200  0.8922  0.0407  0.3526
   79CHL1   H2B 8301   0.690   6.631   7.180  0.2332 -0.0978 -0.8369
   79CHL1   C20 8302   0.756   6.354   8.122 -0.0383  0.3814  0.0295
   79CHL1   H20 8303   0.696   6.262   8.108  1.6222 -0.5735 -0.8897
   79CHL1   C21 8304   0.662   6.485   8.135  0.2036 -0.5052 -0.0083
   79CHL1  H21A 8305   0.721   6.579   8.132  0.4368 -0.6848 -1.0166
   79CHL1  H21B 8306   0.611   6.491   8.234  3.1706 -0.3009  1.5744
   79CHL1  H21C 8307   0.591   6.482   8.050 -0.8732 -3.3136  0.9423
   79CHL1   C22 8308   0.838   6.339   8.257  0.3357 -0.9478 -0.2412
   79CHL1  H22A 8309   0.928   6.276   8.241  0.6819 -0.6651  0.5766
   79CHL1  H22B 8310   0.876   6.439   8.286 -2.1646  0.4462 -1.5255
   79CHL1   C23 8311   0.746   6.291   8.372  0.5682 -0.8289  0.3563
   79CHL1  H23A 8312   0.654   6.351   8.384  0.5264 -0.6417 -0.8600
   79CHL1  H23B 8313   0.698   6.194   8.346 -0.0341 -0.1834 -0.9607
   79CHL1   C24 8314   0.820   6.278   8.504 -0.6211 -0.2652  0.3494
   79CHL1  H24A 8315   0.918   6.227   8.499 -0.0207  1.0396 -1.9482
   79CHL1  H24B 8316   0.848   6.375   8.549  1.1134 -1.6220  2.2702
   79CHL1   C25 8317   0.737   6.202   8.612  0.5472 -0.1728  0.3715
   79CHL1   H25 8318   0.724   6.104   8.560  0.4866  0.9946 -1.8477
   79CHL1   C26 8319   0.812   6.180   8.746  0.3545 -0.5262 -1.0762
   79CHL1  H26A 8320   0.830   6.272   8.805  2.4542 -1.4756 -0.1887
   79CHL1  H26B 8321   0.741   6.115   8.802 -1.6208  0.4280 -2.3943
   79CHL1  H26C 8322   0.908   6.128   8.727  0.4353  0.8636 -4.7940
   79CHL1   C27 8323   0.594   6.254   8.640  0.3938  0.3814  0.3157
   79CHL1  H27A 8324   0.613   6.347   8.697 -0.9577  0.7590  0.1671
   79CHL1  H27B 8325   0.545   6.266   8.541  2.4833 -0.3969 -0.8542
   79CHL1  H27C 8326   0.528   6.185   8.697  0.5494 -1.5336 -1.7165
   80CHL1    C3 8327   5.966   3.768   7.086  0.3464  0.3754 -0.5641
   80CHL1    H3 8328   6.054   3.705   7.113 -0.0649  0.2734  0.5674
   80CHL1    O3 8329   5.931   3.755   6.950  0.3016 -0.0021 -0.3921
   80CHL1   H3' 8330   5.955   3.665   6.926  0.2933 -0.2420  0.4957
   80CHL1    C4 8331   5.851   3.714   7.169 -0.2195 -0.0908  0.3537
   80CHL1   H4A 8332   5.757   3.755   7.129 -0.3115  0.5724  1.2363
   80CHL1   H4B 8333   5.853   3.604   7.158  1.8572 -0.3803  2.8567
   80CHL1    C5 8334   5.864   3.745   7.320  1.2107  0.0789  0.6103
   80CHL1    C6 8335   5.862   3.651   7.419  0.3380 -0.4642  0.0421
   80CHL1    H6 8336   5.839   3.547   7.390 -3.7446  0.1928  0.5817
   80CHL1    C7 8337   5.875   3.676   7.564  0.3391  0.4588 -0.5549
   80CHL1   H7A 8338   5.790   3.626   7.615  1.1872  0.2136  0.6323
   80CHL1   H7B 8339   5.969   3.635   7.606  0.1754 -0.0935 -0.7250
   80CHL1    C8 8340   5.853   3.834   7.599  0.0153  0.1630 -0.1293
   80CHL1    H8 8341   5.746   3.857   7.585  0.0442 -0.0331 -0.6846
   80CHL1   C14 8342   5.907   3.852   7.742  0.6152 -0.0441  0.2949
   80CHL1   H14 8343   6.016   3.833   7.742  1.1390  2.8321  0.2936
   80CHL1   C15 8344   5.854   3.757   7.856 -0.4490 -0.5863 -0.2121
   80CHL1  H15A 8345   5.744   3.762   7.841 -0.2279  1.5119 -1.2766
   80CHL1  H15B 8346   5.888   3.651   7.848  0.3560 -0.5458  2.2497
   80CHL1   C16 8347   5.913   3.825   7.982  0.2688  0.2520 -0.2493
   80CHL1  H16A 8348   5.828   3.856   8.046  0.7789 -1.2743  1.2000
   80CHL1  H16B 8349   6.001   3.776   8.029  2.3271  1.2076 -2.9407
   80CHL1   C17 8350   5.973   3.964   7.936 -0.7578 -0.1166  0.2681
   80CHL1   H17 8351   6.082   3.952   7.923 -0.6437 -0.4833  1.4591
   80CHL1   C13 8352   5.909   3.993   7.799  1.4237 -0.4553  0.2065
   80CHL1   C18 8353   5.770   4.045   7.798  0.2848 -0.0944 -0.7716
   80CHL1  H18A 8354   5.764   4.149   7.837 -1.0937 -0.4533  0.0271
   80CHL1  H18B 8355   5.703   4.042   7.710 -0.1983  0.9187 -0.4589
   80CHL1  H18C 8356   5.705   3.995   7.873  0.6080  2.0048  0.9704
   80CHL1   C12 8357   5.993   4.075   7.701 -0.4072 -0.0086 -0.1195
   80CHL1  H12A 8358   6.001   4.181   7.731  0.6730 -0.0885 -0.0931
   80CHL1  H12B 8359   6.096   4.032   7.700 -1.1383 -1.9191  1.9864
   80CHL1   C11 8360   5.939   4.064   7.557  0.4631  0.0994 -0.3008
   80CHL1  H11A 8361   5.838   4.111   7.558  0.1920 -0.4828 -0.3933
   80CHL1  H11B 8362   6.009   4.124   7.494  0.5717 -0.0311 -0.3029
   80CHL1    C9 8363   5.930   3.919   7.501 -0.1503 -0.0264 -0.7022
   80CHL1    H9 8364   6.038   3.891   7.503 -0.4105 -1.3209 -3.1264
   80CHL1   C10 8365   5.889   3.898   7.353  0.1038 -0.9055  0.6774
   80CHL1   C19 8366   5.759   3.974   7.327  0.1036  0.2579 -0.3453
   80CHL1  H19A 8367   5.710   3.944   7.232 -0.7107 -1.0007  0.4524
   80CHL1  H19B 8368   5.685   3.952   7.408 -2.2482  1.8711 -1.9967
   80CHL1  H19C 8369   5.784   4.083   7.330  2.1224 -0.2059  2.6027
   80CHL1    C1 8370   6.006   3.955   7.267 -0.6404 -0.2467  0.1342
   80CHL1   H1A 8371   6.021   4.065   7.270  0.0850 -0.3379  0.0822
   80CHL1   H1B 8372   6.100   3.911   7.306  1.0725  2.4513 -0.8481
   80CHL1    C2 8373   5.997   3.912   7.114 -0.1500 -0.4510  0.2240
   80CHL1   H2A 8374   6.077   3.968   7.061 -0.8797 -0.3080 -0.7263
   80CHL1   H2B 8375   5.904   3.961   7.079 -0.8108 -0.7844  1.4452
   80CHL1   C20 8376   5.951   4.068   8.041 -0.8669  0.9035  0.3916
   80CHL1   H20 8377   5.845   4.084   8.066 -0.6863  1.3225  0.8763
   80CHL1   C21 8378   6.025   4.197   8.009 -0.0170  0.9309 -0.3087
   80CHL1  H21A 8379   6.132   4.183   7.981  0.4103  2.9376  0.2090
   80CHL1  H21B 8380   6.030   4.257   8.102  0.3550  0.7532 -0.2122
   80CHL1  H21C 8381   5.972   4.263   7.938  1.5900  1.2907 -1.2094
   80CHL1   C22 8382   6.018   4.021   8.176  0.1297 -0.1843  0.5723
   80CHL1  H22A 8383   6.004   3.914   8.202 -2.2781  0.5296  2.3802
   80CHL1  H22B 8384   6.128   4.029   8.163 -0.2372  0.9833 -2.2182
   80CHL1   C23 8385   5.968   4.101   8.294 -1.2719 -0.2898 -0.9846
   80CHL1  H23A 8386   5.950   4.210   8.287  3.4045  0.8150  1.6539
   80CHL1  H23B 8387   5.868   4.058   8.315 -0.3731 -1.9546 -0.0067
   80CHL1   C24 8388   6.043   4.081   8.430  0.9585  0.5731  0.0953
   80CHL1  H24A 8389   5.999   4.150   8.506  0.7523 -1.9033  2.3152
   80CHL1  H24B 8390   6.047   3.976   8.469 -0.6547  0.4528 -0.0279
   80CHL1   C25 8391   6.188   4.128   8.422 -0.1891 -0.6177  0.6770
   80CHL1   H25 8392   6.239   4.063   8.348  1.7300  1.4134  0.1599
   80CHL1   C26 8393   6.202   4.269   8.370 -0.1246  0.0441  0.2649
   80CHL1  H26A 8394   6.301   4.319   8.380 -0.6622  1.8743 -2.8546
   80CHL1  H26B 8395   6.179   4.262   8.262 -0.4052 -0.0291  0.3284
   80CHL1  H26C 8396   6.135   4.339   8.425 -1.9979 -0.1142 -1.7793
   80CHL1   C27 8397   6.259   4.114   8.554  0.6841 -0.1945  0.1953
   80CHL1  H27A 8398   6.293   4.009   8.571  0.2635 -0.4017 -0.2065
   80CHL1  H27B 8399   6.356   4.166   8.559  1.7456 -2.0624 -0.5018
   80CHL1  H27C 8400   6.192   4.133   8.641  0.8727 -0.6889  0.4556
   81CHL1    C3 8401   3.522   4.182   6.848 -0.2612  0.5565 -0.1107
   81CHL1    H3 8402   3.596   4.105   6.877 -1.2000 -0.2960  0.0279
   81CHL1    O3 8403   3.519   4.184   6.703  0.0776  0.3299 -0.2615
   81CHL1   H3' 8404   3.432   4.215   6.677  0.9646  2.2217 -1.0710
   81CHL1    C4 8405   3.374   4.145   6.895  0.8268  0.0597 -0.0719
   81CHL1   H4A 8406   3.302   4.222   6.859  1.7288  0.1844 -1.6798
   81CHL1   H4B 8407   3.360   4.043   6.854  1.0069  0.0747 -0.1723
   81CHL1    C5 8408   3.375   4.143   7.048 -0.1202 -0.2997 -0.5062
   81CHL1    C6 8409   3.332   4.033   7.118  0.0604 -0.2917  0.0934
   81CHL1    H6 8410   3.313   3.936   7.068  1.4918 -1.4779  1.7732
   81CHL1    C7 8411   3.308   4.043   7.270  0.3779 -0.1565  0.3373
   81CHL1   H7A 8412   3.205   4.010   7.295 -0.6204  3.1433  0.8596
   81CHL1   H7B 8413   3.386   3.983   7.322  0.8387 -0.9466 -1.2344
   81CHL1    C8 8414   3.318   4.188   7.333 -0.0030  0.9644  0.0337
   81CHL1    H8 8415   3.223   4.238   7.302 -0.6276  0.3042  0.8661
   81CHL1   C14 8416   3.328   4.182   7.489 -0.3115  0.5285 -1.3285
   81CHL1   H14 8417   3.415   4.114   7.503 -1.6612 -0.7162  1.2287
   81CHL1   C15 8418   3.211   4.120   7.557 -0.3967  0.2956 -0.1773
   81CHL1  H15A 8419   3.117   4.164   7.518 -1.1114  0.4080  1.6171
   81CHL1  H15B 8420   3.202   4.010   7.567 -0.8920  0.2520 -1.1075
   81CHL1   C16 8421   3.225   4.183   7.706  0.6152  0.2019 -0.6291
   81CHL1  H16A 8422   3.127   4.231   7.726 -0.2391 -1.4106 -0.8446
   81CHL1  H16B 8423   3.256   4.104   7.777  5.3938  2.1519 -0.3530
   81CHL1   C17 8424   3.326   4.298   7.696 -0.2686 -0.2219 -0.2969
   81CHL1   H17 8425   3.419   4.250   7.732 -0.3043  0.3289  0.5225
   81CHL1   C13 8426   3.348   4.325   7.547 -0.3707  0.0785 -0.0182
   81CHL1   C18 8427   3.240   4.425   7.493 -0.0120  0.6540  0.2023
   81CHL1  H18A 8428   3.140   4.401   7.533  0.2520  0.8643  0.9892
   81CHL1  H18B 8429   3.263   4.527   7.529 -2.2641  1.2622 -0.0037
   81CHL1  H18C 8430   3.229   4.432   7.383 -0.0148 -1.2423  0.0616
   81CHL1   C12 8431   3.496   4.362   7.495 -0.6504  0.5892  0.6037
   81CHL1  H12A 8432   3.538   4.445   7.556 -0.3297  1.1163 -0.3225
   81CHL1  H12B 8433   3.560   4.274   7.517 -0.7689 -0.2466 -2.1100
   81CHL1   C11 8434   3.501   4.380   7.339  0.4022 -1.1737  0.6238
   81CHL1  H11A 8435   3.445   4.474   7.320  0.6615 -0.8436  1.4651
   81CHL1  H11B 8436   3.610   4.383   7.317 -0.1250 -1.4771 -2.1838
   81CHL1    C9 8437   3.440   4.257   7.264 -0.1054 -0.2440  0.0860
   81CHL1    H9 8438   3.521   4.183   7.279 -1.1404 -1.5971 -0.9082
   81CHL1   C10 8439   3.424   4.275   7.113  1.2862  0.2987 -1.3577
   81CHL1   C19 8440   3.328   4.393   7.081  0.4235 -0.4209 -0.0127
   81CHL1  H19A 8441   3.370   4.482   7.133  1.8486 -1.6429  0.9443
   81CHL1  H19B 8442   3.318   4.406   6.971 -2.2560 -4.0179 -0.2890
   81CHL1  H19C 8443   3.223   4.376   7.111  0.1801  2.0526  0.7018
   81CHL1    C1 8444   3.568   4.313   7.056 -0.0377 -0.3618  0.4071
   81CHL1   H1A 8445   3.596   4.415   7.087 -0.1724  0.3057 -1.5853
   81CHL1   H1B 8446   3.638   4.245   7.109 -3.1691 -2.1891  2.3367
   81CHL1    C2 8447   3.566   4.319   6.903  0.5079  0.0841  0.1402
   81CHL1   H2A 8448   3.666   4.349   6.867  0.8830 -1.2563  0.0306
   81CHL1   H2B 8449   3.499   4.399   6.865  1.3205  1.1639  0.9757
   81CHL1   C20 8450   3.296   4.414   7.791 -0.0506 -0.1728 -0.7789
   81CHL1   H20 8451   3.193   4.450   7.772  0.4995  3.9231  3.0444
   81CHL1   C21 8452   3.409   4.526   7.778  0.4469 -0.6834 -0.1826
   81CHL1  H21A 8453   3.376   4.622   7.824 -2.1545 -1.4000 -0.4577
   81CHL1  H21B 8454   3.428   4.541   7.670 -1.8069 -1.3309 -0.6930
   81CHL1  H21C 8455   3.511   4.496   7.811 -0.1317 -1.5314  0.8915
   81CHL1   C22 8456   3.296   4.372   7.937 -0.5469  0.5803 -1.1924
   81CHL1  H22A 8457   3.202   4.313   7.946  0.2359 -0.4078  0.7739
   81CHL1  H22B 8458   3.386   4.313   7.966 -1.7256 -0.9839 -0.6358
   81CHL1   C23 8459   3.278   4.475   8.042 -0.6076 -0.0518 -0.6521
   81CHL1  H23A 8460   3.357   4.551   8.022 -0.7329  0.0362 -0.8169
   81CHL1  H23B 8461   3.180   4.528   8.040  0.6138  2.3083 -0.3261
   81CHL1   C24 8462   3.298   4.415   8.182  0.8095 -0.2767  0.5479
   81CHL1  H24A 8463   3.213   4.344   8.193  0.2193  0.7373  2.7427
   81CHL1  H24B 8464   3.393   4.357   8.181  1.5852  0.9727  0.9716
   81CHL1   C25 8465   3.293   4.515   8.305 -1.0793 -0.4814 -0.5534
   81CHL1   H25 8466   3.197   4.572   8.302 -0.8488  0.2330  3.6356
   81CHL1   C26 8467   3.302   4.438   8.433  0.0060 -0.3463 -0.1412
   81CHL1  H26A 8468   3.400   4.387   8.446  0.3719  0.4807  0.4181
   81CHL1  H26B 8469   3.282   4.506   8.519 -0.9058  0.9862 -1.3688
   81CHL1  H26C 8470   3.227   4.357   8.433 -0.5338  0.1349 -1.0489
   81CHL1   C27 8471   3.420   4.608   8.301  0.2951 -0.0861  0.1107
   81CHL1  H27A 8472   3.414   4.675   8.213  1.4903 -0.5930 -0.3685
   81CHL1  H27B 8473   3.427   4.677   8.388  0.6901  0.9331 -0.7147
   81CHL1  H27C 8474   3.505   4.538   8.284 -0.6731 -0.9445 -1.2789
   82CHL1    C3 8475   4.845   5.063   7.095 -0.6061  0.1031 -0.6306
   82CHL1    H3 8476   4.920   5.142   7.117 -0.8963  0.1136  0.3363
   82CHL1    O3 8477   4.834   5.030   6.956 -0.0137  0.0411 -0.2171
   82CHL1   H3' 8478   4.785   4.949   6.945  0.9582 -0.6111  0.1921
   82CHL1    C4 8479   4.883   4.933   7.170  0.0177 -0.5840 -0.6241
   82CHL1   H4A 8480   4.831   4.845   7.126  0.0797 -0.8039 -0.2610
   82CHL1   H4B 8481   4.990   4.923   7.142  1.1176 -0.6113  3.2566
   82CHL1    C5 8482   4.873   4.949   7.322  0.0468  0.4234  0.2595
   82CHL1    C6 8483   4.972   4.925   7.408  0.4582 -0.3579 -0.4864
   82CHL1    H6 8484   5.071   4.892   7.373 -0.0231 -2.4159  0.0501
   82CHL1    C7 8485   4.955   4.922   7.558  0.5787 -0.3957 -0.0955
   82CHL1   H7A 8486   5.008   4.830   7.587  0.2249 -0.2503  1.0432
   82CHL1   H7B 8487   4.998   5.003   7.620  2.9704 -1.7078 -0.0001
   82CHL1    C8 8488   4.805   4.909   7.584 -0.0697  0.4084 -0.2514
   82CHL1    H8 8489   4.766   4.812   7.546  0.7368 -0.2385  0.5257
   82CHL1   C14 8490   4.779   4.935   7.740  1.1680 -0.2428 -0.0899
   82CHL1   H14 8491   4.813   5.040   7.751 -0.9627  0.7327 -2.4829
   82CHL1   C15 8492   4.856   4.859   7.840 -0.2804  0.3800 -0.1475
   82CHL1  H15A 8493   4.846   4.751   7.818  1.8398 -0.1858  1.4562
   82CHL1  H15B 8494   4.964   4.886   7.839  0.2719 -1.7177 -3.0702
   82CHL1   C16 8495   4.784   4.894   7.974 -0.1034 -0.2259  0.5635
   82CHL1  H16A 8496   4.789   4.804   8.040 -2.5658  0.6693  2.0334
   82CHL1  H16B 8497   4.848   4.977   8.012 -0.2811 -0.1873  0.7770
   82CHL1   C17 8498   4.650   4.957   7.939 -0.4198  0.7047  0.0073
   82CHL1   H17 8499   4.652   5.067   7.950 -1.1363  0.7149  0.0602
   82CHL1   C13 8500   4.633   4.943   7.789  0.7752  0.4847  0.2207
   82CHL1   C18 8501   4.552   4.814   7.768  0.3730  0.0581  0.9971
   82CHL1  H18A 8502   4.538   4.784   7.662  0.9151 -1.5576  1.3753
   82CHL1  H18B 8503   4.602   4.728   7.817  0.9865  0.7232  1.5566
   82CHL1  H18C 8504   4.449   4.813   7.811 -0.7165 -1.1730 -1.5715
   82CHL1   C12 8505   4.559   5.053   7.713 -0.7666  0.7706  0.6388
   82CHL1  H12A 8506   4.457   5.062   7.756 -2.0582  1.4780 -2.4391
   82CHL1  H12B 8507   4.619   5.141   7.746  0.5054 -0.7644  2.5064
   82CHL1   C11 8508   4.567   5.039   7.560 -0.0642  0.5433  0.2281
   82CHL1  H11A 8509   4.504   4.956   7.520 -1.5764  2.1728 -0.8352
   82CHL1  H11B 8510   4.524   5.132   7.517 -0.2824 -0.9311 -2.9274
   82CHL1    C9 8511   4.721   5.018   7.511  0.4431 -0.0546 -0.6366
   82CHL1    H9 8512   4.767   5.115   7.540  2.3422 -1.1185 -0.0574
   82CHL1   C10 8513   4.735   4.998   7.358  0.0367 -0.1411  0.2623
   82CHL1   C19 8514   4.629   4.900   7.316  0.6985  0.0455 -0.2264
   82CHL1  H19A 8515   4.606   4.826   7.395  1.2071  3.2685  3.0346
   82CHL1  H19B 8516   4.536   4.959   7.308  0.8793  0.1588 -1.6597
   82CHL1  H19C 8517   4.633   4.851   7.216 -0.9671  0.3149 -0.4445
   82CHL1    C1 8518   4.707   5.137   7.296 -0.3045  0.0978  0.5376
   82CHL1   H1A 8519   4.608   5.176   7.327 -1.2458 -0.8967 -1.1142
   82CHL1   H1B 8520   4.791   5.207   7.314 -0.8567  0.1297  3.1481
   82CHL1    C2 8521   4.712   5.121   7.137 -0.2057  0.2589 -0.2634
   82CHL1   H2A 8522   4.699   5.224   7.098  2.2044  1.1110  1.1127
   82CHL1   H2B 8523   4.633   5.051   7.102 -1.5348  0.5062  2.1715
   82CHL1   C20 8524   4.534   4.923   8.038  0.0301 -0.6302  1.1016
   82CHL1   H20 8525   4.506   4.817   8.019 -0.9896  0.0112 -1.1380
   82CHL1   C21 8526   4.403   5.002   8.012 -0.2232  0.2398  0.1176
   82CHL1  H21A 8527   4.324   4.986   8.088  1.1261 -1.4942  1.1844
   82CHL1  H21B 8528   4.354   4.984   7.914  0.2467 -2.7322  0.3721
   82CHL1  H21C 8529   4.427   5.109   8.030 -1.9373  0.2462  2.5773
   82CHL1   C22 8530   4.580   4.938   8.186 -0.2025  0.1994 -1.3415
   82CHL1  H22A 8531   4.668   4.871   8.195 -1.0498 -0.8430 -0.7166
   82CHL1  H22B 8532   4.603   5.045   8.201  0.6491 -0.0051 -1.1779
   82CHL1   C23 8533   4.479   4.874   8.282  0.2611  0.2307  0.2595
   82CHL1  H23A 8534   4.386   4.934   8.293  0.5427  0.8207 -0.5530
   82CHL1  H23B 8535   4.453   4.769   8.257 -1.0803  1.0156 -1.7149
   82CHL1   C24 8536   4.535   4.886   8.429  0.3835  0.7772  0.5952
   82CHL1  H24A 8537   4.629   4.828   8.437 -0.4040 -0.7935 -0.9931
   82CHL1  H24B 8538   4.566   4.988   8.459  0.7314  0.2814  1.9490
   82CHL1   C25 8539   4.439   4.827   8.533  0.0046 -0.1609 -0.2324
   82CHL1   H25 8540   4.422   4.720   8.506  1.8254 -0.7303  0.7752
   82CHL1   C26 8541   4.504   4.814   8.676 -0.0772  0.1578  1.0678
   82CHL1  H26A 8542   4.525   4.917   8.712 -0.4890  0.5184  0.2921
   82CHL1  H26B 8543   4.435   4.775   8.753 -1.9326  0.1119 -0.5869
   82CHL1  H26C 8544   4.598   4.754   8.671 -0.0798  0.3615 -3.7351
   82CHL1   C27 8545   4.306   4.902   8.540 -0.5117  0.5618 -0.1561
   82CHL1  H27A 8546   4.226   4.854   8.601 -0.9904  1.6342  0.0594
   82CHL1  H27B 8547   4.319   4.995   8.599  0.6040  0.4792 -0.2672
   82CHL1  H27C 8548   4.265   4.941   8.444 -0.5704  0.3861 -0.2033
   83CHL1    C3 8549   0.803   6.182   6.956 -0.0498  0.2766  0.3637
   83CHL1    H3 8550   0.859   6.258   7.016  0.0291 -0.1980  0.8983
   83CHL1    O3 8551   0.797   6.218   6.819 -0.1841  0.0542 -0.0212
   83CHL1   H3' 8552   0.886   6.249   6.802  0.2851 -2.7712 -3.0921
   83CHL1    C4 8553   0.856   6.042   6.979 -0.5989  0.2790  0.7084
   83CHL1   H4A 8554   0.798   5.972   6.916 -3.4325  0.7186  2.7435
   83CHL1   H4B 8555   0.958   6.048   6.935 -0.6872  2.0976  0.7043
   83CHL1    C5 8556   0.856   6.004   7.127 -0.7856  0.2216  0.1608
   83CHL1    C6 8557   0.973   5.978   7.183  0.1636  0.5519 -0.0792
   83CHL1    H6 8558   1.069   5.996   7.132  0.1329  2.0624  0.3789
   83CHL1    C7 8559   0.979   5.934   7.328 -0.0320  0.0620 -0.8742
   83CHL1   H7A 8560   1.054   5.852   7.336  1.5436  1.6046  0.5035
   83CHL1   H7B 8561   1.012   6.023   7.386 -0.0626 -0.8852  0.6220
   83CHL1    C8 8562   0.845   5.894   7.392  0.5294 -0.0753  0.2668
   83CHL1    H8 8563   0.812   5.793   7.359  2.6081 -0.6161 -0.2222
   83CHL1   C14 8564   0.856   5.895   7.539 -1.3928  0.8774  0.7337
   83CHL1   H14 8565   0.885   6.000   7.564  1.7629  0.9201 -2.6138
   83CHL1   C15 8566   0.973   5.813   7.603 -0.2099  0.3905  0.2042
   83CHL1  H15A 8567   0.950   5.709   7.571  0.7760  0.2795 -0.1784
   83CHL1  H15B 8568   1.074   5.848   7.571  0.3804 -3.6523 -2.7812
   83CHL1   C16 8569   0.939   5.829   7.751  0.0569  0.3349  0.3499
   83CHL1  H16A 8570   0.948   5.734   7.809  1.5377  0.5945  0.5646
   83CHL1  H16B 8571   1.008   5.896   7.806  0.4487  0.3282 -0.1338
   83CHL1   C17 8572   0.785   5.875   7.769 -0.2861 -0.3647 -0.3029
   83CHL1   H17 8573   0.793   5.980   7.803  1.3112 -0.0109 -1.7084
   83CHL1   C13 8574   0.731   5.865   7.626  0.3226  0.5275  0.3744
   83CHL1   C18 8575   0.694   5.713   7.601 -0.1518  0.3046  0.3501
   83CHL1  H18A 8576   0.604   5.685   7.660  0.0224  0.4265  0.6765
   83CHL1  H18B 8577   0.654   5.719   7.497  0.1573 -2.0873  0.0625
   83CHL1  H18C 8578   0.770   5.634   7.617 -1.8718 -1.2658  0.8788
   83CHL1   C12 8579   0.630   5.958   7.584 -0.7001 -0.8367 -0.1872
   83CHL1  H12A 8580   0.530   5.948   7.631 -1.4781  0.5226 -1.5304
   83CHL1  H12B 8581   0.670   6.054   7.623  0.1135 -1.3449  0.2650
   83CHL1   C11 8582   0.612   5.977   7.432 -0.0226  0.1996 -0.4046
   83CHL1  H11A 8583   0.560   5.887   7.392  2.2484 -0.7618 -1.2841
   83CHL1  H11B 8584   0.554   6.070   7.415  1.0700  1.1640  1.0781
   83CHL1    C9 8585   0.742   5.997   7.356  0.8327  1.0014 -0.6176
   83CHL1    H9 8586   0.785   6.097   7.379 -1.1899  1.6879  0.2789
   83CHL1   C10 8587   0.723   6.006   7.202  0.7040  0.6019 -0.3873
   83CHL1   C19 8588   0.642   5.885   7.153 -0.7301 -0.1498 -0.9806
   83CHL1  H19A 8589   0.542   5.879   7.201 -1.1339 -0.4981 -1.8747
   83CHL1  H19B 8590   0.634   5.896   7.043  0.4077  0.3709 -1.0223
   83CHL1  H19C 8591   0.692   5.793   7.190 -0.7509  0.6203  1.0278
   83CHL1    C1 8592   0.657   6.141   7.159 -0.2874  0.3208  0.0587
   83CHL1   H1A 8593   0.552   6.145   7.196  0.9332 -0.8235  3.8980
   83CHL1   H1B 8594   0.716   6.218   7.215  1.3437  0.2415 -1.5033
   83CHL1    C2 8595   0.658   6.186   7.011 -0.1953  0.7449 -0.4821
   83CHL1   H2A 8596   0.615   6.287   6.996  0.4403  1.0566 -0.2210
   83CHL1   H2B 8597   0.597   6.103   6.970  0.0862  1.0733 -1.5732
   83CHL1   C20 8598   0.718   5.806   7.882  0.8257  0.4463  0.0007
   83CHL1   H20 8599   0.734   5.696   7.883  0.8198  0.4493  0.4882
   83CHL1   C21 8600   0.566   5.833   7.884 -0.3236 -0.0103 -0.0626
   83CHL1  H21A 8601   0.518   5.772   7.805  0.5480  0.6038 -1.0922
   83CHL1  H21B 8602   0.546   5.940   7.858 -1.0884 -0.3188 -0.7512
   83CHL1  H21C 8603   0.514   5.820   7.981 -2.3085 -1.2022 -1.2600
   83CHL1   C22 8604   0.776   5.866   8.018  0.4449  0.7332 -0.5185
   83CHL1  H22A 8605   0.885   5.847   8.017  0.2545 -0.3503 -1.2950
   83CHL1  H22B 8606   0.750   5.974   8.023 -1.2755  0.2954  0.3599
   83CHL1   C23 8607   0.708   5.802   8.141 -0.7112  0.0159 -0.0728
   83CHL1  H23A 8608   0.609   5.849   8.160  0.3016  3.1178 -2.0598
   83CHL1  H23B 8609   0.688   5.693   8.128  1.1540 -0.2600 -0.6792
   83CHL1   C24 8610   0.793   5.808   8.266 -0.5797 -0.8700 -0.6767
   83CHL1  H24A 8611   0.888   5.752   8.254  0.3512  0.6727 -0.4925
   83CHL1  H24B 8612   0.821   5.914   8.280  1.8264 -1.1387 -3.0047
   83CHL1   C25 8613   0.736   5.751   8.404  0.6541 -0.0569  0.5917
   83CHL1   H25 8614   0.651   5.816   8.434  2.0016  2.2273 -0.3539
   83CHL1   C26 8615   0.681   5.601   8.391 -0.6849 -0.2571 -0.6593
   83CHL1  H26A 8616   0.588   5.605   8.331 -0.0169 -0.5545 -1.7351
   83CHL1  H26B 8617   0.762   5.541   8.343 -0.2234  0.0006 -0.2004
   83CHL1  H26C 8618   0.658   5.557   8.490 -2.4325 -0.1741 -1.0145
   83CHL1   C27 8619   0.846   5.746   8.512 -0.0867 -0.4143  0.0648
   83CHL1  H27A 8620   0.925   5.677   8.477 -0.8167  0.0050 -2.5458
   83CHL1  H27B 8621   0.880   5.848   8.540 -2.8855  0.4319  0.5653
   83CHL1  H27C 8622   0.792   5.704   8.600 -0.2048 -1.2501 -0.4081
   84CHL1    C3 8623   2.706   2.897   6.882  0.8643  0.3866  0.7010
   84CHL1    H3 8624   2.597   2.913   6.896  0.0917 -2.1757 -1.9699
   84CHL1    O3 8625   2.738   2.915   6.743 -0.3754 -0.1825 -0.1287
   84CHL1   H3' 8626   2.704   2.840   6.694  1.5537 -1.9392  1.1287
   84CHL1    C4 8627   2.783   2.999   6.964 -0.2286 -0.4570  0.1894
   84CHL1   H4A 8628   2.894   2.994   6.968 -0.2915 -2.1793 -0.0272
   84CHL1   H4B 8629   2.757   3.099   6.924 -0.6018 -0.7329 -0.2702
   84CHL1    C5 8630   2.751   2.990   7.111  1.0640  0.9874  0.0472
   84CHL1    C6 8631   2.705   3.097   7.181  0.7648 -0.5886 -0.3460
   84CHL1    H6 8632   2.698   3.195   7.131  0.4998 -1.2619 -1.6669
   84CHL1    C7 8633   2.691   3.103   7.328 -0.1539  0.6060  0.6648
   84CHL1   H7A 8634   2.733   3.194   7.375  2.7689  0.3410 -1.3052
   84CHL1   H7B 8635   2.582   3.106   7.348 -0.3383 -1.8141  0.2730
   84CHL1    C8 8636   2.736   2.975   7.403  0.0304 -0.0996  0.5279
   84CHL1    H8 8637   2.846   2.984   7.418  0.3368 -0.3798 -1.4085
   84CHL1   C14 8638   2.671   2.958   7.546  0.5855  0.4012  0.0899
   84CHL1   H14 8639   2.562   2.957   7.523  0.6563  0.9281 -0.2682
   84CHL1   C15 8640   2.679   3.074   7.648  0.2719 -0.4003 -0.8267
   84CHL1  H15A 8641   2.782   3.110   7.670 -0.6380  0.3775  2.3197
   84CHL1  H15B 8642   2.623   3.168   7.628 -1.0926 -0.5296  2.1551
   84CHL1   C16 8643   2.623   3.003   7.775  0.3826  0.1516 -0.1570
   84CHL1  H16A 8644   2.652   3.026   7.880 -0.0490  0.4585 -0.1006
   84CHL1  H16B 8645   2.517   3.036   7.773  0.9243  1.9326  0.0598
   84CHL1   C17 8646   2.617   2.850   7.746  0.0638 -0.4657 -0.0672
   84CHL1   H17 8647   2.511   2.825   7.721 -0.5437  1.6233  0.2553
   84CHL1   C13 8648   2.699   2.830   7.618 -0.0701  0.4417 -0.2198
   84CHL1   C18 8649   2.848   2.840   7.663 -0.5689  0.4281 -0.2789
   84CHL1  H18A 8650   2.864   2.937   7.716 -1.2846  0.8114 -0.7628
   84CHL1  H18B 8651   2.875   2.753   7.726 -0.9214  2.1998  2.4089
   84CHL1  H18C 8652   2.907   2.850   7.569 -1.2608 -1.0577 -0.8821
   84CHL1   C12 8653   2.669   2.707   7.535 -0.4484  0.2084 -0.1394
   84CHL1  H12A 8654   2.735   2.627   7.575  1.0299  1.0558 -0.8661
   84CHL1  H12B 8655   2.560   2.684   7.527 -0.0560 -1.2530 -1.3881
   84CHL1   C11 8656   2.716   2.715   7.391 -0.0351  0.3432  0.1617
   84CHL1  H11A 8657   2.823   2.688   7.403 -0.1497  0.3805  1.3512
   84CHL1  H11B 8658   2.665   2.638   7.329 -0.3370  1.8864 -1.5429
   84CHL1    C9 8659   2.699   2.852   7.315  0.4864  0.2699  0.1320
   84CHL1    H9 8660   2.589   2.859   7.299  0.5826  0.2688 -0.5493
   84CHL1   C10 8661   2.772   2.854   7.179  0.2289 -0.1748  0.5478
   84CHL1   C19 8662   2.929   2.826   7.185 -0.6112  0.8762 -0.1823
   84CHL1  H19A 8663   2.940   2.723   7.226  0.4826 -0.2675 -3.2700
   84CHL1  H19B 8664   2.978   2.815   7.086 -1.0889  1.2904 -0.4640
   84CHL1  H19C 8665   2.979   2.897   7.254 -0.4099  0.6797 -0.1230
   84CHL1    C1 8666   2.707   2.737   7.083  0.2025 -0.4952  0.3408
   84CHL1   H1A 8667   2.738   2.636   7.116 -1.4032 -0.4293  2.1505
   84CHL1   H1B 8668   2.596   2.747   7.085 -0.1928 -3.5658 -2.3521
   84CHL1    C2 8669   2.734   2.753   6.932  0.0529 -0.3631 -0.5328
   84CHL1   H2A 8670   2.673   2.673   6.885 -0.1034  0.4240 -1.6816
   84CHL1   H2B 8671   2.838   2.729   6.904  0.2099 -1.6525  1.0530
   84CHL1   C20 8672   2.643   2.762   7.877 -0.0620  0.7569 -0.3973
   84CHL1   H20 8673   2.749   2.774   7.907 -0.3467 -1.1358  1.4850
   84CHL1   C21 8674   2.620   2.614   7.837  0.3995  0.1445  0.4495
   84CHL1  H21A 8675   2.701   2.568   7.776  0.4922 -0.4552  1.0159
   84CHL1  H21B 8676   2.525   2.598   7.782  1.2539 -0.6925 -0.8012
   84CHL1  H21C 8677   2.623   2.549   7.927  0.1860  1.0877  1.1428
   84CHL1   C22 8678   2.554   2.800   7.992 -0.5336 -0.9345 -0.1259
   84CHL1  H22A 8679   2.474   2.873   7.966 -0.7991 -0.3501  2.2508
   84CHL1  H22B 8680   2.497   2.708   8.017 -0.9257 -1.2731 -2.1671
   84CHL1   C23 8681   2.634   2.850   8.112 -0.3534 -0.0078 -0.4420
   84CHL1  H23A 8682   2.719   2.914   8.080 -2.6105  2.5839 -1.4320
   84CHL1  H23B 8683   2.574   2.925   8.167 -1.3828 -2.5664  2.0561
   84CHL1   C24 8684   2.671   2.739   8.213 -0.6421  0.8103 -0.2286
   84CHL1  H24A 8685   2.734   2.669   8.154 -0.5362 -1.3298  2.2977
   84CHL1  H24B 8686   2.737   2.778   8.294  0.3803 -1.5531  0.1371
   84CHL1   C25 8687   2.559   2.662   8.283 -0.2754 -0.6117  0.3597
   84CHL1   H25 8688   2.481   2.640   8.208  0.9024  1.3971 -1.5210
   84CHL1   C26 8689   2.610   2.531   8.342 -0.0877  0.3027  1.2173
   84CHL1  H26A 8690   2.644   2.456   8.268 -1.9767 -0.1572  0.7807
   84CHL1  H26B 8691   2.700   2.554   8.403  1.7751  0.7047 -1.5789
   84CHL1  H26C 8692   2.537   2.482   8.410 -0.2614 -0.8905  0.1792
   84CHL1   C27 8693   2.501   2.731   8.407  0.1613  0.1959  0.6048
   84CHL1  H27A 8694   2.435   2.816   8.375  0.9668  0.1131 -1.3668
   84CHL1  H27B 8695   2.423   2.668   8.456  0.5099 -0.5908  0.1521
   84CHL1  H27C 8696   2.576   2.764   8.481  1.9918  2.8197 -2.2753
   85CHL1    C3 8697   2.443   6.380   6.539 -0.8336 -0.1443 -1.0733
   85CHL1    H3 8698   2.333   6.362   6.544 -0.4076 -2.4331  0.2710
   85CHL1    O3 8699   2.481   6.365   6.402 -0.2655 -0.0584  0.2406
   85CHL1   H3' 8700   2.422   6.300   6.365  0.7698  0.4133 -2.4009
   85CHL1    C4 8701   2.493   6.516   6.583 -0.7531 -0.4809 -0.0666
   85CHL1   H4A 8702   2.602   6.533   6.579 -0.6474 -1.4594 -1.5434
   85CHL1   H4B 8703   2.451   6.592   6.513  1.9573 -1.0797 -2.4529
   85CHL1    C5 8704   2.441   6.533   6.726 -0.8809  0.4015 -0.3571
   85CHL1    C6 8705   2.364   6.636   6.752 -0.6900  0.7473 -0.2626
   85CHL1    H6 8706   2.343   6.708   6.672  1.4350 -0.3289 -1.8667
   85CHL1    C7 8707   2.304   6.667   6.894  0.2568  0.7011 -0.1390
   85CHL1   H7A 8708   2.300   6.776   6.913  1.3034  0.9095 -1.0578
   85CHL1   H7B 8709   2.200   6.629   6.902  0.4718 -0.6197 -2.8618
   85CHL1    C8 8710   2.393   6.596   7.002  0.1407 -0.7864 -0.0294
   85CHL1    H8 8711   2.487   6.656   7.014 -0.3576 -0.1294  0.6725
   85CHL1   C14 8712   2.333   6.606   7.146  0.4631  0.5638  0.6154
   85CHL1   H14 8713   2.235   6.554   7.140  0.1486  1.2678 -0.4043
   85CHL1   C15 8714   2.298   6.751   7.193  0.7718  0.5784 -0.3497
   85CHL1  H15A 8715   2.380   6.825   7.178 -0.1083  1.5859 -0.2460
   85CHL1  H15B 8716   2.212   6.797   7.139  1.7504  0.9596 -1.6293
   85CHL1   C16 8717   2.276   6.725   7.347  0.1557 -0.1293 -0.4255
   85CHL1  H16A 8718   2.341   6.793   7.407 -3.2187  1.9871  0.9608
   85CHL1  H16B 8719   2.169   6.738   7.372  0.3813 -0.6217  0.8507
   85CHL1   C17 8720   2.317   6.574   7.375 -0.2540  0.3580  0.1183
   85CHL1   H17 8721   2.223   6.518   7.363 -0.3292  0.2162  1.2977
   85CHL1   C13 8722   2.410   6.536   7.258  1.1720 -0.2694  0.0742
   85CHL1   C18 8723   2.547   6.593   7.286  0.1354 -0.1428 -0.6698
   85CHL1  H18A 8724   2.619   6.541   7.352  0.8106  0.6068 -0.7973
   85CHL1  H18B 8725   2.602   6.589   7.190 -0.2578 -0.7960 -0.8745
   85CHL1  H18C 8726   2.526   6.698   7.317  1.1699 -0.4833  1.2940
   85CHL1   C12 8727   2.431   6.386   7.215  0.5066 -0.3673  0.3181
   85CHL1  H12A 8728   2.480   6.326   7.293 -1.6927 -0.3528  1.7576
   85CHL1  H12B 8729   2.330   6.342   7.199  0.5994  0.0526 -1.6633
   85CHL1   C11 8730   2.503   6.366   7.078 -0.1646 -0.2645 -0.0711
   85CHL1  H11A 8731   2.611   6.390   7.080 -0.5364  1.8336 -2.5470
   85CHL1  H11B 8732   2.501   6.259   7.047  2.8090 -0.3206 -0.2348
   85CHL1    C9 8733   2.424   6.453   6.960 -0.5533  0.0322  0.2379
   85CHL1    H9 8734   2.323   6.406   6.961 -1.5684  2.1296 -1.1853
   85CHL1   C10 8735   2.496   6.436   6.829  0.0699 -0.2129  0.0818
   85CHL1   C19 8736   2.643   6.472   6.846 -0.2852 -0.7827  0.1526
   85CHL1  H19A 8737   2.703   6.387   6.886 -1.4710 -0.9922  1.5366
   85CHL1  H19B 8738   2.701   6.483   6.752 -0.9098  0.9932 -0.0420
   85CHL1  H19C 8739   2.659   6.553   6.921 -1.6386 -1.1927  0.9060
   85CHL1    C1 8740   2.465   6.296   6.774 -0.1330 -0.3489 -0.1907
   85CHL1   H1A 8741   2.519   6.227   6.842  0.1265 -0.6740 -0.7231
   85CHL1   H1B 8742   2.355   6.278   6.771 -0.3715  0.9348  0.4887
   85CHL1    C2 8743   2.511   6.275   6.629  0.0793  0.0509 -1.2627
   85CHL1   H2A 8744   2.481   6.177   6.587 -2.1257  0.3584 -0.4840
   85CHL1   H2B 8745   2.621   6.289   6.628  0.0369  0.7874  0.9337
   85CHL1   C20 8746   2.363   6.550   7.523  0.2542  0.3362  0.4714
   85CHL1   H20 8747   2.459   6.604   7.541  0.2408  0.1036  1.2879
   85CHL1   C21 8748   2.365   6.400   7.550 -0.7590 -0.1411 -0.1452
   85CHL1  H21A 8749   2.377   6.365   7.654 -0.3792 -1.7779 -0.7179
   85CHL1  H21B 8750   2.439   6.352   7.482  0.0522 -0.3392  0.8774
   85CHL1  H21C 8751   2.273   6.355   7.507 -1.2483  1.5814 -0.9662
   85CHL1   C22 8752   2.269   6.612   7.630 -0.1458  0.1862  0.3925
   85CHL1  H22A 8753   2.233   6.712   7.597  1.5434  0.5441 -0.3984
   85CHL1  H22B 8754   2.180   6.546   7.640 -0.2920  0.6240  2.0379
   85CHL1   C23 8755   2.319   6.645   7.764  0.4878  0.6522 -0.0822
   85CHL1  H23A 8756   2.341   6.545   7.805  0.0032 -0.0280 -1.4501
   85CHL1  H23B 8757   2.410   6.708   7.756 -0.1607  1.3057 -3.2573
   85CHL1   C24 8758   2.212   6.721   7.842  0.2016  0.5288 -0.9250
   85CHL1  H24A 8759   2.218   6.823   7.799  1.7137  1.2097  0.8469
   85CHL1  H24B 8760   2.109   6.681   7.831 -1.5926  4.1863  1.9171
   85CHL1   C25 8761   2.244   6.743   7.996 -0.4087 -0.6481  0.5818
   85CHL1   H25 8762   2.345   6.788   8.008 -1.2241  0.4153  3.8479
   85CHL1   C26 8763   2.135   6.821   8.073 -0.2585  0.3145 -0.3003
   85CHL1  H26A 8764   2.033   6.778   8.070 -0.9841  1.9567  0.0429
   85CHL1  H26B 8765   2.168   6.842   8.177  0.2147 -0.9731 -0.1861
   85CHL1  H26C 8766   2.128   6.923   8.028 -1.5171  1.6549  2.7546
   85CHL1   C27 8767   2.264   6.608   8.085 -0.1075 -0.0177 -0.0783
   85CHL1  H27A 8768   2.175   6.550   8.052 -0.1310  0.6673 -1.2433
   85CHL1  H27B 8769   2.352   6.547   8.053 -2.0576 -2.4625 -1.0287
   85CHL1  H27C 8770   2.273   6.633   8.193 -1.6688 -0.1411  0.0960
   86CHL1    C3 8771   4.703   3.277   6.965 -0.6304 -0.6340  0.8584
   86CHL1    H3 8772   4.630   3.359   6.951  1.7983  1.0390 -2.8585
   86CHL1    O3 8773   4.746   3.239   6.835 -0.2197 -0.3173  0.1127
   86CHL1   H3' 8774   4.692   3.166   6.804  0.7093 -0.4345 -1.2453
   86CHL1    C4 8775   4.818   3.341   7.043  0.3046  0.8460 -0.3812
   86CHL1   H4A 8776   4.888   3.256   7.057 -2.1135 -0.6577  3.4654
   86CHL1   H4B 8777   4.855   3.428   6.984  3.1388 -1.0393 -1.4949
   86CHL1    C5 8778   4.767   3.380   7.182  0.4171  0.5457 -0.4610
   86CHL1    C6 8779   4.776   3.508   7.231 -0.1297  0.2534  0.1153
   86CHL1    H6 8780   4.814   3.592   7.171 -2.0370  1.0934  0.0475
   86CHL1    C7 8781   4.735   3.544   7.366 -1.0152  0.5552 -0.3911
   86CHL1   H7A 8782   4.820   3.601   7.409 -0.1357 -2.3705  1.9299
   86CHL1   H7B 8783   4.646   3.612   7.363 -2.0083 -0.5787  1.8205
   86CHL1    C8 8784   4.707   3.422   7.456  0.6244  0.5678 -0.1621
   86CHL1    H8 8785   4.807   3.384   7.487 -1.1730 -2.9578  1.6230
   86CHL1   C14 8786   4.631   3.459   7.585 -0.0546  0.4186 -0.0896
   86CHL1   H14 8787   4.524   3.482   7.564  0.2679  1.3858 -0.7341
   86CHL1   C15 8788   4.671   3.589   7.661  0.3754 -0.3016  0.7740
   86CHL1  H15A 8789   4.780   3.596   7.646  0.5801  0.5539  2.4644
   86CHL1  H15B 8790   4.613   3.673   7.618  0.6696 -0.0056  0.9573
   86CHL1   C16 8791   4.638   3.555   7.809  0.2921  0.4382  0.1928
   86CHL1  H16A 8792   4.733   3.527   7.859 -0.2810 -2.8463 -0.4288
   86CHL1  H16B 8793   4.573   3.627   7.863  0.6185  1.2062 -0.4265
   86CHL1   C17 8794   4.558   3.420   7.806 -0.0926 -0.5875  0.4387
   86CHL1   H17 8795   4.453   3.446   7.781 -0.3462 -0.1993  1.8588
   86CHL1   C13 8796   4.618   3.348   7.692 -0.4993 -0.1576  0.2653
   86CHL1   C18 8797   4.760   3.283   7.736 -0.1345 -0.2116 -0.1025
   86CHL1  H18A 8798   4.746   3.206   7.815 -1.8897  2.3448  2.1829
   86CHL1  H18B 8799   4.812   3.242   7.647  0.6743  0.3083  0.1218
   86CHL1  H18C 8800   4.839   3.352   7.773  1.2382 -2.0032  0.4398
   86CHL1   C12 8801   4.523   3.242   7.628 -0.0652  1.0014 -0.1869
   86CHL1  H12A 8802   4.500   3.153   7.689  0.9336  1.7308  1.2933
   86CHL1  H12B 8803   4.423   3.289   7.612 -1.2399 -1.3853  0.0455
   86CHL1   C11 8804   4.583   3.198   7.492  0.8554 -0.2961  0.2948
   86CHL1  H11A 8805   4.670   3.138   7.526 -0.3009 -0.9846  2.1112
   86CHL1  H11B 8806   4.510   3.134   7.438 -0.7257  1.9275 -0.2616
   86CHL1    C9 8807   4.623   3.313   7.394 -0.0856 -0.0863 -0.0575
   86CHL1    H9 8808   4.525   3.355   7.363  1.3599  3.0402 -0.5702
   86CHL1   C10 8809   4.708   3.266   7.270  0.9076 -0.3399 -0.2756
   86CHL1   C19 8810   4.832   3.175   7.303  0.1158 -0.0099 -0.4983
   86CHL1  H19A 8811   4.910   3.238   7.352  0.5820 -0.3878 -0.7474
   86CHL1  H19B 8812   4.797   3.097   7.374 -1.6425  1.5133  0.3474
   86CHL1  H19C 8813   4.865   3.118   7.213  0.2483  0.9172 -1.0422
   86CHL1    C1 8814   4.610   3.191   7.180  0.0300  0.2401  0.4041
   86CHL1   H1A 8815   4.585   3.091   7.223 -2.1033  0.2258 -0.7773
   86CHL1   H1B 8816   4.511   3.237   7.159 -0.8395 -1.9261 -0.4623
   86CHL1    C2 8817   4.649   3.159   7.032 -0.2109 -1.0083 -0.0456
   86CHL1   H2A 8818   4.559   3.106   6.994  0.0692 -0.8022 -0.9944
   86CHL1   H2B 8819   4.727   3.082   7.046  0.0386 -0.4358  1.8870
   86CHL1   C20 8820   4.551   3.352   7.951 -0.2415  0.4570  0.2088
   86CHL1   H20 8821   4.658   3.344   7.980 -0.6405  1.0720  1.8972
   86CHL1   C21 8822   4.474   3.221   7.956 -0.0337 -0.0023  0.2556
   86CHL1  H21A 8823   4.383   3.241   7.896 -0.9827  1.1846  2.0517
   86CHL1  H21B 8824   4.440   3.202   8.060  2.4243 -0.6871  0.9676
   86CHL1  H21C 8825   4.531   3.140   7.905 -1.3435  0.4206 -1.9809
   86CHL1   C22 8826   4.508   3.450   8.063  0.0977 -0.7325 -0.1128
   86CHL1  H22A 8827   4.529   3.388   8.153  0.5088  0.2306  0.4603
   86CHL1  H22B 8828   4.567   3.544   8.071  0.4675 -0.8282 -1.6217
   86CHL1   C23 8829   4.359   3.488   8.038  0.0640 -0.4350 -0.8581
   86CHL1  H23A 8830   4.353   3.564   7.957 -1.0183 -0.8497 -1.1784
   86CHL1  H23B 8831   4.286   3.407   8.014  0.0902 -1.3052  1.8366
   86CHL1   C24 8832   4.302   3.575   8.159  0.1993 -0.3511  1.0850
   86CHL1  H24A 8833   4.355   3.672   8.168  0.1224 -0.0426 -1.4449
   86CHL1  H24B 8834   4.194   3.599   8.143  0.7134  1.0209 -0.4238
   86CHL1   C25 8835   4.305   3.502   8.291  0.7158 -0.5130  0.1773
   86CHL1   H25 8836   4.409   3.469   8.307  0.2952 -1.5006  0.9167
   86CHL1   C26 8837   4.262   3.598   8.407  0.1036 -0.3366 -0.6045
   86CHL1  H26A 8838   4.283   3.541   8.500  0.0652  1.1047  0.3120
   86CHL1  H26B 8839   4.323   3.691   8.405 -3.0489  1.8180 -0.1640
   86CHL1  H26C 8840   4.155   3.626   8.413  0.2580 -0.0936  1.8892
   86CHL1   C27 8841   4.219   3.376   8.288  0.4936 -0.6021 -0.2126
   86CHL1  H27A 8842   4.240   3.309   8.374 -0.0166 -0.4861  0.0008
   86CHL1  H27B 8843   4.113   3.403   8.274  0.8979  0.4747 -1.3377
   86CHL1  H27C 8844   4.238   3.315   8.196  3.1124  1.4767 -1.1316
   87CHL1    C3 8845   4.469   2.106   6.991 -0.1768  0.2787 -0.5213
   87CHL1    H3 8846   4.524   2.032   7.053 -1.0550  0.5766  0.6243
   87CHL1    O3 8847   4.514   2.124   6.855  0.1883  0.3302  0.1924
   87CHL1   H3' 8848   4.479   2.210   6.832  0.6121  0.5108  0.2159
   87CHL1    C4 8849   4.318   2.088   6.998  0.5022  0.0837  0.2726
   87CHL1   H4A 8850   4.262   2.163   6.938  1.2067 -0.2481 -0.8211
   87CHL1   H4B 8851   4.301   1.997   6.937  0.2470 -1.2363  2.2941
   87CHL1    C5 8852   4.271   2.077   7.142 -0.1399  0.2650 -0.0767
   87CHL1    C6 8853   4.202   1.976   7.195 -0.2759  0.0358  0.2688
   87CHL1    H6 8854   4.173   1.895   7.126  0.0377 -0.1581  0.3636
   87CHL1    C7 8855   4.136   1.964   7.329 -0.2151 -0.0724 -0.5260
   87CHL1   H7A 8856   4.027   1.943   7.329 -0.1911 -0.5459  3.4823
   87CHL1   H7B 8857   4.201   1.907   7.398  0.4170  0.8301 -0.3660
   87CHL1    C8 8858   4.153   2.102   7.403  0.7123  0.4006  0.5533
   87CHL1    H8 8859   4.077   2.171   7.361 -0.5191 -0.7326  0.8732
   87CHL1   C14 8860   4.131   2.081   7.552 -0.6267  0.2362  0.3031
   87CHL1   H14 8861   4.214   2.013   7.583  0.6181  0.0673 -3.1263
   87CHL1   C15 8862   4.002   2.013   7.594  0.6394  0.4093 -0.1801
   87CHL1  H15A 8863   3.919   2.060   7.536  0.2020 -1.2823 -0.9425
   87CHL1  H15B 8864   3.994   1.909   7.557  1.6712  0.8444 -1.7063
   87CHL1   C16 8865   3.977   2.048   7.744 -0.4235 -0.6682 -0.7141
   87CHL1  H16A 8866   3.872   2.083   7.749 -0.1177  0.1708  0.0334
   87CHL1  H16B 8867   3.990   1.963   7.815 -0.4212 -0.8100 -0.8854
   87CHL1   C17 8868   4.093   2.160   7.782 -0.1702 -0.6223  0.5687
   87CHL1   H17 8869   4.175   2.105   7.833 -0.0402  0.3629  1.4175
   87CHL1   C13 8870   4.139   2.212   7.640  0.0837  0.3054 -0.7372
   87CHL1   C18 8871   4.028   2.309   7.588  0.5321 -0.5152 -0.8360
   87CHL1  H18A 8872   3.924   2.280   7.611  0.2243  1.6418  0.6516
   87CHL1  H18B 8873   4.041   2.405   7.643  1.0207  0.1394 -2.0660
   87CHL1  H18C 8874   4.044   2.346   7.484 -0.1156  0.0995 -0.7193
   87CHL1   C12 8875   4.284   2.263   7.626  0.0094 -0.2147 -0.2034
   87CHL1  H12A 8876   4.298   2.357   7.684 -1.6306  0.6991 -1.2544
   87CHL1  H12B 8877   4.352   2.183   7.665  0.2121 -0.9432 -2.0261
   87CHL1   C11 8878   4.312   2.288   7.473 -0.2573  0.8485  0.4685
   87CHL1  H11A 8879   4.249   2.374   7.443  0.7205  1.5587  0.4275
   87CHL1  H11B 8880   4.418   2.317   7.458 -0.6781  1.6189 -1.0859
   87CHL1    C9 8881   4.289   2.164   7.376  0.2190 -0.3635 -0.0229
   87CHL1    H9 8882   4.359   2.083   7.404 -0.8994 -0.6847  1.9756
   87CHL1   C10 8883   4.312   2.201   7.226 -0.3204 -0.3079 -0.1742
   87CHL1   C19 8884   4.231   2.330   7.191 -0.5986  0.8017 -0.0715
   87CHL1  H19A 8885   4.269   2.417   7.249  0.4381 -0.9426  1.9178
   87CHL1  H19B 8886   4.241   2.352   7.083 -3.0245 -1.7178 -0.8701
   87CHL1  H19C 8887   4.125   2.311   7.218 -0.1819 -0.0939  0.9693
   87CHL1    C1 8888   4.469   2.230   7.208  0.6562 -0.1212 -0.4824
   87CHL1   H1A 8889   4.491   2.326   7.259 -1.0609  0.4846 -0.8276
   87CHL1   H1B 8890   4.526   2.160   7.272 -0.7348  1.0058  2.0556
   87CHL1    C2 8891   4.503   2.236   7.059  0.0478 -1.2055  0.1350
   87CHL1   H2A 8892   4.613   2.247   7.049 -0.2147 -0.4223 -2.1952
   87CHL1   H2B 8893   4.441   2.315   7.011 -1.9908 -1.4365  2.3225
   87CHL1   C20 8894   4.040   2.264   7.888 -0.1992 -0.3696  0.3908
   87CHL1   H20 8895   3.971   2.326   7.827  1.6758 -0.7047 -2.1073
   87CHL1   C21 8896   4.151   2.365   7.942  0.3468 -0.2293  0.3299
   87CHL1  H21A 8897   4.117   2.413   8.036  3.5110 -1.8657  2.4325
   87CHL1  H21B 8898   4.199   2.440   7.876  1.2667  0.1208  1.3797
   87CHL1  H21C 8899   4.236   2.304   7.982  1.4082  2.6750  2.6728
   87CHL1   C22 8900   3.954   2.205   8.001  0.0023  0.3438 -0.1625
   87CHL1  H22A 8901   3.908   2.283   8.065 -0.7137 -0.1649 -0.0488
   87CHL1  H22B 8902   3.872   2.153   7.947  0.9941 -1.3673 -0.0376
   87CHL1   C23 8903   4.020   2.098   8.096 -0.5018 -0.5773 -0.2939
   87CHL1  H23A 8904   4.087   2.034   8.035  1.5929  2.4443 -1.2915
   87CHL1  H23B 8905   4.076   2.162   8.168 -4.3704  2.6309  0.0245
   87CHL1   C24 8906   3.921   2.019   8.187  0.1592 -0.3643  0.0498
   87CHL1  H24A 8907   3.883   2.088   8.265  2.2632  3.2010 -1.9449
   87CHL1  H24B 8908   3.841   1.979   8.120  0.1541 -0.2667 -0.0023
   87CHL1   C25 8909   3.981   1.901   8.256 -0.7285 -0.2650 -0.2871
   87CHL1   H25 8910   4.072   1.926   8.315 -2.3678 -0.9628  2.6884
   87CHL1   C26 8911   3.875   1.846   8.353 -0.1903  0.0314 -0.6081
   87CHL1  H26A 8912   3.782   1.820   8.299 -1.7044  3.1688  0.3449
   87CHL1  H26B 8913   3.908   1.758   8.412 -1.0388 -0.7105 -1.2286
   87CHL1  H26C 8914   3.858   1.934   8.419  1.8179 -0.4348  0.5684
   87CHL1   C27 8915   4.016   1.788   8.159  0.0560 -0.3775 -0.3587
   87CHL1  H27A 8916   3.933   1.774   8.085  0.0237  1.7483 -0.7695
   87CHL1  H27B 8917   4.106   1.826   8.107 -0.0867  0.8455  0.2589
   87CHL1  H27C 8918   4.035   1.695   8.216 -0.5412 -0.2116  0.1132
   88CHL1    C3 8919   2.292   0.962   6.818 -0.3740 -0.9615 -0.2142
   88CHL1    H3 8920   2.210   1.034   6.797 -0.3727 -1.4153 -1.7775
   88CHL1    O3 8921   2.353   0.908   6.705 -0.4667  0.0687  0.3243
   88CHL1   H3' 8922   2.409   0.974   6.664  2.1078 -2.9296 -1.1718
   88CHL1    C4 8923   2.401   1.036   6.907 -0.0211 -0.3565 -0.0853
   88CHL1   H4A 8924   2.493   0.975   6.916  0.0263 -0.4385 -1.0478
   88CHL1   H4B 8925   2.423   1.121   6.838  0.8188 -0.8284 -0.4054
   88CHL1    C5 8926   2.343   1.087   7.040 -0.4931 -0.3256  0.3296
   88CHL1    C6 8927   2.349   1.217   7.079 -0.4193 -0.3316  0.1938
   88CHL1    H6 8928   2.389   1.292   7.010 -0.6703 -0.7067 -0.3620
   88CHL1    C7 8929   2.317   1.262   7.218  0.0119 -0.0770  0.0372
   88CHL1   H7A 8930   2.379   1.345   7.257 -1.0840  0.5376  0.5018
   88CHL1   H7B 8931   2.216   1.309   7.216  0.3901  0.7685  0.5693
   88CHL1    C8 8932   2.302   1.141   7.317  0.3472 -0.0071  0.5873
   88CHL1    H8 8933   2.404   1.099   7.332  0.4246 -0.3149 -0.7629
   88CHL1   C14 8934   2.245   1.181   7.452  0.2234 -0.2715 -0.0752
   88CHL1   H14 8935   2.148   1.234   7.445 -0.3453 -1.4198 -1.2446
   88CHL1   C15 8936   2.331   1.278   7.534  0.6237  0.3957 -0.7030
   88CHL1  H15A 8937   2.433   1.235   7.530 -0.0170 -0.9654 -3.1101
   88CHL1  H15B 8938   2.322   1.383   7.499 -1.2470  0.0636 -1.2852
   88CHL1   C16 8939   2.289   1.253   7.680 -0.4473 -0.2484  0.2750
   88CHL1  H16A 8940   2.385   1.226   7.731  0.8483  1.7629 -1.0253
   88CHL1  H16B 8941   2.231   1.339   7.721 -0.6436  0.4122 -1.3748
   88CHL1   C17 8942   2.184   1.145   7.675 -0.0990  1.2134 -0.4629
   88CHL1   H17 8943   2.080   1.180   7.660 -0.9436 -1.1711 -0.4552
   88CHL1   C13 8944   2.213   1.058   7.544 -0.0313 -0.0430 -1.0620
   88CHL1   C18 8945   2.341   0.970   7.572 -0.3835  0.3956  0.1508
   88CHL1  H18A 8946   2.411   1.020   7.642 -1.0536  0.3731  0.8571
   88CHL1  H18B 8947   2.313   0.874   7.622  1.7292  0.2406  1.0716
   88CHL1  H18C 8948   2.387   0.939   7.476  0.3078 -1.1552  0.9458
   88CHL1   C12 8949   2.101   0.975   7.486 -0.4390  0.4420 -0.2056
   88CHL1  H12A 8950   2.080   0.885   7.547  0.0777  1.2231  1.1354
   88CHL1  H12B 8951   2.009   1.032   7.463 -0.0123  1.4148  0.4434
   88CHL1   C11 8952   2.142   0.922   7.342 -0.3691  1.1537  0.8790
   88CHL1  H11A 8953   2.207   0.833   7.359 -1.5892  0.1094  0.1129
   88CHL1  H11B 8954   2.053   0.866   7.305 -0.1319  0.3879  1.4564
   88CHL1    C9 8955   2.215   1.032   7.251  0.1107 -0.0222  0.0982
   88CHL1    H9 8956   2.127   1.093   7.222  1.4951  2.5843  1.1708
   88CHL1   C10 8957   2.279   0.976   7.120  0.6894  0.0366  0.0223
   88CHL1   C19 8958   2.390   0.877   7.169  0.4041  0.2413 -0.1803
   88CHL1  H19A 8959   2.433   0.830   7.078 -0.6497 -1.6624  0.2641
   88CHL1  H19B 8960   2.462   0.925   7.238  1.1309 -1.5535  0.3448
   88CHL1  H19C 8961   2.334   0.793   7.215  0.3719  0.5148  0.2867
   88CHL1    C1 8962   2.169   0.903   7.036 -0.2163 -0.3518 -0.2331
   88CHL1   H1A 8963   2.135   0.813   7.091 -1.6331 -0.8483 -1.8843
   88CHL1   H1B 8964   2.084   0.971   7.012 -0.4164 -1.0016 -1.4035
   88CHL1    C2 8965   2.234   0.851   6.906  0.5170 -1.0303  0.4971
   88CHL1   H2A 8966   2.149   0.819   6.842  0.1244  2.0462 -0.5836
   88CHL1   H2B 8967   2.294   0.763   6.940 -1.3898 -1.9139  1.6810
   88CHL1   C20 8968   2.174   1.076   7.812 -0.8163 -0.2615  0.6434
   88CHL1   H20 8969   2.278   1.043   7.832 -0.4340  0.1700 -0.5831
   88CHL1   C21 8970   2.099   0.943   7.815  0.3811 -0.1370 -0.1583
   88CHL1  H21A 8971   1.999   0.958   7.769  0.1043  0.9164  0.7549
   88CHL1  H21B 8972   2.092   0.898   7.916 -1.6252 -0.6436 -0.4987
   88CHL1  H21C 8973   2.155   0.871   7.751  1.6608  0.9925 -0.3151
   88CHL1   C22 8974   2.137   1.175   7.932  0.3118  0.3101 -0.3200
   88CHL1  H22A 8975   2.173   1.278   7.909 -1.1071  0.8929  0.0384
   88CHL1  H22B 8976   2.027   1.181   7.940 -0.0769 -0.1009 -4.2978
   88CHL1   C23 8977   2.191   1.122   8.070 -0.0377 -0.6929  0.1877
   88CHL1  H23A 8978   2.145   1.025   8.098  1.4820 -0.7666  2.5792
   88CHL1  H23B 8979   2.300   1.112   8.052  0.0931 -0.1365  0.6446
   88CHL1   C24 8980   2.157   1.217   8.183 -0.2327  0.3929 -0.5240
   88CHL1  H24A 8981   2.212   1.311   8.160  0.2962  0.2817  0.2490
   88CHL1  H24B 8982   2.049   1.237   8.197 -0.2595  1.2059 -1.7686
   88CHL1   C25 8983   2.208   1.171   8.326  0.1311 -0.2193  0.0028
   88CHL1   H25 8984   2.294   1.102   8.310  0.2074  0.2073 -1.5118
   88CHL1   C26 8985   2.273   1.296   8.395  0.3093 -0.3009  0.9656
   88CHL1  H26A 8986   2.194   1.373   8.403  0.2991 -0.3603  1.4043
   88CHL1  H26B 8987   2.309   1.264   8.495  1.6862  1.6938  1.1300
   88CHL1  H26C 8988   2.358   1.335   8.334 -0.7221  1.4297  0.5946
   88CHL1   C27 8989   2.093   1.114   8.416 -0.3221  0.2453 -0.2149
   88CHL1  H27A 8990   2.034   1.200   8.454 -1.1481 -0.3624 -0.1057
   88CHL1  H27B 8991   2.020   1.043   8.370  1.8468 -1.4624 -1.0802
   88CHL1  H27C 8992   2.131   1.061   8.506  1.1194  1.1646 -0.2741
   89CHL1    C3 8993   5.438   3.421   6.985 -0.2358  0.1058 -0.6166
   89CHL1    H3 8994   5.480   3.336   7.043  0.0152 -0.0454 -1.0227
   89CHL1    O3 8995   5.454   3.391   6.849  0.8670 -0.3182 -0.5979
   89CHL1   H3' 8996   5.407   3.310   6.830 -0.1250 -0.1899  1.3076
   89CHL1    C4 8997   5.290   3.439   7.024 -0.6174  0.7015 -0.3875
   89CHL1   H4A 8998   5.250   3.512   6.950 -1.7608 -0.8479 -1.3273
   89CHL1   H4B 8999   5.243   3.340   7.008  0.9185 -0.0600 -0.2284
   89CHL1    C5 9000   5.280   3.468   7.176 -0.7059 -0.5192 -0.0917
   89CHL1    C6 9001   5.196   3.395   7.252 -0.0877 -0.1287 -0.2188
   89CHL1    H6 9002   5.128   3.322   7.208  0.7853 -1.4887  0.6338
   89CHL1    C7 9003   5.174   3.417   7.398 -0.8430  0.4168  0.0524
   89CHL1   H7A 9004   5.065   3.431   7.415 -0.6613  1.4033  0.4349
   89CHL1   H7B 9005   5.208   3.322   7.444 -1.4418  1.0343  1.7857
   89CHL1    C8 9006   5.250   3.538   7.455 -0.1938  0.2769  0.1140
   89CHL1    H8 9007   5.185   3.622   7.423 -1.1869 -0.3613  0.4399
   89CHL1   C14 9008   5.262   3.533   7.605  0.3956 -0.4014 -0.5147
   89CHL1   H14 9009   5.335   3.454   7.632 -0.1882 -0.6303  0.4446
   89CHL1   C15 9010   5.127   3.491   7.678 -0.9279  0.4627  0.1289
   89CHL1  H15A 9011   5.042   3.532   7.620  0.5648  0.9792 -1.7919
   89CHL1  H15B 9012   5.127   3.380   7.678  0.6665  0.4206  3.1619
   89CHL1   C16 9013   5.147   3.563   7.814 -0.4430  1.2032  0.1280
   89CHL1  H16A 9014   5.076   3.647   7.835  0.6707  1.7717  1.7047
   89CHL1  H16B 9015   5.142   3.495   7.901  0.2826  3.1894  1.7754
   89CHL1   C17 9016   5.298   3.622   7.822  0.8143  0.7045 -0.5413
   89CHL1   H17 9017   5.368   3.538   7.847 -1.5963 -0.9917  0.6825
   89CHL1   C13 9018   5.327   3.658   7.673  0.4481 -0.1538  0.9590
   89CHL1   C18 9019   5.237   3.782   7.634 -0.3014  0.0161 -0.3430
   89CHL1  H18A 9020   5.284   3.873   7.676  1.7810 -0.5107 -1.4471
   89CHL1  H18B 9021   5.236   3.789   7.523  2.0322 -0.5358 -0.4452
   89CHL1  H18C 9022   5.131   3.768   7.664  0.4768 -3.6007  0.9866
   89CHL1   C12 9023   5.471   3.673   7.620 -0.1532  0.0972 -0.2231
   89CHL1  H12A 9024   5.530   3.749   7.676  0.3559 -1.6325  1.6672
   89CHL1  H12B 9025   5.529   3.580   7.641 -1.0197 -0.4368 -0.1963
   89CHL1   C11 9026   5.474   3.679   7.465  0.2108 -0.4253 -0.2954
   89CHL1  H11A 9027   5.423   3.769   7.425 -0.6568 -1.6920 -2.0623
   89CHL1  H11B 9028   5.582   3.675   7.437  1.1741  1.6123  2.7821
   89CHL1    C9 9029   5.388   3.564   7.389 -0.2203 -0.1881  0.2029
   89CHL1    H9 9030   5.438   3.468   7.415  1.8309  1.1620  1.3070
   89CHL1   C10 9031   5.373   3.579   7.235 -0.2871 -0.3674  0.7608
   89CHL1   C19 9032   5.324   3.724   7.202 -0.1681 -0.0720  0.0420
   89CHL1  H19A 9033   5.225   3.750   7.245 -0.1845 -0.2138  0.0888
   89CHL1  H19B 9034   5.397   3.804   7.231  1.3934 -1.6898  0.6692
   89CHL1  H19C 9035   5.325   3.730   7.091  1.7100 -1.1924 -0.0147
   89CHL1    C1 9036   5.511   3.567   7.169  0.0035  0.7898  0.8137
   89CHL1   H1A 9037   5.588   3.639   7.202  1.6217 -0.2164 -0.6846
   89CHL1   H1B 9038   5.540   3.472   7.219 -1.0792  0.2208  0.3820
   89CHL1    C2 9039   5.515   3.548   7.019  0.0545  0.5061  0.5329
   89CHL1   H2A 9040   5.616   3.522   6.981  0.3605  0.5794  1.2790
   89CHL1   H2B 9041   5.471   3.629   6.957  0.4646  0.4366  0.1494
   89CHL1   C20 9042   5.319   3.722   7.934 -0.1993 -0.2966 -0.3559
   89CHL1   H20 9043   5.260   3.813   7.914  1.3666  0.5264 -1.2760
   89CHL1   C21 9044   5.463   3.767   7.936  0.3826 -0.5011  0.9374
   89CHL1  H21A 9045   5.528   3.680   7.960 -0.4527 -0.8402  1.9987
   89CHL1  H21B 9046   5.490   3.840   8.016  0.3182 -1.6259  1.9964
   89CHL1  H21C 9047   5.493   3.811   7.839 -2.8169  0.0992  0.1576
   89CHL1   C22 9048   5.279   3.672   8.077 -0.4330 -0.1029  0.2255
   89CHL1  H22A 9049   5.173   3.639   8.073 -0.7426  0.6251  2.2234
   89CHL1  H22B 9050   5.344   3.584   8.096 -0.9951 -0.3962  0.8129
   89CHL1   C23 9051   5.286   3.759   8.204  0.5155 -0.4818 -0.8065
   89CHL1  H23A 9052   5.389   3.791   8.229 -0.1486  1.0744  0.0670
   89CHL1  H23B 9053   5.227   3.851   8.183 -1.4613 -1.4370  0.4694
   89CHL1   C24 9054   5.227   3.690   8.325 -0.5206  0.5777 -0.6206
   89CHL1  H24A 9055   5.119   3.665   8.310 -0.5136  0.9784 -1.3728
   89CHL1  H24B 9056   5.274   3.591   8.338  0.6603  1.1036 -0.8322
   89CHL1   C25 9057   5.239   3.770   8.463 -0.1216 -0.0965  0.0577
   89CHL1   H25 9058   5.349   3.754   8.476 -0.1229  0.0542  0.2336
   89CHL1   C26 9059   5.206   3.915   8.445  0.3698  0.7139  0.4119
   89CHL1  H26A 9060   5.108   3.919   8.393 -0.4328  1.2161  1.9299
   89CHL1  H26B 9061   5.198   3.965   8.544  5.3071 -0.5527  1.6083
   89CHL1  H26C 9062   5.291   3.958   8.388  0.4683 -0.4271 -0.3350
   89CHL1   C27 9063   5.181   3.706   8.587  0.7710 -0.3973 -0.9241
   89CHL1  H27A 9064   5.218   3.756   8.679  2.1087  1.6538 -2.5523
   89CHL1  H27B 9065   5.071   3.689   8.582  0.2823  1.8057  1.5840
   89CHL1  H27C 9066   5.227   3.605   8.590 -0.2991 -0.8974 -0.8263
   90CHL1    C3 9067   5.308   5.256   6.995 -0.3999  0.9767 -0.1374
   90CHL1    H3 9068   5.221   5.325   7.002  1.0879  3.0084 -1.2533
   90CHL1    O3 9069   5.342   5.226   6.858  0.2531 -0.0870  0.3131
   90CHL1   H3' 9070   5.259   5.187   6.829  0.3240 -0.1913  0.2498
   90CHL1    C4 9071   5.425   5.328   7.061 -0.7705 -0.7854  0.0336
   90CHL1   H4A 9072   5.516   5.269   7.036 -0.2479 -0.3876  0.9663
   90CHL1   H4B 9073   5.449   5.418   7.000 -0.5825 -0.5321  0.4808
   90CHL1    C5 9074   5.411   5.355   7.213  0.4098  0.3616 -0.0167
   90CHL1    C6 9075   5.417   5.472   7.271 -0.0912 -0.4222  0.6948
   90CHL1    H6 9076   5.449   5.559   7.211 -0.8983 -0.0128  0.8489
   90CHL1    C7 9077   5.403   5.501   7.416  0.4628  0.1346 -0.3862
   90CHL1   H7A 9078   5.478   5.581   7.435  0.9562  0.3928 -3.2148
   90CHL1   H7B 9079   5.306   5.551   7.435  0.6571 -0.0197  1.0837
   90CHL1    C8 9080   5.413   5.372   7.508  0.3421 -0.4293  0.2810
   90CHL1    H8 9081   5.518   5.338   7.520  0.9239  2.0070  2.4362
   90CHL1   C14 9082   5.369   5.402   7.646 -0.3974 -0.4582 -0.6737
   90CHL1   H14 9083   5.262   5.431   7.634 -0.2509  0.9138  1.1433
   90CHL1   C15 9084   5.440   5.513   7.721  0.0410  0.6847  0.1942
   90CHL1  H15A 9085   5.548   5.494   7.706  0.1606 -0.0790  1.8640
   90CHL1  H15B 9086   5.419   5.613   7.678 -1.5646  1.2950  2.2713
   90CHL1   C16 9087   5.391   5.493   7.862 -0.9091 -0.2188  0.3933
   90CHL1  H16A 9088   5.474   5.482   7.936  0.3174 -1.2901 -1.0992
   90CHL1  H16B 9089   5.329   5.577   7.900  1.1370  0.2823  2.7843
   90CHL1   C17 9090   5.323   5.349   7.866 -0.0865 -0.3188 -0.0809
   90CHL1   H17 9091   5.217   5.372   7.844 -0.0116 -1.6834 -2.0113
   90CHL1   C13 9092   5.372   5.280   7.736 -0.7477  0.7135  1.4499
   90CHL1   C18 9093   5.508   5.218   7.757  0.6893 -0.8417  0.1824
   90CHL1  H18A 9094   5.498   5.130   7.824 -0.0667 -0.9206 -0.0290
   90CHL1  H18B 9095   5.562   5.182   7.666  0.8656 -0.7083  0.2329
   90CHL1  H18C 9096   5.582   5.282   7.809  2.0171 -3.2962  1.4085
   90CHL1   C12 9097   5.274   5.178   7.670 -0.8637 -0.4842  0.0104
   90CHL1  H12A 9098   5.252   5.084   7.725 -1.3847 -1.0898 -1.2339
   90CHL1  H12B 9099   5.177   5.233   7.672  0.3314  1.6517  1.1636
   90CHL1   C11 9100   5.301   5.137   7.526  0.0374  0.3284 -0.5948
   90CHL1  H11A 9101   5.371   5.051   7.517  0.5498  0.5770  0.9106
   90CHL1  H11B 9102   5.209   5.088   7.488 -0.1359  2.3095 -2.9055
   90CHL1    C9 9103   5.332   5.255   7.439  0.4938  0.2035 -1.0068
   90CHL1    H9 9104   5.234   5.306   7.433  1.2856  2.1627  1.7316
   90CHL1   C10 9105   5.362   5.230   7.288 -0.5411  0.6517  0.3095
   90CHL1   C19 9106   5.490   5.136   7.298 -0.6656  0.1560  0.1514
   90CHL1  H19A 9107   5.543   5.117   7.202 -0.3862  0.8286  0.1716
   90CHL1  H19B 9108   5.565   5.172   7.371  0.5253 -2.1456  0.1308
   90CHL1  H19C 9109   5.455   5.035   7.330  2.3158 -0.7124  0.8459
   90CHL1    C1 9110   5.246   5.158   7.215  0.7592  0.1239 -0.3083
   90CHL1   H1A 9111   5.220   5.064   7.269  2.4702 -0.6721 -0.8368
   90CHL1   H1B 9112   5.158   5.224   7.228  0.5393 -0.6174  2.2908
   90CHL1    C2 9113   5.276   5.125   7.066  0.4778  0.0759 -0.3532
   90CHL1   H2A 9114   5.178   5.099   7.022  0.3985  1.5061 -1.0650
   90CHL1   H2B 9115   5.355   5.050   7.043  1.0730  1.0029 -1.4087
   90CHL1   C20 9116   5.324   5.274   7.997 -0.5243 -0.6502  0.1809
   90CHL1   H20 9117   5.431   5.253   8.018 -0.5357 -0.3688  0.5240
   90CHL1   C21 9118   5.239   5.145   7.993  0.1807 -0.1640  0.5863
   90CHL1  H21A 9119   5.288   5.083   7.915  0.7140  1.0759 -0.0756
   90CHL1  H21B 9120   5.138   5.182   7.964 -1.2124 -2.6335  1.9998
   90CHL1  H21C 9121   5.245   5.094   8.092  2.1107 -0.9420  0.0863
   90CHL1   C22 9122   5.280   5.367   8.119 -0.6322  0.0466  1.1868
   90CHL1  H22A 9123   5.293   5.475   8.095  2.5478 -1.1050 -2.9554
   90CHL1  H22B 9124   5.171   5.348   8.127 -0.6202 -0.2118  0.7610
   90CHL1   C23 9125   5.365   5.346   8.250 -0.5323  0.5253 -0.0274
   90CHL1  H23A 9126   5.350   5.242   8.287  1.6132  0.3629  0.4275
   90CHL1  H23B 9127   5.472   5.367   8.228 -0.0286 -2.6061 -0.7583
   90CHL1   C24 9128   5.305   5.429   8.356 -0.9875 -0.2486 -0.3033
   90CHL1  H24A 9129   5.336   5.532   8.329 -4.2080  0.3514 -1.9680
   90CHL1  H24B 9130   5.194   5.420   8.355 -1.0803  0.8056 -1.1392
   90CHL1   C25 9131   5.357   5.407   8.497 -0.0138 -1.1587 -0.2379
   90CHL1   H25 9132   5.468   5.409   8.503  0.1103 -3.1024 -1.4364
   90CHL1   C26 9133   5.305   5.514   8.602  0.0187 -0.5465 -0.4924
   90CHL1  H26A 9134   5.368   5.503   8.692  0.8230  3.6981 -0.4617
   90CHL1  H26B 9135   5.309   5.619   8.566 -0.5282  0.6323  2.6785
   90CHL1  H26C 9136   5.201   5.493   8.636 -0.1256 -0.3410 -0.8058
   90CHL1   C27 9137   5.324   5.259   8.550 -0.1397 -0.4890  0.4098
   90CHL1  H27A 9138   5.393   5.188   8.499 -1.6578  0.4089 -3.0547
   90CHL1  H27B 9139   5.351   5.251   8.657  1.7917  1.3132  0.0844
   90CHL1  H27C 9140   5.215   5.239   8.541 -0.3359  1.1125 -0.8550
   91CHL1    C3 9141   6.371   6.713   7.302  0.6786  0.5380  0.0940
   91CHL1    H3 9142   6.405   6.819   7.305 -0.2255  0.9614 -2.4355
   91CHL1    O3 9143   6.338   6.681   7.167 -0.0927 -0.0795 -0.0511
   91CHL1   H3' 9144   6.318   6.588   7.172  0.7853 -0.3039 -0.5310
   91CHL1    C4 9145   6.488   6.623   7.345 -0.9121  0.2937  0.3286
   91CHL1   H4A 9146   6.461   6.517   7.326 -0.8488  0.2069  0.7240
   91CHL1   H4B 9147   6.565   6.656   7.272 -1.4040  0.8258  0.0473
   91CHL1    C5 9148   6.521   6.640   7.488 -0.5677 -0.0080 -1.1482
   91CHL1    C6 9149   6.646   6.676   7.531 -0.0202 -0.7706  0.8164
   91CHL1    H6 9150   6.727   6.682   7.456 -0.1782  1.4537  0.7960
   91CHL1    C7 9151   6.691   6.683   7.675 -0.5624  0.0051  0.4751
   91CHL1   H7A 9152   6.793   6.642   7.692 -0.3335  0.4786  0.2169
   91CHL1   H7B 9153   6.685   6.787   7.713 -0.1053 -0.3895  1.6422
   91CHL1    C8 9154   6.589   6.607   7.762  0.7874 -0.1289  0.3903
   91CHL1    H8 9155   6.606   6.500   7.739  0.6529  0.4341 -2.4526
   91CHL1   C14 9156   6.607   6.637   7.902 -0.3761 -0.7104 -0.2215
   91CHL1   H14 9157   6.591   6.746   7.913  1.2355 -0.6463  1.6079
   91CHL1   C15 9158   6.749   6.615   7.963 -0.8631  0.0247 -0.3217
   91CHL1  H15A 9159   6.784   6.514   7.933  1.5859  1.0735 -1.0665
   91CHL1  H15B 9160   6.818   6.695   7.929 -0.0026  0.1144  1.5733
   91CHL1   C16 9161   6.724   6.600   8.112  0.0544  0.2614 -0.1210
   91CHL1  H16A 9162   6.757   6.502   8.151 -2.3452 -0.3291  0.4839
   91CHL1  H16B 9163   6.769   6.689   8.162 -0.9458  0.4862  0.3994
   91CHL1   C17 9164   6.574   6.616   8.134  0.9046  0.3711  0.2838
   91CHL1   H17 9165   6.560   6.726   8.132 -1.0607  0.1197 -1.9752
   91CHL1   C13 9166   6.509   6.571   8.001 -0.4761 -0.1071 -0.3258
   91CHL1   C18 9167   6.515   6.418   7.988 -0.3371 -1.0066  0.5690
   91CHL1  H18A 9168   6.618   6.376   7.998  0.2392  0.6489  1.8112
   91CHL1  H18B 9169   6.448   6.365   8.059 -0.6906 -1.9107 -0.4352
   91CHL1  H18C 9170   6.478   6.390   7.887  0.0178 -2.8811  0.9329
   91CHL1   C12 9171   6.363   6.620   7.977  0.4863 -0.8970  0.2864
   91CHL1  H12A 9172   6.289   6.567   8.041 -0.9679  1.7836  0.9374
   91CHL1  H12B 9173   6.357   6.730   7.994 -4.6214 -0.8150 -1.1772
   91CHL1   C11 9174   6.334   6.596   7.829 -0.0307  0.1850  0.3585
   91CHL1  H11A 9175   6.325   6.486   7.818 -1.6958  0.3815 -0.2820
   91CHL1  H11B 9176   6.237   6.646   7.811  0.6990  1.1731 -0.8812
   91CHL1    C9 9177   6.445   6.643   7.724  1.1376  0.2742 -0.0219
   91CHL1    H9 9178   6.432   6.753   7.734  0.7044  0.0631  1.8008
   91CHL1   C10 9179   6.402   6.609   7.581  0.1465 -0.4235  0.4188
   91CHL1   C19 9180   6.366   6.460   7.574 -0.4418 -0.3991  0.4919
   91CHL1  H19A 9181   6.439   6.400   7.632  1.0498  1.0468  0.1291
   91CHL1  H19B 9182   6.260   6.436   7.599 -0.1630 -0.2160  1.8844
   91CHL1  H19C 9183   6.375   6.421   7.471 -2.6029 -2.2362  0.9530
   91CHL1    C1 9184   6.286   6.691   7.537  0.1661 -0.5521  0.1919
   91CHL1   H1A 9185   6.198   6.672   7.602  1.5600 -0.4430  2.1860
   91CHL1   H1B 9186   6.310   6.795   7.568 -2.3837 -0.2473  1.2758
   91CHL1    C2 9187   6.248   6.690   7.395  0.9946 -0.0225 -0.4548
   91CHL1   H2A 9188   6.160   6.752   7.366 -0.3070  0.2936  3.8673
   91CHL1   H2B 9189   6.221   6.583   7.380 -1.7531  0.5027  0.4646
   91CHL1   C20 9190   6.525   6.563   8.271  0.0522 -0.4629 -0.0792
   91CHL1   H20 9191   6.416   6.544   8.266  0.1672 -1.1634  0.0494
   91CHL1   C21 9192   6.553   6.678   8.373  0.1091 -0.0888 -0.8808
   91CHL1  H21A 9193   6.511   6.645   8.471 -0.5270 -2.6627 -1.9848
   91CHL1  H21B 9194   6.493   6.765   8.337  1.1499  0.4388 -1.3554
   91CHL1  H21C 9195   6.661   6.702   8.382  0.1651 -0.5848 -0.2069
   91CHL1   C22 9196   6.584   6.434   8.324  0.7556  0.3028  0.7186
   91CHL1  H22A 9197   6.570   6.357   8.245  0.8014 -0.0642  1.0661
   91CHL1  H22B 9198   6.693   6.437   8.348  0.2193 -0.1545  3.3406
   91CHL1   C23 9199   6.509   6.368   8.446  0.0599  0.1508  0.1819
   91CHL1  H23A 9200   6.498   6.450   8.520 -2.0642  0.4744 -0.4576
   91CHL1  H23B 9201   6.409   6.333   8.411  0.2980  0.3131 -0.6667
   91CHL1   C24 9202   6.589   6.242   8.483 -0.0281  0.0858  0.2938
   91CHL1  H24A 9203   6.600   6.176   8.394 -1.4878 -2.2265  1.7774
   91CHL1  H24B 9204   6.684   6.287   8.517 -0.6012  4.0922 -2.9844
   91CHL1   C25 9205   6.529   6.154   8.593  0.0533 -0.5603  0.2957
   91CHL1   H25 9206   6.433   6.110   8.560  1.0244 -3.9235  1.7688
   91CHL1   C26 9207   6.618   6.032   8.634 -0.2184 -0.1947  0.4547
   91CHL1  H26A 9208   6.621   5.973   8.540 -2.1205  0.0788  0.1938
   91CHL1  H26B 9209   6.721   6.067   8.655  0.4256 -1.6325 -0.3045
   91CHL1  H26C 9210   6.570   5.985   8.722  0.7002  0.8438  1.5221
   91CHL1   C27 9211   6.487   6.240   8.713  0.5718 -0.6912  0.1531
   91CHL1  H27A 9212   6.468   6.186   8.809 -0.1266  0.4177  0.6490
   91CHL1  H27B 9213   6.573   6.309   8.726 -0.3406  0.3487  0.8325
   91CHL1  H27C 9214   6.399   6.302   8.683 -0.3049 -1.8559  0.2635
   92CHL1    C3 9215   2.483   2.233   6.833  0.9193 -0.0235  0.3119
   92CHL1    H3 9216   2.568   2.163   6.848  1.3544  0.4340 -0.0240
   92CHL1    O3 9217   2.469   2.270   6.697 -0.6301  0.1038  0.0470
   92CHL1   H3' 9218   2.386   2.317   6.701 -1.0326 -0.7488  1.7758
   92CHL1    C4 9219   2.352   2.172   6.884  0.1888 -0.5269  0.3546
   92CHL1   H4A 9220   2.266   2.238   6.860 -0.1438 -0.6944  1.0985
   92CHL1   H4B 9221   2.331   2.080   6.825  0.7449 -0.5408  0.1713
   92CHL1    C5 9222   2.361   2.150   7.033 -0.8996  0.4278 -0.3599
   92CHL1    C6 9223   2.333   2.032   7.082  0.3970 -0.7088 -0.3869
   92CHL1    H6 9224   2.303   1.943   7.025 -0.4946 -0.6510 -0.0149
   92CHL1    C7 9225   2.330   2.001   7.227  0.3069 -0.5886  0.2462
   92CHL1   H7A 9226   2.226   1.963   7.238 -0.4727  0.3520 -3.2395
   92CHL1   H7B 9227   2.404   1.925   7.259 -1.0612 -1.9698  0.2003
   92CHL1    C8 9228   2.341   2.128   7.316  0.0513 -0.3250 -0.7748
   92CHL1    H8 9229   2.243   2.178   7.309  0.7293  1.0786 -0.3911
   92CHL1   C14 9230   2.373   2.083   7.464 -0.4622 -0.5763  0.3809
   92CHL1   H14 9231   2.479   2.051   7.458  0.9739  3.5179  2.1582
   92CHL1   C15 9232   2.308   1.958   7.527 -0.4075 -0.3419  0.2599
   92CHL1  H15A 9233   2.200   1.979   7.506  0.0655  0.4226 -1.5321
   92CHL1  H15B 9234   2.343   1.865   7.479  3.3067  1.7627 -1.3399
   92CHL1   C16 9235   2.339   1.977   7.677  0.2973  0.3309 -0.4969
   92CHL1  H16A 9236   2.241   1.976   7.730  0.5049 -0.9153 -0.1117
   92CHL1  H16B 9237   2.407   1.898   7.715  2.1811  1.8454 -0.6161
   92CHL1   C17 9238   2.420   2.115   7.694  0.2418  0.0254  0.6604
   92CHL1   H17 9239   2.527   2.083   7.703  0.3431  0.4239  0.8866
   92CHL1   C13 9240   2.385   2.185   7.567  0.2131 -0.0788 -0.5480
   92CHL1   C18 9241   2.252   2.254   7.582  0.2336 -0.2396  0.4188
   92CHL1  H18A 9242   2.261   2.331   7.662  1.4565  0.5102 -0.4151
   92CHL1  H18B 9243   2.235   2.315   7.490  0.4554  0.8068  1.0585
   92CHL1  H18C 9244   2.168   2.186   7.609 -0.4280  0.0937 -0.7415
   92CHL1   C12 9245   2.500   2.286   7.515  1.2652 -0.1323  0.0653
   92CHL1  H12A 9246   2.486   2.372   7.585 -1.2252  0.7651 -1.4508
   92CHL1  H12B 9247   2.597   2.233   7.516  1.1766 -0.3076 -0.5929
   92CHL1   C11 9248   2.474   2.338   7.365 -0.1382  0.6606 -0.6940
   92CHL1  H11A 9249   2.378   2.393   7.368 -0.6105 -0.2499  1.7979
   92CHL1  H11B 9250   2.559   2.401   7.328  0.1001 -0.6971 -2.5424
   92CHL1    C9 9251   2.445   2.221   7.262  0.6119  0.2151 -0.2550
   92CHL1    H9 9252   2.543   2.170   7.252  1.1390  1.2945 -0.7477
   92CHL1   C10 9253   2.405   2.272   7.122  0.7497  0.0201 -0.2243
   92CHL1   C19 9254   2.289   2.371   7.132 -0.3145 -0.5164 -0.5555
   92CHL1  H19A 9255   2.239   2.393   7.036 -0.8044 -0.6705 -0.3371
   92CHL1  H19B 9256   2.202   2.335   7.191  0.0690  1.7941  1.4853
   92CHL1  H19C 9257   2.320   2.473   7.164  1.2538 -0.4191 -2.2826
   92CHL1    C1 9258   2.531   2.324   7.056 -0.1402 -1.1210  0.2773
   92CHL1   H1A 9259   2.574   2.409   7.112  0.5198 -1.8370  0.8613
   92CHL1   H1B 9260   2.603   2.240   7.067 -1.1612 -2.1559 -0.7557
   92CHL1    C2 9261   2.517   2.361   6.907 -0.0703 -0.5727 -0.2506
   92CHL1   H2A 9262   2.610   2.404   6.865 -0.4334  0.4519 -0.0108
   92CHL1   H2B 9263   2.441   2.441   6.892  0.6664 -0.3363 -2.9825
   92CHL1   C20 9264   2.388   2.175   7.832  0.0971 -0.0449 -0.8851
   92CHL1   H20 9265   2.280   2.197   7.850  0.6773  2.1448  0.1900
   92CHL1   C21 9266   2.475   2.301   7.856 -0.0298 -0.5845  0.2903
   92CHL1  H21A 9267   2.429   2.377   7.789 -2.2362 -1.0740  1.1927
   92CHL1  H21B 9268   2.585   2.300   7.840  0.0147 -0.1857  0.5792
   92CHL1  H21C 9269   2.461   2.339   7.959  0.9828 -2.8555  1.3030
   92CHL1   C22 9270   2.421   2.068   7.940  0.2379 -0.7145  0.3477
   92CHL1  H22A 9271   2.383   1.968   7.909 -0.7563 -0.2798  0.1739
   92CHL1  H22B 9272   2.531   2.057   7.953  0.3849  0.5917  0.2126
   92CHL1   C23 9273   2.365   2.097   8.086  0.0659  0.8577 -0.0015
   92CHL1  H23A 9274   2.400   2.194   8.128 -1.3025  2.1245 -1.7518
   92CHL1  H23B 9275   2.255   2.092   8.090  0.1835 -0.6175  2.4748
   92CHL1   C24 9276   2.403   1.985   8.189 -0.2952  0.1245  0.6984
   92CHL1  H24A 9277   2.352   2.007   8.285  0.4870 -1.3528  1.4817
   92CHL1  H24B 9278   2.360   1.894   8.143 -0.2167  0.2319  0.4148
   92CHL1   C25 9279   2.553   1.970   8.220  0.0376 -0.3261 -0.7704
   92CHL1   H25 9280   2.603   1.927   8.130  1.9799  0.5962 -0.1593
   92CHL1   C26 9281   2.615   2.107   8.249 -0.1824  0.3596  0.1593
   92CHL1  H26A 9282   2.620   2.175   8.161  1.5173 -1.2689 -1.0618
   92CHL1  H26B 9283   2.558   2.152   8.333 -0.4071  1.3376 -0.5076
   92CHL1  H26C 9284   2.713   2.090   8.298 -1.2013 -0.3307  2.0105
   92CHL1   C27 9285   2.576   1.875   8.341  0.3854 -0.3447 -0.5015
   92CHL1  H27A 9286   2.539   1.771   8.333  2.7463 -1.5933  3.2022
   92CHL1  H27B 9287   2.686   1.868   8.356  0.4572  0.3684 -0.6873
   92CHL1  H27C 9288   2.537   1.926   8.431  1.4758 -0.4603  0.0458
   93CHL1    C3 9289   1.528   6.008   7.082 -0.2602  0.0338  0.1226
   93CHL1    H3 9290   1.630   5.965   7.090 -0.0142  0.5572 -0.1130
   93CHL1    O3 9291   1.500   5.977   6.943 -0.2753 -0.0110 -0.2495
   93CHL1   H3' 9292   1.408   5.953   6.937 -0.0357 -0.8376 -0.7469
   93CHL1    C4 9293   1.429   5.928   7.169 -0.5512 -0.3560  0.4049
   93CHL1   H4A 9294   1.324   5.961   7.151 -0.3533 -0.7188 -1.4879
   93CHL1   H4B 9295   1.432   5.823   7.135 -0.9081 -0.5285  0.9080
   93CHL1    C5 9296   1.457   5.952   7.316  0.7655 -0.5370  0.0702
   93CHL1    C6 9297   1.489   5.850   7.388  0.4702 -0.4066 -0.1695
   93CHL1    H6 9298   1.492   5.747   7.349  0.8233  0.9468 -3.8523
   93CHL1    C7 9299   1.526   5.867   7.535  1.0102  0.3458 -0.7649
   93CHL1   H7A 9300   1.500   5.789   7.609  2.3566  0.8149  0.2185
   93CHL1   H7B 9301   1.636   5.879   7.543  1.0365  0.6085 -1.4952
   93CHL1    C8 9302   1.477   6.003   7.596  0.4344  0.0637  0.2469
   93CHL1    H8 9303   1.369   5.996   7.622  0.7404  1.1449  1.9135
   93CHL1   C14 9304   1.560   6.029   7.726 -0.7517 -0.4902  0.4887
   93CHL1   H14 9305   1.662   6.044   7.686 -1.4120 -0.6409 -1.3103
   93CHL1   C15 9306   1.563   5.917   7.838 -0.2387  0.0921  0.2721
   93CHL1  H15A 9307   1.465   5.868   7.857  0.5917 -1.3176  0.9406
   93CHL1  H15B 9308   1.644   5.841   7.831  0.2883  0.8293 -1.9405
   93CHL1   C16 9309   1.604   5.993   7.968 -0.0299 -0.3854  0.1834
   93CHL1  H16A 9310   1.537   5.966   8.052 -0.4648 -2.0160 -0.6610
   93CHL1  H16B 9311   1.705   5.955   7.994 -0.2706 -0.5868  0.8422
   93CHL1   C17 9312   1.598   6.145   7.937 -0.1556  0.5722 -0.3578
   93CHL1   H17 9313   1.702   6.177   7.915 -0.1275  0.7310  0.0006
   93CHL1   C13 9314   1.517   6.158   7.804  0.3811  0.2596 -0.7769
   93CHL1   C18 9315   1.366   6.143   7.837  0.1778 -0.2751  0.0713
   93CHL1  H18A 9316   1.305   6.170   7.748  0.7759 -0.2393 -0.3280
   93CHL1  H18B 9317   1.337   6.038   7.856  0.8937 -0.1732  1.8167
   93CHL1  H18C 9318   1.343   6.209   7.924 -1.3891 -0.3371 -0.2876
   93CHL1   C12 9319   1.556   6.279   7.709  0.5458 -0.4044 -0.0316
   93CHL1  H12A 9320   1.509   6.370   7.752  0.8193 -0.3223  0.0929
   93CHL1  H12B 9321   1.663   6.303   7.696  0.7874 -1.3167  0.2311
   93CHL1   C11 9322   1.495   6.263   7.569  0.5984 -0.0534 -0.4675
   93CHL1  H11A 9323   1.385   6.276   7.573  0.4094 -1.8191  0.6334
   93CHL1  H11B 9324   1.542   6.343   7.507  1.6166  0.4808  0.9733
   93CHL1    C9 9325   1.512   6.121   7.506 -0.4803  0.4804 -0.5732
   93CHL1    H9 9326   1.621   6.106   7.490 -0.3759 -0.6238  1.0168
   93CHL1   C10 9327   1.457   6.099   7.360  0.4552  0.5232 -0.1335
   93CHL1   C19 9328   1.311   6.143   7.355  0.2623 -0.1363  0.4226
   93CHL1  H19A 9329   1.274   6.140   7.251 -1.4417  1.3725  0.9654
   93CHL1  H19B 9330   1.246   6.093   7.429  1.9568 -0.9490  1.3993
   93CHL1  H19C 9331   1.307   6.254   7.364  1.1382 -0.1698  1.3861
   93CHL1    C1 9332   1.556   6.184   7.270  0.1421  0.6109 -0.8476
   93CHL1   H1A 9333   1.562   6.294   7.282 -4.3020  0.9915 -1.4885
   93CHL1   H1B 9334   1.658   6.141   7.281  0.2190  1.0192  0.1045
   93CHL1    C2 9335   1.523   6.155   7.117 -0.6042 -0.3662  0.5257
   93CHL1   H2A 9336   1.612   6.204   7.071  0.3317 -2.9015 -0.4482
   93CHL1   H2B 9337   1.430   6.210   7.093 -0.2084 -0.5837 -1.5459
   93CHL1   C20 9338   1.555   6.222   8.069  0.3229  0.0445 -0.5553
   93CHL1   H20 9339   1.448   6.198   8.086 -0.0604  1.4460 -0.9743
   93CHL1   C21 9340   1.560   6.372   8.035  0.3068  0.7378  0.4056
   93CHL1  H21A 9341   1.494   6.396   7.949  0.0225  0.4850  0.5500
   93CHL1  H21B 9342   1.662   6.412   8.015  1.3038 -1.0222  1.8187
   93CHL1  H21C 9343   1.531   6.435   8.122 -1.0087  2.2767 -1.1101
   93CHL1   C22 9344   1.638   6.190   8.203  1.0709 -0.1178 -0.4484
   93CHL1  H22A 9345   1.585   6.234   8.291  0.7077 -1.1027 -0.1687
   93CHL1  H22B 9346   1.635   6.079   8.201 -0.6844 -0.1245  0.5046
   93CHL1   C23 9347   1.783   6.239   8.201  0.6062 -0.0067  0.2728
   93CHL1  H23A 9348   1.830   6.181   8.118  0.4017 -0.7018  0.6446
   93CHL1  H23B 9349   1.776   6.347   8.176 -3.7986 -0.0226  1.0381
   93CHL1   C24 9350   1.865   6.237   8.326  0.2590  0.8080 -0.7013
   93CHL1  H24A 9351   1.808   6.284   8.409 -0.8560 -1.2085 -0.2932
   93CHL1  H24B 9352   1.892   6.133   8.354 -2.7946  0.5339  1.5288
   93CHL1   C25 9353   1.987   6.340   8.325 -0.4545  0.0546  0.1210
   93CHL1   H25 9354   2.058   6.322   8.409  0.8424 -0.1828 -0.9898
   93CHL1   C26 9355   2.074   6.315   8.201 -0.1898  0.4341  0.3439
   93CHL1  H26A 9356   2.169   6.369   8.224 -0.0157  0.4478 -0.4039
   93CHL1  H26B 9357   2.101   6.207   8.198  1.5584  0.8492  0.8109
   93CHL1  H26C 9358   2.032   6.358   8.107  2.8969  2.2632 -0.2700
   93CHL1   C27 9359   1.954   6.492   8.334  0.5661  0.4181  0.4307
   93CHL1  H27A 9360   2.041   6.561   8.339  0.2675  0.8455 -0.3196
   93CHL1  H27B 9361   1.893   6.519   8.245 -0.2721 -1.0352  0.5452
   93CHL1  H27C 9362   1.906   6.507   8.433  1.2169  0.4179  0.7519
   94CHL1    C3 9363   3.425   2.677   6.803  0.1714  0.5215  0.8995
   94CHL1    H3 9364   3.369   2.773   6.804 -0.0330  0.4808 -1.8145
   94CHL1    O3 9365   3.451   2.636   6.671  0.2944  0.6165  0.3304
   94CHL1   H3' 9366   3.538   2.597   6.664  0.2608  0.5601  0.2268
   94CHL1    C4 9367   3.559   2.691   6.879 -0.2441 -0.2512  0.1305
   94CHL1   H4A 9368   3.609   2.593   6.888 -0.8782 -0.4198  2.0288
   94CHL1   H4B 9369   3.627   2.763   6.828 -0.0576 -1.3367 -1.1884
   94CHL1    C5 9370   3.531   2.732   7.026 -0.0657  1.0988 -0.0628
   94CHL1    C6 9371   3.568   2.850   7.070 -0.3987 -0.3599  0.7648
   94CHL1    H6 9372   3.641   2.903   7.007 -1.5440  0.3496  0.0290
   94CHL1    C7 9373   3.540   2.911   7.208 -0.7796 -1.2255  0.4875
   94CHL1   H7A 9374   3.627   2.962   7.255  0.4459 -0.0411 -2.9500
   94CHL1   H7B 9375   3.465   2.991   7.192 -0.1123 -0.9156 -1.1371
   94CHL1    C8 9376   3.486   2.797   7.301  0.4530  0.0087 -0.1872
   94CHL1    H8 9377   3.573   2.734   7.330  1.4506  0.8820 -1.2170
   94CHL1   C14 9378   3.413   2.855   7.419 -0.0845 -0.2562 -0.0938
   94CHL1   H14 9379   3.328   2.909   7.370 -1.0204 -0.6482  1.0887
   94CHL1   C15 9380   3.483   2.953   7.503  0.0397  0.1341 -0.4465
   94CHL1  H15A 9381   3.589   2.924   7.520  0.1992  1.5686  1.1960
   94CHL1  H15B 9382   3.491   3.055   7.461 -3.0882 -0.5583 -2.9117
   94CHL1   C16 9383   3.421   2.954   7.645 -0.3648  0.3261  0.9505
   94CHL1  H16A 9384   3.497   2.939   7.725 -1.3974 -0.7961  1.7455
   94CHL1  H16B 9385   3.355   3.039   7.672 -1.4410 -0.8247  2.0010
   94CHL1   C17 9386   3.316   2.840   7.637 -0.8217 -1.0129  0.1476
   94CHL1   H17 9387   3.214   2.880   7.618  0.6324  2.0638 -1.4999
   94CHL1   C13 9388   3.355   2.750   7.511  0.4296  0.1428  0.2817
   94CHL1   C18 9389   3.454   2.643   7.549  0.2999 -1.0228 -0.1592
   94CHL1  H18A 9390   3.504   2.598   7.460  0.2443  2.2972 -1.9960
   94CHL1  H18B 9391   3.530   2.691   7.614 -0.5767 -0.0985  0.2014
   94CHL1  H18C 9392   3.406   2.562   7.607  0.0818 -1.4323 -0.9082
   94CHL1   C12 9393   3.234   2.683   7.437 -0.1900 -0.8891  0.1983
   94CHL1  H12A 9394   3.190   2.600   7.496 -0.3482 -0.3935  0.7826
   94CHL1  H12B 9395   3.164   2.767   7.420  0.7466 -0.4301 -1.5098
   94CHL1   C11 9396   3.282   2.617   7.309 -0.6716 -0.3659 -0.1991
   94CHL1  H11A 9397   3.335   2.524   7.339  0.9967 -0.6817 -3.7953
   94CHL1  H11B 9398   3.192   2.579   7.255 -1.7402 -0.3437  1.5260
   94CHL1    C9 9399   3.374   2.712   7.226 -0.2330 -0.4829  0.0115
   94CHL1    H9 9400   3.297   2.788   7.201  0.9793  0.3551 -1.2035
   94CHL1   C10 9401   3.433   2.642   7.101 -0.0045 -0.1964 -0.3244
   94CHL1   C19 9402   3.512   2.521   7.142 -0.5594 -0.2164  0.0677
   94CHL1  H19A 9403   3.459   2.443   7.201  2.0544 -0.4151  2.2699
   94CHL1  H19B 9404   3.540   2.468   7.049 -2.1534  1.5311 -1.4414
   94CHL1  H19C 9405   3.611   2.549   7.185  0.0321  0.0440 -1.4358
   94CHL1    C1 9406   3.309   2.600   7.016 -0.1134 -0.4688  0.3547
   94CHL1   H1A 9407   3.259   2.510   7.057  1.2153 -2.1464 -1.6069
   94CHL1   H1B 9408   3.236   2.683   7.027 -1.5990 -1.9492  2.1367
   94CHL1    C2 9409   3.334   2.574   6.864  0.5591 -0.2079 -0.7229
   94CHL1   H2A 9410   3.235   2.570   6.814  0.4219  2.3452 -0.7138
   94CHL1   H2B 9411   3.376   2.471   6.855  0.0909 -0.3559 -1.2878
   94CHL1   C20 9412   3.301   2.767   7.773  0.1616  0.5224 -0.6074
   94CHL1   H20 9413   3.395   2.720   7.809 -2.1554 -3.1684  0.9023
   94CHL1   C21 9414   3.198   2.656   7.767 -0.1672 -0.2565 -0.2006
   94CHL1  H21A 9415   3.098   2.680   7.724  0.4588  1.3830 -0.7975
   94CHL1  H21B 9416   3.179   2.614   7.868 -1.6723  2.2804  0.6148
   94CHL1  H21C 9417   3.238   2.572   7.707  0.1123 -0.3624  0.1353
   94CHL1   C22 9418   3.260   2.875   7.879 -0.0980 -0.2522 -0.6509
   94CHL1  H22A 9419   3.311   2.973   7.869 -4.8320  2.4748  0.4179
   94CHL1  H22B 9420   3.153   2.898   7.861 -0.2501 -1.3412 -1.1861
   94CHL1   C23 9421   3.285   2.822   8.019 -0.1999  0.7007 -0.5187
   94CHL1  H23A 9422   3.228   2.728   8.037 -2.0347  1.6084 -1.5087
   94CHL1  H23B 9423   3.390   2.789   8.035 -0.3460 -1.1702 -3.0392
   94CHL1   C24 9424   3.235   2.912   8.126  0.4384 -0.0920  0.1295
   94CHL1  H24A 9425   3.292   3.007   8.112  2.1504 -1.2951 -1.2010
   94CHL1  H24B 9426   3.129   2.942   8.112  1.0312  1.9656 -0.1422
   94CHL1   C25 9427   3.257   2.860   8.270  0.0721  0.1547 -1.5297
   94CHL1   H25 9428   3.365   2.874   8.293 -0.5585  1.4738  0.7112
   94CHL1   C26 9429   3.173   2.948   8.363  0.4530  0.2089 -0.1330
   94CHL1  H26A 9430   3.172   3.056   8.341  2.2472  0.6015  1.6150
   94CHL1  H26B 9431   3.069   2.908   8.354  0.9130 -1.2783  0.9228
   94CHL1  H26C 9432   3.209   2.940   8.467  0.1853 -0.5087 -0.0900
   94CHL1   C27 9433   3.224   2.714   8.287  0.3083 -0.1444  0.2114
   94CHL1  H27A 9434   3.211   2.691   8.395  1.4142  0.6513  0.5208
   94CHL1  H27B 9435   3.131   2.679   8.237  0.3173 -1.0623  0.8144
   94CHL1  H27C 9436   3.310   2.650   8.261  1.0542 -0.6544  3.6653
   95CHL1    C3 9437   2.941   1.958   6.710  0.2818 -0.1996 -0.0698
   95CHL1    H3 9438   3.046   1.972   6.743  0.2229 -1.9947  0.9628
   95CHL1    O3 9439   2.935   1.987   6.574 -0.2062  0.3093  0.5948
   95CHL1   H3' 9440   2.921   2.081   6.569 -0.5963  0.2035 -0.6041
   95CHL1    C4 9441   2.889   1.821   6.735 -0.1987 -0.2189  0.6431
   95CHL1   H4A 9442   2.787   1.794   6.699  0.2401 -1.3474  0.2177
   95CHL1   H4B 9443   2.949   1.751   6.674 -1.2917 -0.3914 -0.2639
   95CHL1    C5 9444   2.906   1.798   6.883 -0.2115 -0.1993  0.4330
   95CHL1    C6 9445   3.001   1.716   6.936  0.0952 -0.0295  0.5016
   95CHL1    H6 9446   3.074   1.681   6.861  1.5201 -1.0889  2.3502
   95CHL1    C7 9447   3.015   1.680   7.082  0.0834  0.7405  0.3858
   95CHL1   H7A 9448   3.040   1.572   7.087 -0.4472  0.6002 -0.0354
   95CHL1   H7B 9449   3.101   1.734   7.129  0.0386  1.0281  0.1407
   95CHL1    C8 9450   2.888   1.711   7.161 -0.3548 -0.4115 -0.3274
   95CHL1    H8 9451   2.814   1.632   7.137 -0.1738 -0.4077 -0.8863
   95CHL1   C14 9452   2.917   1.697   7.312 -0.5433  0.8974 -0.0087
   95CHL1   H14 9453   2.979   1.783   7.348  0.5032 -0.4868  1.6018
   95CHL1   C15 9454   2.995   1.579   7.363  0.3849  0.3590 -0.2788
   95CHL1  H15A 9455   2.963   1.480   7.325 -1.0767  1.3013 -1.5732
   95CHL1  H15B 9456   3.104   1.595   7.346  0.9480 -2.1513  0.6819
   95CHL1   C16 9457   2.971   1.590   7.512  0.0903  0.4265  0.3795
   95CHL1  H16A 9458   2.954   1.485   7.546  1.1063 -0.2584 -1.2022
   95CHL1  H16B 9459   3.063   1.636   7.553  0.0251  0.8268  0.0765
   95CHL1   C17 9460   2.858   1.694   7.543  0.2979 -0.4432  0.7262
   95CHL1   H17 9461   2.906   1.789   7.574 -0.7001  0.2377  0.2626
   95CHL1   C13 9462   2.796   1.728   7.404 -0.2073  0.2054 -0.2884
   95CHL1   C18 9463   2.686   1.616   7.387  0.4545  0.0847  0.7454
   95CHL1  H18A 9464   2.602   1.614   7.460 -1.4359 -3.3346 -1.4160
   95CHL1  H18B 9465   2.640   1.617   7.286 -0.5637  0.1667  1.2041
   95CHL1  H18C 9466   2.739   1.518   7.395  1.4873  0.5365 -0.4360
   95CHL1   C12 9467   2.745   1.869   7.381  0.6816  0.8142  0.2153
   95CHL1  H12A 9468   2.654   1.882   7.444 -1.0632 -1.4185 -1.7432
   95CHL1  H12B 9469   2.804   1.947   7.433  0.7437  0.7692  0.2120
   95CHL1   C11 9470   2.721   1.890   7.225 -0.2757 -0.9222 -0.1551
   95CHL1  H11A 9471   2.625   1.836   7.210 -0.7414 -0.0381 -0.3836
   95CHL1  H11B 9472   2.698   1.995   7.195  0.3323 -0.7892 -0.1717
   95CHL1    C9 9473   2.841   1.849   7.137  0.5783 -0.6048 -0.0103
   95CHL1    H9 9474   2.924   1.919   7.163  0.8647 -0.5551 -1.0018
   95CHL1   C10 9475   2.809   1.870   6.985 -0.1310  0.9035 -0.5236
   95CHL1   C19 9476   2.667   1.829   6.952  0.1207 -0.4394 -0.4723
   95CHL1  H19A 9477   2.622   1.844   6.851  1.6781  0.7186 -1.0083
   95CHL1  H19B 9478   2.652   1.719   6.959 -0.0714 -0.4812 -1.4063
   95CHL1  H19C 9479   2.595   1.889   7.012  3.8712  2.1898  1.5768
   95CHL1    C1 9480   2.826   2.023   6.952 -0.0498  0.4613  0.2967
   95CHL1   H1A 9481   2.749   2.088   6.997  0.6479  1.7719 -0.3679
   95CHL1   H1B 9482   2.924   2.058   6.991 -0.0583  1.5607 -0.6209
   95CHL1    C2 9483   2.852   2.056   6.794  0.4572 -0.0430  0.0705
   95CHL1   H2A 9484   2.903   2.151   6.768 -2.1905  0.9072 -1.8399
   95CHL1   H2B 9485   2.750   2.060   6.751 -0.9738  2.5428  3.4687
   95CHL1   C20 9486   2.764   1.657   7.663 -1.0914 -0.1427  0.4905
   95CHL1   H20 9487   2.717   1.557   7.645  0.2496 -0.7833  0.4868
   95CHL1   C21 9488   2.657   1.765   7.681 -1.0319  0.7220 -0.2866
   95CHL1  H21A 9489   2.571   1.761   7.611 -0.7932 -1.6885 -0.4856
   95CHL1  H21B 9490   2.705   1.865   7.674 -0.6671  0.5039 -0.9341
   95CHL1  H21C 9491   2.619   1.756   7.785  0.2822 -0.1612  0.1381
   95CHL1   C22 9492   2.846   1.634   7.790  0.9522 -0.7139  0.1314
   95CHL1  H22A 9493   2.778   1.577   7.856  0.7308 -0.1930  0.3491
   95CHL1  H22B 9494   2.928   1.560   7.771  0.0805 -1.8657  0.7906
   95CHL1   C23 9495   2.903   1.760   7.861 -0.1065  0.4265  0.3877
   95CHL1  H23A 9496   2.982   1.804   7.797  3.5849 -2.0477  3.0057
   95CHL1  H23B 9497   2.827   1.839   7.877 -2.8073 -2.3909  1.9315
   95CHL1   C24 9498   2.961   1.717   7.991 -0.2426 -0.6063 -0.1924
   95CHL1  H24A 9499   2.880   1.661   8.041 -0.7714 -0.0350 -0.3961
   95CHL1  H24B 9500   3.054   1.659   7.975 -1.1120 -1.9098 -0.5196
   95CHL1   C25 9501   2.977   1.840   8.092 -0.3247  0.4784 -1.1217
   95CHL1   H25 9502   2.884   1.899   8.097 -1.6550 -1.2803 -3.6819
   95CHL1   C26 9503   2.998   1.795   8.239 -0.1563  0.2785  0.2332
   95CHL1  H26A 9504   3.082   1.724   8.256 -0.9667 -0.5778  0.7294
   95CHL1  H26B 9505   3.012   1.883   8.304  0.0992 -1.5126  2.6516
   95CHL1  H26C 9506   2.908   1.736   8.265  0.0432 -0.9839 -1.8117
   95CHL1   C27 9507   3.093   1.926   8.060  0.4478 -0.1252 -0.4356
   95CHL1  H27A 9508   3.099   1.958   7.953 -0.2849  2.8795  0.3888
   95CHL1  H27B 9509   3.110   2.019   8.118 -1.1474  0.6860 -1.2377
   95CHL1  H27C 9510   3.190   1.876   8.079  0.2569 -0.5886 -0.6625
   96CHL1    C3 9511   3.316   0.344   6.818  0.4134 -0.5440  0.0688
   96CHL1    H3 9512   3.409   0.403   6.827  1.1172 -1.4148 -1.3092
   96CHL1    O3 9513   3.296   0.299   6.676 -0.3447 -0.3069 -0.3899
   96CHL1   H3' 9514   3.274   0.381   6.631  0.1928  1.7587  2.9802
   96CHL1    C4 9515   3.332   0.231   6.918 -0.1673 -0.4113 -0.0719
   96CHL1   H4A 9516   3.252   0.158   6.894 -1.1112  1.5275 -3.0937
   96CHL1   H4B 9517   3.424   0.177   6.890 -1.3169 -2.4548  0.0067
   96CHL1    C5 9518   3.339   0.272   7.060  0.1548  0.2354 -0.3997
   96CHL1    C6 9519   3.444   0.228   7.136 -0.0759 -0.2617 -0.3705
   96CHL1    H6 9520   3.527   0.171   7.093  0.2993 -1.2019  1.5490
   96CHL1    C7 9521   3.442   0.256   7.284 -0.0691 -0.5761 -0.3734
   96CHL1   H7A 9522   3.450   0.166   7.348  1.4102  0.1169  0.4521
   96CHL1   H7B 9523   3.518   0.332   7.311  2.0357 -1.5517 -3.2733
   96CHL1    C8 9524   3.308   0.315   7.339 -0.6108  0.0126  1.1677
   96CHL1    H8 9525   3.233   0.234   7.355 -0.9932 -0.1396 -1.2116
   96CHL1   C14 9526   3.321   0.371   7.478 -0.0864 -0.2076  0.1749
   96CHL1   H14 9527   3.390   0.458   7.471 -0.3107 -0.0562 -0.1660
   96CHL1   C15 9528   3.391   0.275   7.580  0.0313 -0.1561 -0.0529
   96CHL1  H15A 9529   3.357   0.169   7.587 -0.4617 -0.1088 -1.5305
   96CHL1  H15B 9530   3.499   0.276   7.553 -0.5143  0.6811 -2.3050
   96CHL1   C16 9531   3.358   0.339   7.719 -0.4060  0.0733  0.0679
   96CHL1  H16A 9532   3.315   0.267   7.791  0.0811 -0.5610 -0.2689
   96CHL1  H16B 9533   3.456   0.384   7.743  0.3473  1.6471 -5.2087
   96CHL1   C17 9534   3.258   0.453   7.688 -0.1786  0.7290  0.3380
   96CHL1   H17 9535   3.327   0.540   7.684 -0.7087  1.2077  1.4979
   96CHL1   C13 9536   3.200   0.426   7.541 -0.1428  0.4091 -0.0529
   96CHL1   C18 9537   3.084   0.322   7.566  0.1501  0.0242  0.5340
   96CHL1  H18A 9538   3.116   0.243   7.638  0.1896  0.8992  1.4918
   96CHL1  H18B 9539   3.001   0.377   7.615  0.2416  2.0816 -1.5728
   96CHL1  H18C 9540   3.045   0.285   7.469 -1.0910  0.1452  0.9785
   96CHL1   C12 9541   3.149   0.544   7.458  0.4597 -0.5163 -0.5233
   96CHL1  H12A 9542   3.054   0.592   7.491  1.6885  0.0376  2.3958
   96CHL1  H12B 9543   3.227   0.624   7.467 -0.5600  0.2192  2.3461
   96CHL1   C11 9544   3.129   0.499   7.307  0.0953 -0.1646 -0.5725
   96CHL1  H11A 9545   3.038   0.436   7.307  0.5903 -0.9725  2.1159
   96CHL1  H11B 9546   3.103   0.586   7.243 -1.1157  0.3931  0.6603
   96CHL1    C9 9547   3.258   0.426   7.247  0.1956 -0.8647  0.2129
   96CHL1    H9 9548   3.347   0.490   7.229  0.5348 -1.0830  1.0568
   96CHL1   C10 9549   3.225   0.370   7.101 -0.0597  0.0774 -0.1586
   96CHL1   C19 9550   3.091   0.298   7.104  0.1779  0.4252 -0.0798
   96CHL1  H19A 9551   3.088   0.224   7.186  0.0043  0.5645  0.0391
   96CHL1  H19B 9552   3.014   0.378   7.106  0.3201  0.5526  0.2680
   96CHL1  H19C 9553   3.064   0.243   7.011  1.3328 -1.9876  0.9565
   96CHL1    C1 9554   3.212   0.490   6.993 -0.5930 -0.1193 -0.0872
   96CHL1   H1A 9555   3.128   0.561   7.011  1.1005  1.7436  0.6920
   96CHL1   H1B 9556   3.313   0.537   7.001  0.0565 -1.4971 -0.0957
   96CHL1    C2 9557   3.198   0.440   6.851  0.4041 -0.0993  0.1447
   96CHL1   H2A 9558   3.198   0.523   6.778 -1.3295 -1.0024 -0.9076
   96CHL1   H2B 9559   3.102   0.390   6.829  1.4552 -2.4737  0.7145
   96CHL1   C20 9560   3.170   0.495   7.801 -0.1436  0.7320  0.2266
   96CHL1   H20 9561   3.103   0.408   7.819 -0.1828  0.6748 -0.1991
   96CHL1   C21 9562   3.085   0.619   7.754  0.1056 -0.4386  0.8048
   96CHL1  H21A 9563   3.077   0.698   7.832 -1.8781 -0.4260  0.6040
   96CHL1  H21B 9564   2.995   0.592   7.694  0.7040  0.1948 -0.3889
   96CHL1  H21C 9565   3.160   0.672   7.691  0.3913 -0.1842  1.3623
   96CHL1   C22 9566   3.245   0.531   7.936  0.5728  0.5177  0.7405
   96CHL1  H22A 9567   3.317   0.453   7.968 -0.9990 -0.8994  0.8701
   96CHL1  H22B 9568   3.291   0.632   7.932  0.2081  0.7793  2.6506
   96CHL1   C23 9569   3.155   0.545   8.067 -0.2798  0.4644  0.3375
   96CHL1  H23A 9570   3.087   0.629   8.044 -0.5334  0.0244 -0.5416
   96CHL1  H23B 9571   3.084   0.460   8.078  1.7353 -1.8093 -3.1414
   96CHL1   C24 9572   3.220   0.572   8.196  0.1293  0.4965 -0.2412
   96CHL1  H24A 9573   3.299   0.496   8.218  0.0792  0.7093  0.6656
   96CHL1  H24B 9574   3.283   0.663   8.191  0.5405  0.1869 -0.7940
   96CHL1   C25 9575   3.117   0.580   8.311 -0.7143 -0.3769  0.0771
   96CHL1   H25 9576   3.053   0.489   8.313 -0.1884 -0.7310  2.9088
   96CHL1   C26 9577   3.186   0.586   8.446 -0.2171  0.0534  0.7401
   96CHL1  H26A 9578   3.110   0.578   8.526 -1.4736  2.3638 -0.1658
   96CHL1  H26B 9579   3.241   0.489   8.451  0.5564  0.3002 -1.8047
   96CHL1  H26C 9580   3.257   0.671   8.456 -0.9542  0.6514  0.8471
   96CHL1   C27 9581   3.028   0.708   8.289  0.7138 -0.0585 -0.2690
   96CHL1  H27A 9582   2.952   0.718   8.369 -1.1110  0.4928 -2.0328
   96CHL1  H27B 9583   3.104   0.788   8.294 -1.1816  2.1527 -4.1305
   96CHL1  H27C 9584   2.975   0.703   8.191  1.1822  1.5446 -0.6074
   97OSM      N 9585   0.285   1.772  11.257 -0.0791  0.4709  0.8691
   97OSM    C15 9586   0.383   1.666  11.261 -0.0019  0.1771 -0.2850
   97OSM   H15A 9587   0.464   1.688  11.193 -0.4986 -0.2750 -1.0330
   97OSM   H15B 9588   0.359   1.570  11.219 -0.8697  0.6727 -0.9347
   97OSM   H15C 9589   0.431   1.648  11.356 -1.9442 -2.5076  0.2461
   97OSM    C14 9590   0.239   1.775  11.110  0.5309 -0.4286 -0.7701
   97OSM   H14A 9591   0.195   1.683  11.073 -0.8654  1.2920 -3.5192
   97OSM   H14B 9592   0.328   1.797  11.054 -0.4985 -1.5549 -2.9025
   97OSM   H14C 9593   0.175   1.860  11.093 -0.6794 -0.7582  1.7408
   97OSM    C13 9594   0.165   1.738  11.334  0.1060 -0.3468 -0.8028
   97OSM   H13A 9595   0.125   1.640  11.314  1.5460 -1.3192  0.9005
   97OSM   H13B 9596   0.084   1.809  11.332 -1.0844 -1.6943 -0.6209
   97OSM   H13C 9597   0.194   1.719  11.436  1.3745 -2.6893 -1.5672
   97OSM    C12 9598   0.348   1.908  11.289  0.7729  0.4606  0.0140
   97OSM   H12A 9599   0.355   1.916  11.396 -1.5797  0.4671  0.2064
   97OSM   H12B 9600   0.282   1.986  11.254  1.2536  1.3463  1.0607
   97OSM    C11 9601   0.489   1.947  11.233  0.2781  0.1731  0.6910
   97OSM   H11A 9602   0.565   1.896  11.296  0.3505  2.7247  2.7229
   97OSM   H11B 9603   0.500   2.055  11.254 -3.0082  0.4288  1.2913
   97OSM      P 9604   0.608   1.825  11.028 -0.1285 -0.1070  0.1598
   97OSM    O13 9605   0.711   1.882  10.941  0.1115  0.0686  0.3192
   97OSM    O14 9606   0.648   1.719  11.121  0.2797  0.3737  0.1422
   97OSM    O11 9607   0.490   1.759  10.940  0.8136 -0.0897 -0.6820
   97OSM    O12 9608   0.528   1.934  11.095 -0.4076  0.0275  0.1476
   97OSM    C1S 9609   0.434   1.821  10.827 -0.8906  0.1666 -0.2993
   97OSM    H1S 9610   0.459   1.929  10.823 -0.8009  0.1746  0.4075
   97OSM    H1T 9611   0.323   1.814  10.832 -0.8533  0.3521  1.0825
   97OSM     NF 9612   0.416   1.820  10.576 -0.1026 -0.1207 -0.7253
   97OSM    HNF 9613   0.347   1.769  10.525 -1.1435  1.9613 -1.4625
   97OSM    C2S 9614   0.476   1.752  10.691  0.3092 -0.7086 -0.4425
   97OSM    H2S 9615   0.585   1.766  10.674  0.5448 -1.6948  0.2006
   97OSM    C3S 9616   0.444   1.597  10.701 -0.2239 -0.0420  0.1305
   97OSM    H3S 9617   0.337   1.582  10.730 -0.8735  4.2950  0.3310
   97OSM     O3 9618   0.538   1.539  10.795  0.4762  0.3219  0.4398
   97OSM    HO3 9619   0.587   1.613  10.831  1.3409 -0.6338  1.2524
   97OSM    C4S 9620   0.484   1.530  10.575  0.3346  0.3385 -0.5398
   97OSM    H4S 9621   0.586   1.539  10.535  0.5374  0.9072  0.0895
   97OSM    C5S 9622   0.388   1.466  10.501 -0.5774 -0.9058 -0.3709
   97OSM    H5S 9623   0.289   1.457  10.548  0.1356  0.3345  1.4168
   97OSM    C6S 9624   0.414   1.390  10.371 -0.3170 -0.0585  0.2688
   97OSM    H6S 9625   0.425   1.280  10.383 -1.5552 -0.3103 -0.8247
   97OSM    H6T 9626   0.508   1.426  10.324  0.6652  0.0580  2.2808
   97OSM    C7S 9627   0.300   1.407  10.260 -0.0540  0.0365 -0.4673
   97OSM    H7S 9628   0.262   1.511  10.260 -0.0285  0.0439 -1.2910
   97OSM    H7T 9629   0.215   1.350  10.302  0.7506  2.0504  4.3058
   97OSM    C8S 9630   0.346   1.361  10.122 -0.0551 -0.8051  0.1772
   97OSM    H8S 9631   0.406   1.268  10.132  1.7411  0.1210 -1.5088
   97OSM    H8T 9632   0.399   1.454  10.092 -1.1725  0.1853  1.2419
   97OSM    C9S 9633   0.221   1.351  10.033 -0.8078  0.2198  0.5282
   97OSM    H9S 9634   0.147   1.430  10.059 -3.2152 -1.6179 -0.5866
   97OSM    H9T 9635   0.165   1.260  10.063 -1.5242  0.2134 -0.7974
   97OSM   C10S 9636   0.259   1.338   9.881  1.0506  0.7145 -0.5686
   97OSM   H10S 9637   0.342   1.265   9.865  1.6735  0.6817  2.5371
   97OSM   H10T 9638   0.306   1.433   9.849 -0.8744  1.5720 -0.9168
   97OSM   C11S 9639   0.131   1.301   9.802 -0.5018  0.5327  0.1652
   97OSM   H11S 9640   0.045   1.362   9.837 -0.4068  0.2016  0.9774
   97OSM   H11T 9641   0.110   1.198   9.838 -0.3906  1.0689  1.7872
   97OSM   C12S 9642   0.156   1.291   9.651 -0.7931 -0.2398  0.2445
   97OSM   H12S 9643   0.065   1.234   9.622 -0.8704  0.2740 -0.5417
   97OSM   H12T 9644   0.251   1.236   9.630  0.3327  2.2630 -1.4096
   97OSM   C13S 9645   0.152   1.427   9.580  0.4339 -0.3486 -0.1059
   97OSM   H13S 9646   0.231   1.499   9.611  2.8344 -2.0253 -2.0704
   97OSM   H13T 9647   0.053   1.464   9.612 -0.8178 -0.2240 -3.8963
   97OSM   C14S 9648   0.166   1.426   9.426 -0.1653  0.2345  0.0035
   97OSM   H14S 9649   0.096   1.349   9.387 -2.0648  1.3761  1.0385
   97OSM   H14T 9650   0.269   1.399   9.394  0.0056  1.1973 -0.2785
   97OSM   C15S 9651   0.137   1.571   9.374  0.3243  0.1085 -0.0205
   97OSM   H15S 9652   0.203   1.636   9.435 -0.0622 -1.0177  1.6461
   97OSM   H15T 9653   0.032   1.599   9.395  0.1593 -1.2515  1.1053
   97OSM   C16S 9654   0.166   1.588   9.230  1.0733  0.2842  0.5794
   97OSM   H16S 9655   0.262   1.543   9.195  0.7748  0.7280 -0.8526
   97OSM   H16T 9656   0.162   1.699   9.223 -0.4509  0.2076 -0.0298
   97OSM   C17S 9657   0.052   1.525   9.154  0.5408  0.1086 -0.5133
   97OSM   H17S 9658  -0.040   1.571   9.195  1.0009  0.3307  0.2718
   97OSM   H17T 9659   0.046   1.416   9.176  2.0438  0.0138 -0.5436
   97OSM   C18S 9660   0.060   1.543   8.999 -0.0194  0.2137 -0.3809
   97OSM   H18S 9661   0.042   1.647   8.964 -2.2813  0.1428  0.4703
   97OSM   H18T 9662  -0.020   1.489   8.944  1.4970 -1.3551 -1.0789
   97OSM   H18U 9663   0.153   1.501   8.956  0.6637  0.5933  0.6971
   97OSM    C1F 9664   0.446   1.950  10.544  0.2972 -0.3756 -0.5149
   97OSM     OF 9665   0.518   2.017  10.617  0.0223 -0.2361 -0.0281
   97OSM    C2F 9666   0.382   2.008  10.420 -0.4100 -0.1438 -0.4414
   97OSM    H2F 9667   0.303   2.075  10.459 -0.0645 -0.2675  0.4958
   97OSM    H2G 9668   0.326   1.931  10.362 -0.2762  0.1979 -1.0272
   97OSM    C3F 9669   0.465   2.101  10.331 -0.9636 -0.2554 -0.3659
   97OSM    H3F 9670   0.502   2.184  10.394 -0.2335 -1.0790  0.3000
   97OSM    H3G 9671   0.412   2.151  10.247  0.3502  0.9643 -0.4994
   97OSM    C4F 9672   0.584   2.033  10.265 -0.0343  1.0195  0.0554
   97OSM    H4F 9673   0.650   1.993  10.345  2.1529  1.8638 -1.2883
   97OSM    H4G 9674   0.626   2.099  10.186 -0.3599 -0.9681 -1.8199
   97OSM    C5F 9675   0.545   1.913  10.178  0.1829 -0.3443  0.1200
   97OSM    H5F 9676   0.456   1.932  10.115 -0.7169 -0.6662  1.2748
   97OSM    H5G 9677   0.522   1.818  10.231 -1.0722 -1.6786 -2.7185
   97OSM    C6F 9678   0.655   1.882  10.072  0.1546  0.2324  0.4433
   97OSM    H6F 9679   0.751   1.848  10.116  0.6038  1.2555  0.2556
   97OSM    H6G 9680   0.675   1.981  10.027 -0.0118  0.6932  1.3910
   97OSM    C7F 9681   0.603   1.784   9.964 -1.1488 -0.1259 -0.9988
   97OSM    H7F 9682   0.579   1.690  10.018 -2.7492  1.1950  0.6728
   97OSM    H7G 9683   0.682   1.757   9.891  0.2618  2.4541 -0.4747
   97OSM    C8F 9684   0.473   1.815   9.892  0.2916 -0.1576  0.1663
   97OSM    H8F 9685   0.392   1.809   9.968  0.9822  1.0382  1.0084
   97OSM    H8G 9686   0.456   1.743   9.809  2.7004  1.6365 -1.9423
   97OSM    C9F 9687   0.468   1.953   9.826  0.6809 -0.1590  0.3263
   97OSM    H9F 9688   0.435   2.031   9.896  2.2052  0.2830  0.5763
   97OSM   C10F 9689   0.504   1.984   9.700  0.8256  0.9557 -0.1079
   97OSM   H10F 9690   0.477   2.082   9.658 -0.4754 -0.5333 -2.8385
   97OSM   C11F 9691   0.553   1.888   9.592  1.0438 -0.4515  0.0628
   97OSM   H11F 9692   0.547   1.785   9.633  1.5638 -0.3751  0.3270
   97OSM   H11G 9693   0.657   1.915   9.566  0.5159  0.9886 -0.6225
   97OSM   C12F 9694   0.479   1.891   9.451  0.8339  0.3465  0.0497
   97OSM   H12F 9695   0.376   1.853   9.468  0.7063  0.7486  0.1942
   97OSM   H12G 9696   0.522   1.805   9.396 -1.2638 -0.6065 -0.1325
   97OSM   C13F 9697   0.492   2.018   9.378  0.1717 -0.1243  0.2109
   97OSM   H13F 9698   0.599   2.037   9.356  0.1321  0.7007  0.7118
   97OSM   H13G 9699   0.448   2.097   9.443  0.2110 -0.5276  0.7299
   97OSM   C14F 9700   0.407   2.014   9.247  0.0297  0.1339 -0.4164
   97OSM   H14F 9701   0.425   2.102   9.181 -0.1201  1.1573  0.8763
   97OSM   H14G 9702   0.301   2.035   9.272 -0.1849  0.8172 -1.8483
   97OSM   C15F 9703   0.439   1.888   9.168  0.1906 -0.3668 -0.4615
   97OSM   H15F 9704   0.382   1.804   9.213  2.6221 -0.6309  2.2260
   97OSM   H15G 9705   0.545   1.860   9.183  0.1953 -0.1323 -0.0544
   97OSM   C16F 9706   0.403   1.902   9.020 -0.0799  0.7068 -0.1642
   97OSM   H16F 9707   0.483   1.931   8.949 -0.3870 -0.9591 -1.2133
   97OSM   H16G 9708   0.316   1.972   9.013  0.4131  1.1814 -1.7188
   97OSM   C17F 9709   0.341   1.773   8.971  0.5246 -0.5048  0.3274
   97OSM   H17F 9710   0.247   1.754   9.027  0.1236  0.0209 -0.1633
   97OSM   H17G 9711   0.393   1.677   8.992 -0.3802 -1.3707 -1.3198
   97OSM   C18F 9712   0.302   1.762   8.821  0.2550 -0.5334 -0.0499
   97OSM   H18F 9713   0.236   1.847   8.793  0.4874  0.8306  3.3593
   97OSM   H18G 9714   0.240   1.670   8.814 -1.4557  0.6543 -0.9673
   97OSM   H18H 9715   0.389   1.769   8.752  0.0366 -0.6376 -0.3394
   98OSM      N 9716   6.583   1.212  11.362 -0.2756 -0.8184 -0.1442
   98OSM    C15 9717   6.537   1.181  11.225  0.2635  0.3462  0.0426
   98OSM   H15A 9718   6.520   1.268  11.164  0.7873  0.3055 -0.1626
   98OSM   H15B 9719   6.438   1.137  11.229  0.8818 -1.0527  0.4540
   98OSM   H15C 9720   6.598   1.107  11.176  0.5636 -0.4875  1.6430
   98OSM    C14 9721   6.477   1.291  11.431 -0.3216 -0.2847  0.1616
   98OSM   H14A 9722   6.487   1.293  11.538 -1.4623  0.2234  0.2639
   98OSM   H14B 9723   6.388   1.239  11.399 -0.4989 -0.1273  0.4005
   98OSM   H14C 9724   6.475   1.395  11.401  0.9521  0.5658  2.8929
   98OSM    C13 9725   6.600   1.082  11.437  0.4869  0.0503 -0.4171
   98OSM   H13A 9726   6.679   1.016  11.402 -0.8321 -1.5933 -0.3236
   98OSM   H13B 9727   6.505   1.033  11.428 -0.0775  1.1853 -0.6974
   98OSM   H13C 9728   6.621   1.108  11.539 -1.0997  0.2397 -0.1312
   98OSM    C12 9729   6.717   1.287  11.361 -0.3497 -0.8194 -1.0072
   98OSM   H12A 9730   6.784   1.228  11.300  0.8570 -0.0618 -0.4418
   98OSM   H12B 9731   6.759   1.296  11.460  0.7941  0.1123 -1.5676
   98OSM    C11 9732   6.715   1.428  11.297  0.1925  0.1761  0.4869
   98OSM   H11A 9733   6.808   1.486  11.317 -0.1557  1.3246 -1.1060
   98OSM   H11B 9734   6.636   1.492  11.341  0.1775 -0.5965  1.5897
   98OSM      P 9735   6.813   1.423  11.050 -0.1154 -0.3431  0.1319
   98OSM    O13 9736   6.838   1.562  11.019 -0.0422 -0.2425  0.2331
   98OSM    O14 9737   6.923   1.339  11.105  0.2450  0.5564  0.4164
   98OSM    O11 9738   6.732   1.349  10.931 -0.2636 -0.5873 -0.3805
   98OSM    O12 9739   6.693   1.429  11.158 -0.3143  0.5173 -0.0811
   98OSM    C1S 9740   6.669   1.425  10.828 -1.4684  0.6523 -0.8792
   98OSM    H1S 9741   6.740   1.496  10.780 -0.9238  0.3581 -0.5068
   98OSM    H1T 9742   6.575   1.473  10.861 -1.6504  0.3979 -1.0269
   98OSM     NF 9743   6.606   1.410  10.585 -0.0104  0.0626  0.6141
   98OSM    HNF 9744   6.509   1.425  10.568  0.0827  0.5144  0.4667
   98OSM    C2S 9745   6.634   1.331  10.704  0.4244 -0.9436  1.3230
   98OSM    H2S 9746   6.728   1.283  10.669  1.4180  1.4416  0.6123
   98OSM    C3S 9747   6.524   1.219  10.736 -0.4437 -1.0576 -0.1918
   98OSM    H3S 9748   6.431   1.278  10.751  0.0450 -0.0482 -1.0458
   98OSM     O3 9749   6.550   1.145  10.864 -0.1094 -0.5624 -0.3043
   98OSM    HO3 9750   6.629   1.191  10.892  0.5107 -2.9350  2.0843
   98OSM    C4S 9751   6.517   1.124  10.620 -0.4053 -0.4712  0.0916
   98OSM    H4S 9752   6.621   1.095  10.596  0.3800  1.1014  1.4520
   98OSM    C5S 9753   6.414   1.091  10.542 -0.2625 -0.2635 -0.1498
   98OSM    H5S 9754   6.315   1.134  10.560 -0.1669  0.3551 -1.0410
   98OSM    C6S 9755   6.431   1.011  10.417 -0.6238 -0.3499  0.1696
   98OSM    H6S 9756   6.369   0.919  10.427  1.8355 -2.2032 -1.1197
   98OSM    H6T 9757   6.535   0.979  10.396 -0.7705  0.0573 -1.2735
   98OSM    C7S 9758   6.397   1.072  10.283  0.4974  0.5215 -0.0106
   98OSM    H7S 9759   6.465   1.154  10.253  0.3838  0.3718 -0.6907
   98OSM    H7T 9760   6.294   1.112  10.297 -0.1844 -0.4348 -2.0275
   98OSM    C8S 9761   6.392   0.973  10.167  0.7941  0.5658 -0.5722
   98OSM    H8S 9762   6.329   0.885  10.192  0.0493  1.6932  1.7131
   98OSM    H8T 9763   6.495   0.936  10.145  0.6136 -1.4910  1.7401
   98OSM    C9S 9764   6.332   1.035  10.038 -0.3615  0.1497  0.0080
   98OSM    H9S 9765   6.385   1.127  10.006 -1.2090  0.5749 -0.2112
   98OSM    H9T 9766   6.226   1.063  10.058 -1.9098 -3.5647 -2.2863
   98OSM   C10S 9767   6.336   0.954   9.913 -0.3316  0.3225 -0.2078
   98OSM   H10S 9768   6.299   0.850   9.927 -1.1720  0.7974  1.1461
   98OSM   H10T 9769   6.438   0.929   9.876  0.3907 -0.3915  2.2063
   98OSM   C11S 9770   6.257   1.001   9.798  0.3028 -0.2921  0.0824
   98OSM   H11S 9771   6.304   1.092   9.754 -1.4508  1.0037  0.8305
   98OSM   H11T 9772   6.162   1.038   9.842  0.3890  0.2564 -0.1784
   98OSM   C12S 9773   6.241   0.889   9.693  0.4305 -0.2222  0.3862
   98OSM   H12S 9774   6.162   0.823   9.734 -2.3478  1.3086 -2.3292
   98OSM   H12T 9775   6.336   0.833   9.679  0.5705  0.0241  0.3425
   98OSM   C13S 9776   6.193   0.948   9.562  0.4494 -0.6974  0.0386
   98OSM   H13S 9777   6.281   1.006   9.525  0.8800 -1.0628  0.4895
   98OSM   H13T 9778   6.099   1.003   9.583 -0.0553 -1.6628  0.2842
   98OSM   C14S 9779   6.169   0.842   9.458  0.6962 -0.3855 -0.2887
   98OSM   H14S 9780   6.071   0.798   9.485  0.3726 -0.6167 -1.8147
   98OSM   H14T 9781   6.246   0.764   9.479 -0.0291 -0.8589  0.6349
   98OSM   C15S 9782   6.174   0.895   9.308  0.2302  0.0271 -0.2750
   98OSM   H15S 9783   6.279   0.904   9.274  0.3695 -1.3526 -0.2172
   98OSM   H15T 9784   6.132   0.997   9.296 -0.0304  0.1284  1.3566
   98OSM   C16S 9785   6.106   0.795   9.223  0.3285 -0.5551 -0.0117
   98OSM   H16S 9786   6.008   0.764   9.266 -0.3740  0.2739 -0.9564
   98OSM   H16T 9787   6.174   0.708   9.223  1.5855  0.4149 -0.2433
   98OSM   C17S 9788   6.079   0.853   9.080  0.2592  0.3044 -0.1921
   98OSM   H17S 9789   6.175   0.886   9.035  1.0736 -0.3178  1.0578
   98OSM   H17T 9790   6.027   0.951   9.091 -2.1245 -0.9055 -0.3360
   98OSM   C18S 9791   5.997   0.755   8.987 -0.4934 -0.3087  0.3829
   98OSM   H18S 9792   5.911   0.716   9.044  0.1851 -0.7036  1.1425
   98OSM   H18T 9793   6.054   0.665   8.954  0.0118  0.1284  0.0536
   98OSM   H18U 9794   5.964   0.809   8.896  0.9954  0.2076  0.1258
   98OSM    C1F 9795   6.691   1.489  10.521  0.3106 -0.0355 -0.0314
   98OSM     OF 9796   6.806   1.474  10.531  0.3696 -0.0500 -0.6339
   98OSM    C2F 9797   6.634   1.610  10.450 -0.0653 -0.0934 -0.2627
   98OSM    H2F 9798   6.634   1.704  10.509 -0.5295 -0.5483  0.4707
   98OSM    H2G 9799   6.527   1.594  10.426  0.0360  0.4268 -1.0747
   98OSM    C3F 9800   6.712   1.642  10.319 -0.3108  0.0351 -0.0193
   98OSM    H3F 9801   6.818   1.662  10.346 -0.6371  0.4031  0.9954
   98OSM    H3G 9802   6.667   1.731  10.270 -0.2435 -0.1941 -0.4986
   98OSM    C4F 9803   6.704   1.542  10.206 -0.4805  0.1995  0.3725
   98OSM    H4F 9804   6.756   1.450  10.239  4.1205  3.6561  3.4608
   98OSM    H4G 9805   6.764   1.574  10.118 -0.2985  2.4840  1.2814
   98OSM    C5F 9806   6.562   1.507  10.167  0.2722  0.0654  0.5633
   98OSM    H5F 9807   6.517   1.606  10.142 -1.5098 -0.5075  1.4538
   98OSM    H5G 9808   6.500   1.478  10.254  0.1695 -1.9601 -0.1600
   98OSM    C6F 9809   6.551   1.405  10.053  0.1533  0.3434 -0.3182
   98OSM    H6F 9810   6.448   1.367  10.042 -0.3448  1.0243  1.8064
   98OSM    H6G 9811   6.623   1.320  10.063  0.6856  0.7863 -0.3524
   98OSM    C7F 9812   6.582   1.479   9.917  0.1672  0.5581  0.1286
   98OSM    H7F 9813   6.689   1.509   9.922  0.1296  0.4899  1.6221
   98OSM    H7G 9814   6.520   1.567   9.891 -2.9449 -1.0656  1.7864
   98OSM    C8F 9815   6.581   1.375   9.801 -0.0213  0.3002 -0.2550
   98OSM    H8F 9816   6.480   1.330   9.806  0.6180 -0.9709  2.5804
   98OSM    H8G 9817   6.651   1.290   9.816 -1.7557 -0.4979  4.1828
   98OSM    C9F 9818   6.608   1.445   9.674 -0.1200  0.2018 -0.2540
   98OSM    H9F 9819   6.687   1.522   9.680 -0.6507  0.5863  3.2203
   98OSM   C10F 9820   6.542   1.436   9.562 -0.5803 -0.2691  0.0917
   98OSM   H10F 9821   6.579   1.504   9.483 -0.8324 -0.1127  0.1083
   98OSM   C11F 9822   6.423   1.350   9.531 -0.4624  0.4303 -0.0334
   98OSM   H11F 9823   6.323   1.396   9.549 -0.1929  0.6032  1.0586
   98OSM   H11G 9824   6.427   1.260   9.597  2.0683  0.3201 -0.3096
   98OSM   C12F 9825   6.427   1.290   9.389  0.7222 -0.3036  0.1691
   98OSM   H12F 9826   6.429   1.376   9.319 -2.3032 -0.7584 -0.5647
   98OSM   H12G 9827   6.340   1.221   9.380 -0.8564  1.7005 -0.3962
   98OSM   C13F 9828   6.556   1.206   9.350  0.0676 -0.1892 -0.1872
   98OSM   H13F 9829   6.541   1.101   9.384 -1.1116  0.0294 -0.0040
   98OSM   H13G 9830   6.640   1.252   9.406  1.9098 -2.2176 -1.1873
   98OSM   C14F 9831   6.597   1.208   9.199  0.3535  0.3304 -0.2585
   98OSM   H14F 9832   6.687   1.143   9.201  0.6004  0.6872  1.0115
   98OSM   H14G 9833   6.626   1.314   9.178  0.4751  0.2281 -0.6093
   98OSM   C15F 9834   6.503   1.143   9.100 -0.2762  0.0613 -0.0496
   98OSM   H15F 9835   6.478   1.046   9.147 -0.2716 -0.6492 -1.5025
   98OSM   H15G 9836   6.563   1.121   9.010  0.3823  1.4114  0.0356
   98OSM   C16F 9837   6.371   1.222   9.077  0.5110 -0.0124 -0.1340
   98OSM   H16F 9838   6.311   1.247   9.167 -1.9318  0.8662 -1.9382
   98OSM   H16G 9839   6.307   1.155   9.015 -0.9294 -0.5334  1.8561
   98OSM   C17F 9840   6.385   1.359   9.003 -0.4748 -0.3405  0.8458
   98OSM   H17F 9841   6.437   1.427   9.074  3.4220 -0.2599 -1.9138
   98OSM   H17G 9842   6.283   1.397   8.979 -1.1533 -0.3158  3.5846
   98OSM   C18F 9843   6.470   1.342   8.881 -0.1494 -0.0912 -0.8043
   98OSM   H18F 9844   6.469   1.437   8.823 -0.8418  1.1075  1.1031
   98OSM   H18G 9845   6.424   1.275   8.806 -1.4689  0.8355 -0.8358
   98OSM   H18H 9846   6.573   1.313   8.910  0.0458  1.7359  0.3971
   99OSM      N 9847   1.997   2.567  11.398  0.3895 -0.0739  0.4682
   99OSM    C15 9848   2.071   2.482  11.493 -0.2870  0.2547  0.1894
   99OSM   H15A 9849   1.998   2.409  11.524  1.1510 -1.6345 -0.7982
   99OSM   H15B 9850   2.105   2.532  11.583  0.2212  0.4324 -0.0992
   99OSM   H15C 9851   2.161   2.442  11.451 -0.7502  1.5605 -2.1298
   99OSM    C14 9852   1.889   2.641  11.465 -0.4497 -0.2446  0.6661
   99OSM   H14A 9853   1.923   2.706  11.545  0.1748  0.3019 -0.0331
   99OSM   H14B 9854   1.805   2.580  11.493 -0.6628 -0.4213 -0.3497
   99OSM   H14C 9855   1.836   2.701  11.393  0.0730 -0.2224  0.2975
   99OSM    C13 9856   2.082   2.671  11.340 -0.7104  0.7713 -0.5110
   99OSM   H13A 9857   2.113   2.749  11.408 -2.7316  0.3140  0.9931
   99OSM   H13B 9858   2.031   2.720  11.258 -2.4492 -0.6494 -0.3172
   99OSM   H13C 9859   2.169   2.624  11.297  0.3369  1.1975  1.1099
   99OSM    C12 9860   1.928   2.478  11.290  0.2933  0.5077 -0.0472
   99OSM   H12A 9861   1.863   2.411  11.344  0.5644  0.9983  0.9125
   99OSM   H12B 9862   2.013   2.432  11.242  0.7904  2.0705 -0.6906
   99OSM    C11 9863   1.847   2.544  11.176 -0.3176 -0.0953  0.0679
   99OSM   H11A 9864   1.772   2.623  11.199 -0.0505  0.2490 -0.2278
   99OSM   H11B 9865   1.782   2.466  11.131  0.3994  0.5111 -2.0729
   99OSM      P 9866   1.999   2.516  10.972 -0.2880 -0.2553  0.0630
   99OSM    O13 9867   2.104   2.586  10.891  0.8179 -0.8071  0.2534
   99OSM    O14 9868   2.040   2.390  11.041  0.1050 -0.8077 -0.3952
   99OSM    O11 9869   1.869   2.484  10.882  0.1071  0.3430 -0.0321
   99OSM    O12 9870   1.929   2.604  11.074 -0.0139 -0.1180 -0.0257
   99OSM    C1S 9871   1.789   2.595  10.838  0.1734  0.3857  0.3546
   99OSM    H1S 9872   1.856   2.680  10.818  0.7327 -0.1187  0.0599
   99OSM    H1T 9873   1.716   2.642  10.908  0.0397  2.2254 -0.9797
   99OSM     NF 9874   1.667   2.672  10.626 -0.4188  0.3487 -0.8613
   99OSM    HNF 9875   1.570   2.667  10.604 -0.4939  0.9680 -0.6716
   99OSM    C2S 9876   1.718   2.561  10.700 -0.2762  0.3814 -0.0901
   99OSM    H2S 9877   1.799   2.519  10.636  1.6018  1.5440  1.4685
   99OSM    C3S 9878   1.614   2.442  10.713  0.1037 -0.2425 -0.7194
   99OSM    H3S 9879   1.526   2.492  10.758 -0.2683  0.6657 -2.4094
   99OSM     O3 9880   1.651   2.339  10.803  0.4370  0.1523  0.1617
   99OSM    HO3 9881   1.739   2.368  10.830  0.3074  0.8572 -0.1691
   99OSM    C4S 9882   1.570   2.387  10.578  0.1383  0.1546 -1.1528
   99OSM    H4S 9883   1.471   2.424  10.546  0.6012  2.4620 -0.0638
   99OSM    C5S 9884   1.641   2.290  10.516  0.2932  0.4527 -0.1864
   99OSM    H5S 9885   1.732   2.256  10.568 -1.2321 -0.6271  1.8574
   99OSM    C6S 9886   1.616   2.226  10.383  0.0382 -0.0823  0.3787
   99OSM    H6S 9887   1.536   2.150  10.387 -2.0947  1.9812 -1.6334
   99OSM    H6T 9888   1.706   2.169  10.352 -0.8984 -1.1302 -0.4480
   99OSM    C7S 9889   1.566   2.322  10.277 -0.0725 -0.1325  0.5260
   99OSM    H7S 9890   1.641   2.403  10.261 -0.7835  0.6359  1.0062
   99OSM    H7T 9891   1.473   2.365  10.321  0.6177  1.2557  0.6756
   99OSM    C8S 9892   1.531   2.249  10.149 -0.5537 -0.2395 -0.0032
   99OSM    H8S 9893   1.451   2.174  10.168 -1.0314  0.1312 -0.5219
   99OSM    H8T 9894   1.621   2.199  10.107 -0.1751  1.2175 -0.9754
   99OSM    C9S 9895   1.473   2.345  10.038 -0.3812 -0.0653 -0.2805
   99OSM    H9S 9896   1.548   2.424  10.016 -0.7679  1.4809  3.5122
   99OSM    H9T 9897   1.385   2.399  10.080 -0.7753 -0.5143 -0.5244
   99OSM   C10S 9898   1.431   2.268   9.912 -0.2664 -0.3337  0.1956
   99OSM   H10S 9899   1.361   2.190   9.949 -1.8397  1.0006  0.0728
   99OSM   H10T 9900   1.519   2.220   9.864 -0.7380 -2.4949  1.4331
   99OSM   C11S 9901   1.375   2.361   9.807  0.5648 -0.5196  0.0006
   99OSM   H11S 9902   1.454   2.432   9.773 -0.2773  0.8674  0.8649
   99OSM   H11T 9903   1.287   2.420   9.841  0.3118 -0.1021 -1.3617
   99OSM   C12S 9904   1.328   2.278   9.685  0.2810 -0.5954 -0.2523
   99OSM   H12S 9905   1.422   2.237   9.642  0.6790  0.5226 -0.4844
   99OSM   H12T 9906   1.267   2.192   9.718 -0.5948 -0.8096 -2.3193
   99OSM   C13S 9907   1.239   2.355   9.581  0.4527 -0.1322 -0.5159
   99OSM   H13S 9908   1.233   2.462   9.610  2.0188 -0.3367  0.6261
   99OSM   H13T 9909   1.141   2.304   9.581  0.4945 -0.2463 -1.8474
   99OSM   C14S 9910   1.299   2.353   9.439  0.3766 -0.0583 -0.1698
   99OSM   H14S 9911   1.289   2.253   9.391 -0.5219  0.0724 -0.2619
   99OSM   H14T 9912   1.407   2.377   9.439  0.6961 -1.4043 -1.7899
   99OSM   C15S 9913   1.236   2.458   9.344 -0.0661  0.5816  0.1309
   99OSM   H15S 9914   1.275   2.556   9.380 -0.6013 -0.3832  3.5387
   99OSM   H15T 9915   1.126   2.447   9.358 -0.0121  0.6888  0.6394
   99OSM   C16S 9916   1.270   2.440   9.195  0.0442  0.0231  0.3578
   99OSM   H16S 9917   1.229   2.347   9.150  0.2872 -0.9222  2.0385
   99OSM   H16T 9918   1.381   2.435   9.189 -0.0338 -0.5434 -0.7334
   99OSM   C17S 9919   1.212   2.546   9.100 -0.5987  0.6657  0.0543
   99OSM   H17S 9920   1.101   2.537   9.103 -0.6729  1.0750 -1.3809
   99OSM   H17T 9921   1.242   2.520   8.997 -1.0295 -0.3588  0.1881
   99OSM   C18S 9922   1.251   2.694   9.126  0.6983 -0.1563  0.1617
   99OSM   H18S 9923   1.202   2.773   9.064 -0.8388  0.8735  2.6400
   99OSM   H18T 9924   1.361   2.708   9.114  0.4119  2.2777 -0.0774
   99OSM   H18U 9925   1.222   2.723   9.229 -2.0853 -1.6790 -0.1636
   99OSM    C1F 9926   1.740   2.775  10.589 -0.2462  0.1573 -0.3503
   99OSM     OF 9927   1.863   2.777  10.593 -0.5081  0.3334  0.3924
   99OSM    C2F 9928   1.663   2.896  10.538 -0.1005  0.4950 -0.3682
   99OSM    H2F 9929   1.670   2.975  10.616 -0.1857  0.0495  0.0985
   99OSM    H2G 9930   1.559   2.861  10.526  0.4586 -0.9177 -1.2245
   99OSM    C3F 9931   1.713   2.940  10.398 -0.7365 -0.2277  1.0003
   99OSM    H3F 9932   1.646   3.025  10.373  0.2683  0.5552  0.9541
   99OSM    H3G 9933   1.820   2.968  10.389 -1.1242  0.3288 -2.4180
   99OSM    C4F 9934   1.703   2.840  10.289  0.7521  0.3003 -0.3531
   99OSM    H4F 9935   1.605   2.786  10.295  0.5457  0.5867 -1.1393
   99OSM    H4G 9936   1.785   2.765  10.295 -0.5517 -1.0960  0.4045
   99OSM    C5F 9937   1.713   2.913  10.149  0.0765  0.6057 -1.2494
   99OSM    H5F 9938   1.815   2.955  10.133  0.2064  0.2635 -1.3378
   99OSM    H5G 9939   1.643   2.998  10.155 -1.9239 -1.0435 -0.4030
   99OSM    C6F 9940   1.672   2.828  10.027 -0.1175  0.6261 -0.1187
   99OSM    H6F 9941   1.566   2.806  10.050  0.0064  2.0348  1.8399
   99OSM    H6G 9942   1.722   2.729  10.021 -0.5104  0.3350  1.4140
   99OSM    C7F 9943   1.684   2.893   9.888  0.2160 -0.2066 -0.8207
   99OSM    H7F 9944   1.791   2.921   9.877  0.2252 -0.3211 -1.0338
   99OSM    H7G 9945   1.642   2.995   9.879  3.1901  0.8985 -2.8733
   99OSM    C8F 9946   1.654   2.803   9.765  0.0402  0.6606  0.5772
   99OSM    H8F 9947   1.725   2.721   9.789 -1.5004 -0.4286  1.4863
   99OSM    H8G 9948   1.691   2.871   9.684 -0.0619  2.5024  2.0407
   99OSM    C9F 9949   1.513   2.756   9.758 -0.4627  0.0462 -0.7845
   99OSM    H9F 9950   1.454   2.770   9.849 -0.4691 -0.1061 -0.7649
   99OSM   C10F 9951   1.453   2.702   9.651 -0.0676 -0.3199  0.4499
   99OSM   H10F 9952   1.354   2.656   9.649  0.4882 -1.6624  2.2906
   99OSM   C11F 9953   1.522   2.673   9.516 -0.0568  0.0394 -0.8574
   99OSM   H11F 9954   1.481   2.581   9.469  1.3036 -2.4709  2.6201
   99OSM   H11G 9955   1.628   2.646   9.539 -0.4133 -1.4318 -0.8453
   99OSM   C12F 9956   1.521   2.792   9.416 -0.3336 -0.3694 -0.0284
   99OSM   H12F 9957   1.550   2.877   9.482  1.5042 -1.2705  0.3488
   99OSM   H12G 9958   1.416   2.800   9.379 -0.4328  2.7723  0.8049
   99OSM   C13F 9959   1.626   2.772   9.309 -0.0487 -0.1655  0.6592
   99OSM   H13F 9960   1.635   2.669   9.269 -1.2098  0.3562 -0.9783
   99OSM   H13G 9961   1.719   2.796   9.365 -0.5864  0.8480  1.1347
   99OSM   C14F 9962   1.608   2.875   9.199 -0.1186 -0.0933  0.2569
   99OSM   H14F 9963   1.606   2.982   9.229 -0.9871  0.6311 -2.2618
   99OSM   H14G 9964   1.507   2.853   9.158  0.4043 -1.8442 -0.1599
   99OSM   C15F 9965   1.702   2.858   9.083  0.3135 -0.3545 -0.4776
   99OSM   H15F 9966   1.806   2.861   9.120  1.5065 -1.0971 -3.5933
   99OSM   H15G 9967   1.677   2.946   9.019 -2.6600  0.6133  1.8519
   99OSM   C16F 9968   1.689   2.728   9.005  0.4828  0.0135  0.0166
   99OSM   H16F 9969   1.582   2.719   8.978  0.4824  1.8560 -0.6671
   99OSM   H16G 9970   1.714   2.642   9.071  0.8009  0.1239  0.0406
   99OSM   C17F 9971   1.771   2.717   8.876  0.6951  0.5466  0.7459
   99OSM   H17F 9972   1.874   2.696   8.910 -0.1940 -2.4379  1.7054
   99OSM   H17G 9973   1.759   2.807   8.811 -1.4271  0.6797  1.2947
   99OSM   C18F 9974   1.728   2.601   8.784  0.0387 -0.2896  0.3932
   99OSM   H18F 9975   1.719   2.512   8.850 -1.0598  1.0945  2.1565
   99OSM   H18G 9976   1.804   2.589   8.703 -2.2535 -0.3149 -1.8254
   99OSM   H18H 9977   1.628   2.618   8.739  0.0657  3.0331  1.4929
  100OSM      N 9978   4.134   2.517  10.676 -0.3482  1.1241 -0.7940
  100OSM    C15 9979   4.262   2.595  10.711 -0.3399  0.1397 -0.3394
  100OSM   H15A 9980   4.241   2.701  10.709 -0.1429  0.2365  1.7354
  100OSM   H15B 9981   4.345   2.574  10.645 -0.9251 -2.3519 -0.3282
  100OSM   H15C 9982   4.284   2.578  10.815 -0.6879  4.4749  0.5451
  100OSM    C14 9983   4.102   2.562  10.534 -0.6646  0.5971 -0.2881
  100OSM   H14A 9984   4.186   2.550  10.468 -0.8081  2.0172 -0.7386
  100OSM   H14B 9985   4.081   2.668  10.533 -1.5114  0.4313 -2.3039
  100OSM   H14C 9986   4.025   2.510  10.479 -2.2245  2.0563  0.4815
  100OSM    C13 9987   4.155   2.369  10.675 -0.3934  0.0157 -0.4481
  100OSM   H13A 9988   4.249   2.348  10.627  0.0872  0.3119  0.3656
  100OSM   H13B 9989   4.071   2.322  10.626 -0.3992  0.8219 -1.2175
  100OSM   H13C 9990   4.161   2.336  10.778 -0.2602  0.1596 -0.4108
  100OSM    C12 9991   4.029   2.567  10.772  0.1830  0.3482  0.7692
  100OSM   H12A 9992   4.062   2.547  10.873  1.2632  0.2454  0.4044
  100OSM   H12B 9993   3.941   2.510  10.746  1.4695 -2.0482  1.5370
  100OSM    C11 9994   3.997   2.722  10.760  0.1327  0.1510 -0.1872
  100OSM   H11A 9995   3.912   2.744  10.828 -0.4734 -2.6821  0.0051
  100OSM   H11B 9996   3.957   2.749  10.660 -0.9365 -1.4685 -0.1983
  100OSM      P 9997   4.085   2.971  10.794 -0.1057  0.2960  0.0306
  100OSM    O13 9998   3.973   3.003  10.705  0.3058 -0.1018  0.4766
  100OSM    O14 9999   4.070   3.033  10.928  0.2794  0.2741  0.1378
  100OSM    O1110000   4.220   3.038  10.738 -0.2007 -0.2014  0.9333
  100OSM    O1210001   4.104   2.813  10.796  0.0110  0.1498 -0.0767
  100OSM    C1S10002   4.276   2.991  10.618  0.0033 -0.1757 -0.0216
  100OSM    H1S10003   4.263   2.882  10.601  0.3379  0.1447 -2.5664
  100OSM    H1T10004   4.384   3.006  10.639  0.1117 -1.8066  0.7018
  100OSM     NF10005   4.269   3.006  10.373 -0.4736 -0.2602  0.2629
  100OSM    HNF10006   4.350   3.034  10.322 -0.0955  1.6103  1.8241
  100OSM    C2S10007   4.228   3.073  10.494 -0.0494 -0.0353 -0.2257
  100OSM    H2S10008   4.117   3.069  10.500  0.0847 -1.5814  1.8694
  100OSM    C3S10009   4.273   3.218  10.500 -0.0088  0.0592 -0.6736
  100OSM    H3S10010   4.382   3.220  10.477  0.2003  1.4155  0.3886
  100OSM     O310011   4.262   3.277  10.627  0.0907  0.6387  0.3237
  100OSM    HO310012   4.256   3.192  10.672  1.2603  0.8166  0.8485
  100OSM    C4S10013   4.198   3.287  10.389 -0.5366  0.7058  0.3321
  100OSM    H4S10014   4.245   3.294  10.289 -1.6210  1.8562 -0.1148
  100OSM    C5S10015   4.081   3.354  10.407 -0.0019 -0.5077  0.0581
  100OSM    H5S10016   4.029   3.338  10.503 -1.2001 -1.2120 -0.6996
  100OSM    C6S10017   4.007   3.418  10.291 -0.0105 -0.3478  0.3865
  100OSM    H6S10018   4.025   3.527  10.295  1.6656 -0.5499 -1.3354
  100OSM    H6T10019   3.899   3.404  10.313  0.2421 -0.0059  1.8994
  100OSM    C7S10020   4.037   3.385  10.143 -0.1329 -0.3985 -0.2080
  100OSM    H7S10021   4.141   3.408  10.111 -1.4014  1.2310 -3.4802
  100OSM    H7T10022   3.985   3.459  10.079 -0.9950 -1.0610 -0.2820
  100OSM    C8S10023   3.985   3.248  10.095  0.5231  0.5396  0.1536
  100OSM    H8S10024   3.874   3.245  10.095  0.5456 -2.1259 -1.7498
  100OSM    H8T10025   4.020   3.176  10.172  0.0601  0.6461  0.4624
  100OSM    C9S10026   4.033   3.211   9.955  0.8804 -0.0478 -0.2524
  100OSM    H9S10027   3.978   3.129   9.905  1.0390 -0.1926 -0.1881
  100OSM    H9T10028   4.137   3.172   9.951  0.5261 -0.9616 -0.5964
  100OSM   C10S10029   4.023   3.317   9.840  0.2852  0.5386 -0.1278
  100OSM   H10S10030   4.094   3.399   9.864  0.1924  0.5832 -0.0053
  100OSM   H10T10031   3.922   3.363   9.834 -1.2871 -2.3851  2.1750
  100OSM   C11S10032   4.060   3.260   9.702 -0.2293 -0.4264  0.0902
  100OSM   H11S10033   4.014   3.162   9.675 -1.3088 -0.8247  3.1951
  100OSM   H11T10034   4.167   3.231   9.711  0.5048  2.2791  0.3657
  100OSM   C12S10035   4.031   3.355   9.589  0.5970 -1.2853  0.0961
  100OSM   H12S10036   4.089   3.450   9.590 -0.0974 -0.8594  1.2250
  100OSM   H12T10037   3.924   3.382   9.585  1.0745  0.8385  0.9662
  100OSM   C13S10038   4.056   3.293   9.451  0.7620 -0.6032 -0.3023
  100OSM   H13S10039   3.997   3.199   9.445  1.0491 -1.0602  3.2126
  100OSM   H13T10040   4.164   3.273   9.438  0.9286  0.1921 -0.1546
  100OSM   C14S10041   4.009   3.375   9.334  0.0784 -0.2522 -0.0357
  100OSM   H14S10042   4.081   3.458   9.316 -0.3554  0.3226  0.8875
  100OSM   H14T10043   3.919   3.423   9.378  0.5314  1.1243 -0.6003
  100OSM   C15S10044   3.989   3.299   9.208  0.1737  0.3615  0.3976
  100OSM   H15S10045   3.903   3.232   9.228  1.1390 -1.2956 -0.9322
  100OSM   H15T10046   4.077   3.235   9.188  0.0927  0.1600  0.6821
  100OSM   C16S10047   3.963   3.392   9.088  0.4272  0.4815 -0.0035
  100OSM   H16S10048   4.053   3.455   9.076  0.4237  0.5916  0.5480
  100OSM   H16T10049   3.868   3.451   9.095  0.3906  0.5783 -1.2892
  100OSM   C17S10050   3.968   3.309   8.956  0.2535  0.0970  0.2155
  100OSM   H17S10051   3.901   3.223   8.978 -0.5786  0.7459  0.2204
  100OSM   H17T10052   4.069   3.263   8.943  0.3684  0.5337 -0.4755
  100OSM   C18S10053   3.921   3.366   8.824 -0.0323  0.0450  0.2174
  100OSM   H18S10054   3.902   3.284   8.751  0.2019 -1.8630  2.2498
  100OSM   H18T10055   3.990   3.447   8.792 -1.4439  1.7742  1.4217
  100OSM   H18U10056   3.827   3.424   8.840  0.5502  0.7596  1.1032
  100OSM    C1F10057   4.215   2.898  10.329  0.7224  0.1682  1.0864
  100OSM     OF10058   4.111   2.848  10.373 -0.4563  0.8201 -0.5338
  100OSM    C2F10059   4.270   2.828  10.207 -0.1754  0.1314  0.6585
  100OSM    H2F10060   4.259   2.719  10.226  1.3094  0.0497  1.1009
  100OSM    H2G10061   4.378   2.852  10.206  0.4565 -2.5187  0.1669
  100OSM    C3F10062   4.215   2.871  10.073  0.1839 -0.8634 -0.7971
  100OSM    H3F10063   4.219   2.981  10.086  0.7337 -0.8630 -0.9797
  100OSM    H3G10064   4.105   2.855  10.079  0.4260 -1.9711  0.9005
  100OSM    C4F10065   4.270   2.818   9.946  0.2224 -0.1362 -0.0289
  100OSM    H4F10066   4.247   2.710   9.937 -0.2469 -0.0392 -0.0607
  100OSM    H4G10067   4.381   2.820   9.942  0.3573 -4.0117  0.4407
  100OSM    C5F10068   4.205   2.883   9.821 -0.8950 -0.9088 -1.1391
  100OSM    H5F10069   4.200   2.990   9.850  2.0367 -1.3153  1.1919
  100OSM    H5G10070   4.104   2.843   9.800 -0.5614 -0.2705 -4.1323
  100OSM    C6F10071   4.285   2.858   9.694 -0.3647  0.0308  0.2076
  100OSM    H6F10072   4.288   2.752   9.664  1.2210  0.3115 -0.6660
  100OSM    H6G10073   4.389   2.886   9.721  0.1467 -1.7570  0.1103
  100OSM    C7F10074   4.235   2.936   9.567  0.9529 -0.2876  0.0711
  100OSM    H7F10075   4.240   3.044   9.592  1.2618  0.0016 -1.1954
  100OSM    H7G10076   4.129   2.919   9.542  1.4787  0.1478 -2.5877
  100OSM    C8F10077   4.321   2.904   9.441  0.2979 -0.5036 -0.3548
  100OSM    H8F10078   4.307   2.796   9.418 -0.1303 -0.3783 -0.6860
  100OSM    H8G10079   4.428   2.925   9.464  0.8319 -2.4053 -0.9589
  100OSM    C9F10080   4.258   2.986   9.333 -0.4145 -0.7046 -0.4012
  100OSM    H9F10081   4.274   3.094   9.346 -1.7355 -0.4132 -1.1077
  100OSM   C10F10082   4.202   2.949   9.210  0.4003  0.6225 -0.4089
  100OSM   H10F10083   4.173   3.022   9.133  1.9873 -0.3660 -1.9687
  100OSM   C11F10084   4.160   2.812   9.152  0.5095  1.2457  0.5443
  100OSM   H11F10085   4.050   2.801   9.160  0.2583  3.2320 -0.0446
  100OSM   H11G10086   4.200   2.724   9.208  1.8962  1.5542  0.0562
  100OSM   C12F10087   4.204   2.792   9.002  0.4802  0.0253 -0.2578
  100OSM   H12F10088   4.192   2.688   8.966  2.2440  0.1889 -1.3808
  100OSM   H12G10089   4.314   2.809   9.005  0.5523 -0.6446  1.4195
  100OSM   C13F10090   4.135   2.892   8.907  0.2345  0.3511 -0.5173
  100OSM   H13F10091   4.181   2.879   8.807 -0.8528 -0.3457 -0.9362
  100OSM   H13G10092   4.165   2.997   8.928 -0.1936  0.8306 -2.2247
  100OSM   C14F10093   3.979   2.879   8.904  1.3331  0.3797 -0.6359
  100OSM   H14F10094   3.942   2.929   8.995 -3.4207 -1.4568 -1.4174
  100OSM   H14G10095   3.942   2.774   8.912  0.4237  0.7363 -0.1350
  100OSM   C15F10096   3.931   2.962   8.779 -0.8710 -0.1092 -0.4498
  100OSM   H15F10097   4.004   3.043   8.757 -0.8052  0.0724  0.4373
  100OSM   H15G10098   3.831   3.010   8.789 -1.0439 -0.2885 -1.2403
  100OSM   C16F10099   3.914   2.869   8.656 -0.2984 -0.3523 -0.2562
  100OSM   H16F10100   3.992   2.791   8.651 -0.1821 -0.2701  0.2492
  100OSM   H16G10101   3.935   2.933   8.567 -0.8267 -0.3658 -0.3900
  100OSM   C17F10102   3.771   2.803   8.654  0.1100  0.0962 -0.6758
  100OSM   H17F10103   3.690   2.879   8.659 -1.0500 -1.0088 -2.0013
  100OSM   H17G10104   3.757   2.732   8.738 -0.7707  1.0546  0.0089
  100OSM   C18F10105   3.731   2.738   8.518 -0.8250  0.0593  0.3880
  100OSM   H18F10106   3.803   2.670   8.469 -2.9783 -1.0535 -1.3383
  100OSM   H18G10107   3.704   2.820   8.448 -2.2352  0.5666  1.4961
  100OSM   H18H10108   3.635   2.682   8.528 -1.4706  1.3070  1.4166
  101OSM      N10109   0.022   3.598  11.230 -0.3537  0.0171 -0.1662
  101OSM    C1510110  -0.001   3.599  11.375 -0.4137  0.3961 -0.4217
  101OSM   H15A10111  -0.022   3.696  11.416 -0.4272 -0.0945  0.7508
  101OSM   H15B10112   0.087   3.565  11.429 -0.1442  1.4941 -0.1638
  101OSM   H15C10113  -0.068   3.522  11.408 -0.6231  1.5393  1.8633
  101OSM    C1410114  -0.099   3.635  11.166 -0.1808 -0.3219 -0.2008
  101OSM   H14A10115  -0.131   3.735  11.189 -0.4333 -0.0730 -1.5527
  101OSM   H14B10116  -0.177   3.566  11.196  0.1080  0.1051  1.5984
  101OSM   H14C10117  -0.092   3.622  11.059  0.6747  0.0290 -0.1906
  101OSM    C1310118   0.131   3.692  11.194  0.0382 -0.1149  0.0988
  101OSM   H13A10119   0.144   3.700  11.087  1.0438  0.4955  0.2498
  101OSM   H13B10120   0.230   3.657  11.219 -0.3095 -0.6004  0.7866
  101OSM   H13C10121   0.109   3.779  11.254 -0.7333  0.5951 -1.1770
  101OSM    C1210122   0.062   3.459  11.188 -0.7731 -0.0851 -0.4970
  101OSM   H12A10123  -0.014   3.389  11.220 -1.0504 -0.7538 -2.5485
  101OSM   H12B10124   0.150   3.440  11.248  1.0749  0.0819 -3.0688
  101OSM    C1110125   0.111   3.434  11.043  0.2672  0.2793 -0.1763
  101OSM   H11A10126   0.041   3.473  10.967  1.3845 -1.6077 -2.2472
  101OSM   H11B10127   0.126   3.329  11.010 -0.1555  0.4543 -0.9282
  101OSM      P10128   0.376   3.438  11.011 -0.1348  0.0056 -0.0590
  101OSM    O1310129   0.461   3.527  10.928  0.7193 -0.2696  0.5039
  101OSM    O1410130   0.426   3.397  11.144 -0.1037 -0.1391  0.3690
  101OSM    O1110131   0.344   3.312  10.925  0.2659  0.5638  0.0237
  101OSM    O1210132   0.234   3.503  11.022  0.2961 -0.0717  0.0064
  101OSM    C1S10133   0.307   3.315  10.785 -0.0610  0.7590 -0.0518
  101OSM    H1S10134   0.356   3.399  10.731 -0.5322  0.0342 -1.6272
  101OSM    H1T10135   0.198   3.322  10.768  0.1529 -1.2517 -2.4653
  101OSM     NF10136   0.309   3.178  10.579  0.4427  0.1744 -0.2454
  101OSM    HNF10137   0.231   3.124  10.546 -1.8800  2.6107  1.0539
  101OSM    C2S10138   0.339   3.177  10.721  0.6524  0.3600  0.1879
  101OSM    H2S10139   0.450   3.166  10.729  0.6655 -0.4140 -0.8579
  101OSM    C3S10140   0.272   3.058  10.792 -0.1513 -0.2628 -0.5507
  101OSM    H3S10141   0.161   3.056  10.779 -0.1310 -0.5844 -0.6782
  101OSM     O310142   0.293   3.049  10.930 -0.1567 -0.3933  0.3670
  101OSM    HO310143   0.331   3.135  10.948  1.0264 -0.9378  0.4925
  101OSM    C4S10144   0.319   2.930  10.721  0.0004 -0.5007 -0.3758
  101OSM    H4S10145   0.426   2.907  10.715 -0.1055 -0.9821 -0.4532
  101OSM    C5S10146   0.246   2.830  10.665 -0.6698  0.2332  0.0067
  101OSM    H5S10147   0.137   2.842  10.660 -0.6673  0.2383 -0.0329
  101OSM    C6S10148   0.285   2.699  10.606 -0.2197  0.0104 -0.4346
  101OSM    H6S10149   0.222   2.615  10.642 -0.1652  1.1228  2.3077
  101OSM    H6T10150   0.393   2.675  10.615 -0.3383 -0.6257 -0.6826
  101OSM    C7S10151   0.265   2.703  10.452  0.4867  0.0067  0.2456
  101OSM    H7S10152   0.159   2.675  10.430  0.6425 -0.9068  0.6603
  101OSM    H7T10153   0.328   2.620  10.415  1.7457  1.1583 -0.2262
  101OSM    C8S10154   0.319   2.831  10.384  0.8650 -0.1058  0.7654
  101OSM    H8S10155   0.422   2.842  10.423  1.0012 -0.8859  0.6312
  101OSM    H8T10156   0.265   2.923  10.416  1.6104  1.2282 -1.7010
  101OSM    C9S10157   0.325   2.814  10.228 -0.5799 -0.2364 -0.3404
  101OSM    H9S10158   0.389   2.725  10.206 -2.2275 -1.0714 -1.8055
  101OSM    H9T10159   0.384   2.901  10.194 -1.2054  0.6811  0.8911
  101OSM   C10S10160   0.191   2.799  10.166 -0.6645  0.4398  0.4020
  101OSM   H10S10161   0.117   2.878  10.190 -0.4829  0.3989  1.1000
  101OSM   H10T10162   0.144   2.700  10.181 -1.6712  1.0909  1.5761
  101OSM   C11S10163   0.200   2.806  10.010  0.0641  0.2288 -0.0338
  101OSM   H11S10164   0.103   2.776   9.966  0.7845 -2.0316 -0.1125
  101OSM   H11T10165   0.275   2.730   9.981  1.1148  0.6420  1.4899
  101OSM   C12S10166   0.233   2.943   9.950 -0.2378  0.4307 -0.9524
  101OSM   H12S10167   0.336   2.978   9.974  0.1524 -2.3270  1.7963
  101OSM   H12T10168   0.175   3.028   9.992 -0.0924  0.0827 -0.0311
  101OSM   C13S10169   0.212   2.931   9.800  0.2644 -0.2196 -0.1073
  101OSM   H13S10170   0.248   3.025   9.753  1.7083 -1.2181 -1.0365
  101OSM   H13T10171   0.106   2.915   9.771  0.7620 -0.8644 -1.6210
  101OSM   C14S10172   0.282   2.803   9.732 -0.2149 -0.0188  0.1321
  101OSM   H14S10173   0.224   2.712   9.762 -1.3004 -0.2332 -2.4041
  101OSM   H14T10174   0.380   2.800   9.783 -0.4767  5.1939  1.1488
  101OSM   C15S10175   0.283   2.791   9.578  0.3133 -0.7028 -0.2727
  101OSM   H15S10176   0.321   2.890   9.544  0.3764 -0.3753  0.7335
  101OSM   H15T10177   0.176   2.771   9.558 -0.1464  0.9162  0.5616
  101OSM   C16S10178   0.367   2.664   9.532 -0.1142 -0.1039  1.0034
  101OSM   H16S10179   0.347   2.579   9.600  0.8293 -2.8945 -2.0658
  101OSM   H16T10180   0.470   2.704   9.536 -0.1462  0.1616 -0.4559
  101OSM   C17S10181   0.340   2.625   9.390 -0.4299 -0.0270  0.2036
  101OSM   H17S10182   0.245   2.568   9.381  1.1397 -2.3797 -2.5492
  101OSM   H17T10183   0.409   2.540   9.372  1.7100  1.9571 -1.2838
  101OSM   C18S10184   0.346   2.731   9.285  0.2031 -0.3163 -0.4604
  101OSM   H18S10185   0.448   2.775   9.291 -0.4196  1.2180 -0.6881
  101OSM   H18T10186   0.270   2.810   9.307  0.7176 -0.2524  1.1456
  101OSM   H18U10187   0.334   2.703   9.178  1.6430 -1.1581 -0.4097
  101OSM    C1F10188   0.368   3.252  10.485  0.5622 -1.1457  0.2415
  101OSM     OF10189   0.468   3.322  10.513  0.6848  0.1634 -0.6605
  101OSM    C2F10190   0.308   3.242  10.341 -0.0277 -0.3748 -0.4982
  101OSM    H2F10191   0.214   3.301  10.348  0.9641  1.1658  0.3071
  101OSM    H2G10192   0.291   3.137  10.313  1.2819 -1.4302  2.4172
  101OSM    C3F10193   0.390   3.295  10.226 -0.4203 -0.4891 -0.5294
  101OSM    H3F10194   0.484   3.236  10.232 -0.8200 -1.0052  0.6823
  101OSM    H3G10195   0.421   3.400  10.247  2.1511 -0.9122 -1.9372
  101OSM    C4F10196   0.318   3.295  10.095  0.4487  0.8307 -0.0633
  101OSM    H4F10197   0.249   3.383  10.094  0.7492  1.0609 -1.4874
  101OSM    H4G10198   0.265   3.197  10.090  2.7187 -0.4035 -0.3051
  101OSM    C5F10199   0.411   3.311   9.968 -0.0197  0.2700 -0.4207
  101OSM    H5F10200   0.484   3.228   9.972  1.2426  1.3193 -1.4193
  101OSM    H5G10201   0.464   3.408   9.971 -1.5347  1.0796  1.0776
  101OSM    C6F10202   0.325   3.308   9.831 -0.4085  0.2190 -0.8824
  101OSM    H6F10203   0.251   3.225   9.821  0.2049 -0.8298  2.6066
  101OSM    H6G10204   0.262   3.399   9.829  0.6850  1.0423  1.5194
  101OSM    C7F10205   0.436   3.305   9.728 -0.3126 -0.2061 -0.0476
  101OSM    H7F10206   0.524   3.364   9.761 -0.2550  0.1581 -0.8136
  101OSM    H7G10207   0.387   3.363   9.646 -0.2500  0.2088  0.2082
  101OSM    C8F10208   0.470   3.166   9.674  0.0851  0.1429  0.1933
  101OSM    H8F10209   0.382   3.129   9.617  0.5622  1.0217 -1.1446
  101OSM    H8G10210   0.495   3.090   9.752 -1.1142 -0.7980 -0.3175
  101OSM    C9F10211   0.588   3.177   9.576 -0.7837  0.2892  0.4640
  101OSM    H9F10212   0.687   3.169   9.624 -0.2678  0.5279 -0.5509
  101OSM   C10F10213   0.587   3.204   9.450  0.8352 -0.0681  0.3722
  101OSM   H10F10214   0.686   3.222   9.405  0.8011 -0.7491  0.0269
  101OSM   C11F10215   0.484   3.230   9.349  0.1541 -0.6416 -0.2324
  101OSM   H11F10216   0.483   3.340   9.334  0.6728 -0.6495 -0.3189
  101OSM   H11G10217   0.385   3.197   9.389 -0.0565  1.4253  1.0286
  101OSM   C12F10218   0.527   3.169   9.216  0.1117 -0.3000  0.2876
  101OSM   H12F10219   0.548   3.062   9.235 -1.5773 -1.4321 -3.6957
  101OSM   H12G10220   0.621   3.214   9.177  0.5181  0.2544  1.8770
  101OSM   C13F10221   0.415   3.199   9.118 -0.3986  0.1717  0.0909
  101OSM   H13F10222   0.413   3.306   9.089 -1.3791 -0.2138 -1.2956
  101OSM   H13G10223   0.316   3.184   9.167 -1.6384  0.2346 -2.3263
  101OSM   C14F10224   0.427   3.107   8.993  0.6408 -0.0879 -0.2498
  101OSM   H14F10225   0.528   3.060   8.995  1.1677  0.9897 -1.1159
  101OSM   H14G10226   0.416   3.167   8.901  0.2872 -0.0073 -0.1554
  101OSM   C15F10227   0.313   2.995   8.999  0.2229  0.8872 -0.1760
  101OSM   H15F10228   0.217   3.044   9.025  0.3504  0.7668  0.5151
  101OSM   H15G10229   0.338   2.920   9.077 -0.3272  2.0110  1.1002
  101OSM   C16F10230   0.308   2.916   8.871  0.5641 -0.1988  0.0476
  101OSM   H16F10231   0.278   2.986   8.791 -1.3423 -0.0301  0.8792
  101OSM   H16G10232   0.229   2.838   8.887 -0.2802  0.3565 -1.3145
  101OSM   C17F10233   0.435   2.841   8.844  0.4369 -0.2934  0.5676
  101OSM   H17F10234   0.462   2.772   8.927  0.2473 -1.3026 -0.2112
  101OSM   H17G10235   0.525   2.907   8.834  0.5552 -0.4249  0.7611
  101OSM   C18F10236   0.432   2.749   8.722 -0.4309  0.2209 -0.5320
  101OSM   H18F10237   0.426   2.798   8.622 -1.0347  0.5087 -0.3556
  101OSM   H18G10238   0.344   2.683   8.721  0.1359 -0.5648  0.4387
  101OSM   H18H10239   0.524   2.687   8.715 -1.1100 -0.7679 -0.7173
  102OSM      N10240   2.465   5.535  10.991 -0.4184 -0.1070 -0.4114
  102OSM    C1510241   2.588   5.617  10.996  0.1047 -0.5560 -0.0067
  102OSM   H15A10242   2.626   5.638  11.094 -0.6114 -0.1639  0.1974
  102OSM   H15B10243   2.576   5.718  10.959  2.4556  0.0319  0.7772
  102OSM   H15C10244   2.665   5.572  10.936  2.9177  1.9318  1.5991
  102OSM    C1410245   2.490   5.400  11.045  0.0920  0.4303  0.1171
  102OSM   H14A10246   2.568   5.355  10.986  0.9405  2.6949 -0.5618
  102OSM   H14B10247   2.407   5.332  11.040  1.5103 -1.3467 -0.0388
  102OSM   H14C10248   2.540   5.406  11.140  1.7136  3.7385 -0.8591
  102OSM    C1310249   2.355   5.599  11.076 -0.4662 -0.3332 -0.3573
  102OSM   H13A10250   2.278   5.524  11.086  0.4853 -1.1867  0.6739
  102OSM   H13B10251   2.324   5.695  11.036  1.6298  0.9909  1.0617
  102OSM   H13C10252   2.384   5.615  11.179 -0.0674  3.5978 -0.9945
  102OSM    C1210253   2.422   5.523  10.851  0.1988  0.1502  0.3635
  102OSM   H12A10254   2.378   5.617  10.821 -1.2470  0.4518  3.1543
  102OSM   H12B10255   2.348   5.445  10.857  1.0374 -0.9292 -2.7035
  102OSM    C1110256   2.516   5.465  10.742  0.2915  0.0793 -0.5599
  102OSM   H11A10257   2.597   5.540  10.730  0.3246 -0.1685 -1.8921
  102OSM   H11B10258   2.452   5.454  10.651  0.8875 -1.9769 -0.7689
  102OSM      P10259   2.698   5.280  10.731 -0.0208 -0.2914  0.2479
  102OSM    O1310260   2.806   5.380  10.751  0.2854  0.1919  0.2956
  102OSM    O1410261   2.716   5.153  10.798 -0.1730 -0.0927  0.1809
  102OSM    O1110262   2.667   5.262  10.575 -0.4012  0.1583 -0.0231
  102OSM    O1210263   2.564   5.341  10.782  0.5975 -0.0204 -0.0292
  102OSM    C1S10264   2.773   5.194  10.500 -0.0728  0.3196 -1.2636
  102OSM    H1S10265   2.764   5.085  10.521 -0.2277  0.6512  0.4639
  102OSM    H1T10266   2.876   5.220  10.532 -1.3405  1.8457  1.7738
  102OSM     NF10267   2.831   5.134  10.272 -0.0483 -0.1506  0.0855
  102OSM    HNF10268   2.913   5.185  10.246  1.1666 -1.9969  0.1796
  102OSM    C2S10269   2.748   5.222  10.350  0.4371  0.1177  0.2627
  102OSM    H2S10270   2.644   5.190  10.331  0.0287  1.4128  0.2856
  102OSM    C3S10271   2.768   5.376  10.330  0.5934 -0.4101 -0.3787
  102OSM    H3S10272   2.866   5.393  10.379  0.8701  0.3987 -1.2129
  102OSM     O310273   2.666   5.454  10.401  0.7943 -0.6322  0.0415
  102OSM    HO310274   2.632   5.399  10.472  2.9155 -1.3757  0.5248
  102OSM    C4S10275   2.776   5.422  10.192  0.7569  0.1111 -0.0192
  102OSM    H4S10276   2.682   5.453  10.144  0.9639  0.8025  0.0149
  102OSM    C5S10277   2.896   5.436  10.125  0.4299 -0.9667 -0.1724
  102OSM    H5S10278   2.993   5.411  10.171 -0.3564 -1.6876  1.1176
  102OSM    C6S10279   2.917   5.491   9.984  0.7709  0.2014  0.2602
  102OSM    H6S10280   2.973   5.417   9.924  2.5693  1.2265  0.6174
  102OSM    H6T10281   2.978   5.584   9.977 -0.7117  1.1639 -0.0404
  102OSM    C7S10282   2.789   5.526   9.903  0.0282  0.2449 -0.8823
  102OSM    H7S10283   2.757   5.617   9.959 -1.0068  0.3644 -1.6503
  102OSM    H7T10284   2.711   5.449   9.918 -0.2196  0.9264  1.4671
  102OSM    C8S10285   2.812   5.557   9.754  0.2630  0.4031  0.3637
  102OSM    H8S10286   2.856   5.465   9.710 -1.8794 -0.1227 -0.7054
  102OSM    H8T10287   2.878   5.645   9.743 -1.3080  1.4765 -0.5943
  102OSM    C9S10288   2.672   5.574   9.679  0.0129 -0.9796 -0.2216
  102OSM    H9S10289   2.608   5.652   9.725  0.3648 -1.6040  1.3434
  102OSM    H9T10290   2.620   5.477   9.695 -0.5668 -0.5268  0.6684
  102OSM   C10S10291   2.689   5.607   9.530 -0.6281  0.2973 -0.4494
  102OSM   H10S10292   2.721   5.713   9.536  1.0376 -0.2995  2.0461
  102OSM   H10T10293   2.590   5.602   9.480 -0.0657 -0.2448 -1.5302
  102OSM   C11S10294   2.795   5.519   9.460  0.3058  0.3539 -0.3571
  102OSM   H11S10295   2.789   5.420   9.510  0.2316  0.8628  0.6427
  102OSM   H11T10296   2.896   5.560   9.478  0.1058  1.4401 -1.5910
  102OSM   C12S10297   2.785   5.524   9.310  0.0490 -0.1749  0.6197
  102OSM   H12S10298   2.683   5.484   9.290  1.3522 -2.8733 -0.8361
  102OSM   H12T10299   2.855   5.455   9.259  1.0838  0.2547  1.4535
  102OSM   C13S10300   2.786   5.658   9.242 -0.3361  0.1407 -0.6358
  102OSM   H13S10301   2.872   5.721   9.274 -2.0471  1.9815  0.4608
  102OSM   H13T10302   2.695   5.712   9.278  1.0821  0.7525  2.2396
  102OSM   C14S10303   2.788   5.653   9.088  0.2196 -0.7617  0.1998
  102OSM   H14S10304   2.703   5.590   9.057 -1.0217  1.9082 -2.0265
  102OSM   H14T10305   2.881   5.622   9.035  3.5528  2.3553  3.9084
  102OSM   C15S10306   2.756   5.793   9.031 -0.5720 -0.2010  0.3836
  102OSM   H15S10307   2.849   5.841   9.070  0.2193 -1.2643 -0.1778
  102OSM   H15T10308   2.668   5.834   9.085  0.9439 -0.1521  2.9117
  102OSM   C16S10309   2.734   5.811   8.885 -0.2609  0.2273 -0.1127
  102OSM   H16S10310   2.661   5.733   8.855  0.6825 -1.2103  1.2605
  102OSM   H16T10311   2.834   5.791   8.842 -0.0422  3.2700 -1.1212
  102OSM   C17S10312   2.686   5.943   8.832 -0.3119 -0.0776  0.5743
  102OSM   H17S10313   2.588   5.972   8.878 -0.6036  1.9632 -1.2522
  102OSM   H17T10314   2.687   5.935   8.721 -0.5121  1.2780  0.4657
  102OSM   C18S10315   2.782   6.066   8.858  0.5187 -0.2319  0.4568
  102OSM   H18S10316   2.777   6.087   8.967  0.1118 -0.4806  0.4869
  102OSM   H18T10317   2.753   6.159   8.806  0.8569 -1.4248 -1.9511
  102OSM   H18U10318   2.890   6.050   8.837  0.8202  3.0749 -0.7682
  102OSM    C1F10319   2.821   5.001  10.269 -0.1558 -0.0903  0.0741
  102OSM     OF10320   2.745   4.942  10.337  0.3066 -0.2090  0.3279
  102OSM    C2F10321   2.896   4.920  10.165 -0.3578 -1.2182 -0.2987
  102OSM    H2F10322   2.816   4.859  10.119 -2.0479  0.3532  0.5102
  102OSM    H2G10323   2.949   4.839  10.220 -1.0745 -0.5005  1.5097
  102OSM    C3F10324   2.992   4.991  10.065  0.3860 -0.4077 -0.1558
  102OSM    H3F10325   3.049   4.909  10.017 -1.4769 -1.2553 -0.9946
  102OSM    H3G10326   3.072   5.053  10.111  2.5849 -3.5131  0.3891
  102OSM    C4F10327   2.920   5.079   9.958 -0.2311 -0.6719  1.3023
  102OSM    H4F10328   2.853   5.155  10.003 -1.1268  0.5279 -1.9523
  102OSM    H4G10329   2.858   5.004   9.905  1.6262 -0.9575 -0.5253
  102OSM    C5F10330   3.018   5.146   9.863 -0.4538 -0.5176 -0.1611
  102OSM    H5F10331   3.097   5.199   9.921  1.0588 -1.0241 -1.7336
  102OSM    H5G10332   2.969   5.225   9.802 -2.2536 -1.2750  0.2910
  102OSM    C6F10333   3.089   5.060   9.759 -0.2035  0.1118 -0.0916
  102OSM    H6F10334   3.011   5.032   9.685 -1.2586  2.6443  0.0179
  102OSM    H6G10335   3.128   4.966   9.803 -2.2684 -0.4080  0.6738
  102OSM    C7F10336   3.198   5.132   9.684 -0.7792  0.1020  0.3112
  102OSM    H7F10337   3.237   5.058   9.611  0.8713 -1.6397  2.8917
  102OSM    H7G10338   3.279   5.167   9.751 -0.6511 -1.9106  1.2310
  102OSM    C8F10339   3.149   5.260   9.602  0.0532  0.2381 -0.1067
  102OSM    H8F10340   3.228   5.284   9.528 -0.9823 -0.8227 -1.6001
  102OSM    H8G10341   3.146   5.346   9.672  2.0388  0.5356 -0.3768
  102OSM    C9F10342   3.014   5.244   9.531  0.1055 -0.6139 -0.1488
  102OSM    H9F10343   2.934   5.296   9.586 -0.4428  0.5716 -2.0341
  102OSM   C10F10344   2.984   5.178   9.417 -0.0795 -0.8166  0.1061
  102OSM   H10F10345   2.883   5.186   9.374 -0.3083 -3.6168  0.0056
  102OSM   C11F10346   3.088   5.109   9.327 -0.2007  0.3482  0.0851
  102OSM   H11F10347   3.034   5.028   9.274  0.8581 -0.1705 -0.2125
  102OSM   H11G10348   3.166   5.055   9.384  0.9831  0.2729 -1.5777
  102OSM   C12F10349   3.157   5.205   9.229 -0.4939  0.1552  0.0643
  102OSM   H12F10350   3.232   5.142   9.176  1.2802  2.2999 -0.0755
  102OSM   H12G10351   3.200   5.288   9.290  0.7088 -2.0429  2.2604
  102OSM   C13F10352   3.070   5.275   9.127 -0.1926  0.9200 -0.1845
  102OSM   H13F10353   3.051   5.380   9.159 -2.5998  0.5250 -0.2466
  102OSM   H13G10354   2.971   5.224   9.124 -0.3861  1.2971 -0.2953
  102OSM   C14F10355   3.128   5.290   8.991  0.0111 -0.2208 -0.1346
  102OSM   H14F10356   3.145   5.195   8.936  0.6639 -1.1905  1.7007
  102OSM   H14G10357   3.225   5.342   9.004 -0.2922  0.1780  0.5664
  102OSM   C15F10358   3.047   5.388   8.905 -0.0546 -0.3113  0.7972
  102OSM   H15F10359   3.107   5.436   8.825 -0.0330  0.6235  1.3776
  102OSM   H15G10360   3.021   5.477   8.966 -0.0637 -0.4922  1.0590
  102OSM   C16F10361   2.928   5.320   8.835  0.4411  0.1967  0.3877
  102OSM   H16F10362   2.875   5.263   8.914 -1.4171  0.5539 -0.5789
  102OSM   H16G10363   2.964   5.251   8.756  1.4908  0.7347  0.3889
  102OSM   C17F10364   2.824   5.419   8.773 -0.0545 -0.0321  0.4378
  102OSM   H17F10365   2.791   5.493   8.849 -0.6692  1.0337 -0.8498
  102OSM   H17G10366   2.728   5.366   8.755 -0.5973  0.5635  1.5096
  102OSM   C18F10367   2.869   5.484   8.643  0.4748  0.4461  0.5099
  102OSM   H18F10368   2.795   5.470   8.562  1.5748  3.3889 -1.0609
  102OSM   H18G10369   2.957   5.426   8.607 -0.1944 -1.6675  2.1793
  102OSM   H18H10370   2.891   5.592   8.657  2.0917  0.1502  0.2878
  103OSM      N10371   1.506   1.345  11.068  0.6718 -0.0150 -0.2630
  103OSM    C1510372   1.408   1.240  11.034 -0.2081 -0.5518 -0.1936
  103OSM   H15A10373   1.353   1.267  10.944 -1.0164 -1.8926 -0.1190
  103OSM   H15B10374   1.345   1.233  11.121 -1.8530 -2.0170 -1.4642
  103OSM   H15C10375   1.458   1.146  11.014  0.8591 -0.1629  0.6498
  103OSM    C1410376   1.593   1.323  11.184 -0.0110  0.0215 -0.2804
  103OSM   H14A10377   1.674   1.393  11.190 -1.8289  2.1807 -0.1857
  103OSM   H14B10378   1.633   1.223  11.175 -2.0753 -0.9908  1.3253
  103OSM   H14C10379   1.534   1.309  11.274  1.3691 -0.4056  0.5709
  103OSM    C1310380   1.595   1.357  10.948  0.4027 -0.1729  0.3853
  103OSM   H13A10381   1.645   1.264  10.928  0.4858 -0.7049  2.9348
  103OSM   H13B10382   1.657   1.445  10.960  1.2133 -0.9725  2.1170
  103OSM   H13C10383   1.539   1.383  10.859  1.5687  1.1629  0.0157
  103OSM    C1210384   1.447   1.483  11.094 -0.1198 -0.3142  0.0364
  103OSM   H12A10385   1.521   1.559  11.073  1.0102 -0.9560  1.6339
  103OSM   H12B10386   1.424   1.488  11.199 -1.2447 -0.7729 -0.1828
  103OSM    C1110387   1.318   1.518  11.009 -0.2744  0.3269 -0.4981
  103OSM   H11A10388   1.296   1.627  11.018 -1.6656 -0.0127  0.2370
  103OSM   H11B10389   1.234   1.467  11.060  0.4127  0.8355  1.1677
  103OSM      P10390   1.364   1.579  10.766  0.0261  0.2134  0.3161
  103OSM    O1310391   1.468   1.677  10.807 -0.0560  0.3836  0.5547
  103OSM    O1410392   1.389   1.500  10.646  0.2937  0.4583  0.1425
  103OSM    O1110393   1.232   1.656  10.737  0.8754 -0.4610 -0.3860
  103OSM    O1210394   1.312   1.472  10.875  0.2311  0.0644 -0.0379
  103OSM    C1S10395   1.242   1.749  10.628 -0.0709 -0.1020 -0.7274
  103OSM    H1S10396   1.343   1.785  10.598 -0.7483  2.0170 -0.5822
  103OSM    H1T10397   1.192   1.846  10.649  1.1426  0.2768  0.4515
  103OSM     NF10398   1.211   1.778  10.376 -0.1910 -0.1816  0.1068
  103OSM    HNF10399   1.139   1.845  10.355  0.2375 -0.4766 -2.4580
  103OSM    C2S10400   1.174   1.696  10.487  0.0159  0.0968  0.1780
  103OSM    H2S10401   1.214   1.594  10.468  2.0719  0.6818  1.2030
  103OSM    C3S10402   1.021   1.682  10.507  0.4234 -0.6078  0.2846
  103OSM    H3S10403   0.972   1.781  10.524  2.4452  0.4201  0.3143
  103OSM     O310404   0.995   1.602  10.622  0.4901  1.2203 -0.2321
  103OSM    HO310405   1.068   1.610  10.683  0.1001  3.3853  0.0094
  103OSM    C4S10406   0.962   1.615  10.398  0.0240  0.2402 -0.0329
  103OSM    H4S10407   0.979   1.507  10.405  0.8982  0.3293 -0.6610
  103OSM    C5S10408   0.890   1.672  10.297 -0.0622 -0.2948  0.0774
  103OSM    H5S10409   0.877   1.781  10.307 -0.7409 -0.5693  2.6096
  103OSM    C6S10410   0.828   1.597  10.181  0.0736  0.3092 -0.2010
  103OSM    H6S10411   0.883   1.626  10.089  2.1576  1.3494  1.3515
  103OSM    H6T10412   0.721   1.621  10.165 -0.2419 -0.7680  0.2197
  103OSM    C7S10413   0.833   1.444  10.206  0.3305  0.1771  0.0434
  103OSM    H7S10414   0.831   1.422  10.315  2.1709 -0.5650 -0.0458
  103OSM    H7T10415   0.936   1.411  10.181  0.5117 -0.5052  1.6465
  103OSM    C8S10416   0.724   1.366  10.128 -0.3654 -0.1690 -0.4888
  103OSM    H8S10417   0.631   1.423  10.145  0.8716  1.5804  0.6193
  103OSM    H8T10418   0.712   1.261  10.162 -0.1585 -0.4231 -1.1945
  103OSM    C9S10419   0.746   1.364   9.986  0.0454  0.3569  0.5156
  103OSM    H9S10420   0.811   1.281   9.950 -1.3393 -0.3946 -0.3252
  103OSM    H9T10421   0.786   1.463   9.955  0.9999 -0.0191  0.5498
  103OSM   C10S10422   0.623   1.350   9.891  0.4267 -0.0261  0.2817
  103OSM   H10S10423   0.551   1.430   9.916  0.6054 -0.0430  0.8638
  103OSM   H10T10424   0.570   1.253   9.908  0.4024  0.1944  1.5024
  103OSM   C11S10425   0.659   1.366   9.741 -0.7629 -0.0139  0.1114
  103OSM   H11S10426   0.707   1.270   9.710  2.9602  1.9719 -0.6179
  103OSM   H11T10427   0.729   1.452   9.753 -1.8674  0.7308  1.3397
  103OSM   C12S10428   0.546   1.412   9.649 -0.0493  0.1063 -1.0368
  103OSM   H12S10429   0.497   1.509   9.673 -0.6770 -0.3995 -0.2317
  103OSM   H12T10430   0.474   1.332   9.675 -0.2740 -0.3193 -2.9211
  103OSM   C13S10431   0.578   1.397   9.502 -0.0512 -0.2750  0.3043
  103OSM   H13S10432   0.484   1.397   9.442  0.1297 -3.0753 -0.0569
  103OSM   H13T10433   0.633   1.301   9.492  1.2614  0.3640  1.2676
  103OSM   C14S10434   0.682   1.506   9.469 -0.4233 -0.5556  0.0622
  103OSM   H14S10435   0.773   1.502   9.533  0.9395  1.4416 -1.6966
  103OSM   H14T10436   0.632   1.599   9.502  0.4663 -0.3495  0.8589
  103OSM   C15S10437   0.733   1.507   9.321  0.3765  0.1243  0.3038
  103OSM   H15S10438   0.776   1.409   9.293  1.0078  0.5812 -0.3259
  103OSM   H15T10439   0.811   1.585   9.308 -0.8477  1.0583 -1.8532
  103OSM   C16S10440   0.611   1.537   9.235  0.7628 -0.5821 -0.7495
  103OSM   H16S10441   0.559   1.631   9.260  0.3990 -0.1833 -2.8993
  103OSM   H16T10442   0.532   1.460   9.251  0.5784 -0.0974  0.6985
  103OSM   C17S10443   0.645   1.549   9.082 -0.3018  0.1460 -0.1320
  103OSM   H17S10444   0.559   1.580   9.018 -0.6023 -3.1345 -1.3944
  103OSM   H17T10445   0.675   1.450   9.043 -1.1661  0.2475 -1.0832
  103OSM   C18S10446   0.751   1.664   9.050  0.6397  0.1247 -0.8684
  103OSM   H18S10447   0.726   1.755   9.108  0.5191 -0.8389  0.6216
  103OSM   H18T10448   0.740   1.691   8.943  1.1746 -0.8927 -1.1900
  103OSM   H18U10449   0.853   1.635   9.083  1.1425  2.5906 -0.1533
  103OSM    C1F10450   1.334   1.770  10.324 -1.4515 -0.3884  0.0022
  103OSM     OF10451   1.425   1.708  10.378  0.3980  0.2715 -0.2224
  103OSM    C2F10452   1.365   1.866  10.211  0.3834  0.0202 -0.1646
  103OSM    H2F10453   1.434   1.943  10.252  0.2832 -0.5066  1.0130
  103OSM    H2G10454   1.269   1.900  10.167 -1.1933 -1.9119  1.6307
  103OSM    C3F10455   1.433   1.792  10.098 -0.7027  0.3150 -0.2216
  103OSM    H3F10456   1.355   1.721  10.064  1.4719 -1.2119 -2.1741
  103OSM    H3G10457   1.518   1.729  10.132 -1.1350  0.0806  0.4296
  103OSM    C4F10458   1.481   1.883   9.975  0.5204  0.2871  0.6416
  103OSM    H4F10459   1.559   1.957  10.005  2.5351 -1.2192 -0.7220
  103OSM    H4G10460   1.398   1.945   9.936  0.3022 -0.4501 -0.0591
  103OSM    C5F10461   1.553   1.818   9.860 -0.2567 -1.2421  0.2595
  103OSM    H5F10462   1.487   1.752   9.799 -0.8083  0.6443 -1.2281
  103OSM    H5G10463   1.626   1.746   9.904  2.0226  0.6067 -0.3990
  103OSM    C6F10464   1.621   1.928   9.776  0.1026  0.4659  0.0849
  103OSM    H6F10465   1.706   1.955   9.842 -1.0894  2.5319  0.7912
  103OSM    H6G10466   1.560   2.017   9.750  1.2317  0.7584 -1.6009
  103OSM    C7F10467   1.682   1.884   9.637  0.1507 -0.1238 -0.1326
  103OSM    H7F10468   1.674   1.774   9.636  0.9830 -0.1878  0.3379
  103OSM    H7G10469   1.789   1.914   9.639  0.1450 -0.1389  0.6011
  103OSM    C8F10470   1.599   1.937   9.521 -1.2608  0.7486  0.3180
  103OSM    H8F10471   1.588   2.047   9.516  3.7490  1.2625 -2.8573
  103OSM    H8G10472   1.505   1.879   9.531 -1.2718  0.8627  0.8873
  103OSM    C9F10473   1.667   1.913   9.391 -0.4621 -0.9634 -0.1873
  103OSM    H9F10474   1.770   1.875   9.401  0.7968  2.0055 -1.3659
  103OSM   C10F10475   1.612   1.941   9.271 -0.2650  0.3697 -0.4008
  103OSM   H10F10476   1.682   1.933   9.187 -0.9713 -2.8113 -0.7279
  103OSM   C11F10477   1.478   1.994   9.238 -0.0220  0.3484 -0.0726
  103OSM   H11F10478   1.435   2.043   9.328  1.0244  0.0340  0.5935
  103OSM   H11G10479   1.414   1.910   9.203  2.6545 -2.0323  0.6100
  103OSM   C12F10480   1.480   2.095   9.125 -0.2700 -0.2517  0.1810
  103OSM   H12F10481   1.560   2.170   9.143  0.5343 -0.8893 -0.6954
  103OSM   H12G10482   1.376   2.133   9.132 -0.3883 -0.7229  1.0040
  103OSM   C13F10483   1.510   2.046   8.977 -0.1122  0.1595 -0.2653
  103OSM   H13F10484   1.419   1.996   8.937  0.6252 -0.8517 -0.7064
  103OSM   H13G10485   1.601   1.983   8.972  0.0208  0.2770  0.6458
  103OSM   C14F10486   1.536   2.162   8.876 -0.0827  0.2388 -0.0936
  103OSM   H14F10487   1.636   2.204   8.902  0.7924  0.2373 -3.1801
  103OSM   H14G10488   1.462   2.244   8.884  0.1453  0.5933 -1.3947
  103OSM   C15F10489   1.528   2.110   8.734 -0.3503 -0.0348 -0.3090
  103OSM   H15F10490   1.425   2.080   8.706 -0.3410  0.8367 -1.3231
  103OSM   H15G10491   1.594   2.021   8.719 -0.1168  0.2016 -0.7159
  103OSM   C16F10492   1.564   2.221   8.630 -0.5943 -0.0700 -1.1943
  103OSM   H16F10493   1.568   2.176   8.528  1.6866  0.9214 -1.5724
  103OSM   H16G10494   1.667   2.258   8.648 -0.7965 -0.2155  0.2950
  103OSM   C17F10495   1.474   2.347   8.626  0.4899  0.4597  0.0352
  103OSM   H17F10496   1.466   2.392   8.728  0.6846 -0.5137  0.4866
  103OSM   H17G10497   1.379   2.294   8.607  0.7275  0.8091 -2.2704
  103OSM   C18F10498   1.504   2.451   8.521  0.3566 -0.0214 -0.1048
  103OSM   H18F10499   1.615   2.456   8.522  0.4389 -1.8625  0.2245
  103OSM   H18G10500   1.455   2.550   8.534  1.9127  0.7942 -0.2615
  103OSM   H18H10501   1.484   2.409   8.420 -0.9387 -0.4897  0.3427
  104OSM      N10502   3.300   0.229  10.972 -0.1048 -0.0343 -0.2609
  104OSM    C1510503   3.312   0.079  10.954 -0.7529  0.1147  0.0675
  104OSM   H15A10504   3.227   0.030  10.910  0.4927 -0.3709 -1.8584
  104OSM   H15B10505   3.316   0.036  11.053  0.9495  0.9130  0.3713
  104OSM   H15C10506   3.400   0.054  10.896 -0.8920 -0.1727 -0.0149
  104OSM    C1410507   3.180   0.255  11.055  0.0493 -0.0533  0.1294
  104OSM   H14A10508   3.140   0.355  11.051 -1.9586 -0.7452  2.1964
  104OSM   H14B10509   3.200   0.226  11.158 -2.8197 -1.3637  0.3506
  104OSM   H14C10510   3.094   0.201  11.019 -0.1818 -0.2699  0.9866
  104OSM    C1310511   3.424   0.287  11.033  0.2797 -0.1727 -0.8226
  104OSM   H13A10512   3.411   0.393  11.048  1.0247 -0.3839  1.4165
  104OSM   H13B10513   3.510   0.270  10.970 -0.3099  0.0923 -1.7214
  104OSM   H13C10514   3.445   0.261  11.135 -0.0697 -0.4189 -0.8131
  104OSM    C1210515   3.277   0.290  10.836 -0.3445 -0.1559 -0.2991
  104OSM   H12A10516   3.196   0.241  10.785  1.7454 -3.2133 -0.8664
  104OSM   H12B10517   3.367   0.263  10.782  1.1196  1.2538  1.4038
  104OSM    C1110518   3.256   0.447  10.831  0.2145 -0.6339 -0.1224
  104OSM   H11A10519   3.257   0.477  10.724 -1.9839 -0.6563 -0.1666
  104OSM   H11B10520   3.341   0.494  10.886 -1.9515  1.6912  1.3247
  104OSM      P10521   2.992   0.472  10.828 -0.4482 -0.1100  0.0319
  104OSM    O1310522   2.972   0.335  10.772 -0.1966  0.4857 -0.6026
  104OSM    O1410523   2.896   0.522  10.932 -0.0892  0.0217  0.6307
  104OSM    O1110524   2.996   0.577  10.704  0.6182  0.4835  0.3729
  104OSM    O1210525   3.133   0.486  10.894 -0.0091  0.1271  0.1495
  104OSM    C1S10526   2.874   0.639  10.668 -0.3416  0.2206  0.0527
  104OSM    H1S10527   2.820   0.679  10.757  1.7669 -1.9368  2.3659
  104OSM    H1T10528   2.804   0.571  10.615 -0.4970  0.7229 -0.3916
  104OSM     NF10529   2.774   0.839  10.556 -0.0508  0.1272  0.0294
  104OSM    HNF10530   2.702   0.825  10.489  0.8182 -0.9530 -0.6955
  104OSM    C2S10531   2.887   0.744  10.557 -0.2593 -0.3820  0.3012
  104OSM    H2S10532   2.972   0.814  10.574 -1.1390  1.1756 -1.5153
  104OSM    C3S10533   2.921   0.680  10.420  0.4669 -0.4396 -0.2855
  104OSM    H3S10534   2.827   0.631  10.388 -0.5203  0.9585  0.4187
  104OSM     O310535   3.015   0.580  10.434 -0.2544 -0.0011 -0.2937
  104OSM    HO310536   3.038   0.588  10.527  0.0403 -1.1643 -0.2528
  104OSM    C4S10537   2.968   0.780  10.316 -0.0719  0.0268 -0.4962
  104OSM    H4S10538   2.891   0.805  10.242 -1.5514 -0.9375  0.6962
  104OSM    C5S10539   3.088   0.836  10.292 -0.0884 -0.8417 -0.6554
  104OSM    H5S10540   3.178   0.798  10.342  0.4903  1.6273  0.2393
  104OSM    C6S10541   3.116   0.931  10.178 -0.0133 -0.4157  0.3815
  104OSM    H6S10542   3.190   0.889  10.107  0.3437  1.0376 -0.1286
  104OSM    H6T10543   3.161   1.027  10.210  0.2145 -0.0414 -1.0517
  104OSM    C7S10544   2.995   0.959  10.082 -0.1617  0.2983 -0.3836
  104OSM    H7S10545   2.907   0.990  10.142  0.5391  1.6574 -0.0516
  104OSM    H7T10546   2.964   0.865  10.031 -0.9404 -0.3807  1.3148
  104OSM    C8S10547   3.014   1.059   9.969  0.3411  0.6902  0.0491
  104OSM    H8S10548   3.035   1.160  10.010  0.0980  0.3270  1.0808
  104OSM    H8T10549   2.917   1.061   9.914  0.7985  1.5201 -0.7415
  104OSM    C9S10550   3.129   1.015   9.877 -0.2487  0.0027  0.3563
  104OSM    H9S10551   3.150   0.906   9.868 -1.2020 -0.1397 -0.2936
  104OSM    H9T10552   3.227   1.052   9.913 -0.1674  0.8774 -0.7478
  104OSM   C10S10553   3.125   1.077   9.740  0.8950  0.2215  0.0397
  104OSM   H10S10554   3.137   1.187   9.746  0.9993  0.0685  3.2858
  104OSM   H10T10555   3.034   1.050   9.682  1.5405 -1.4761 -0.2137
  104OSM   C11S10556   3.232   1.018   9.650  0.7474  0.2474 -0.5713
  104OSM   H11S10557   3.224   0.909   9.634  1.0441 -0.0287  1.0955
  104OSM   H11T10558   3.331   1.032   9.699  0.3173 -0.1125  0.4114
  104OSM   C12S10559   3.231   1.089   9.518  0.1214 -0.1580  0.4043
  104OSM   H12S10560   3.265   1.195   9.518  0.5325 -0.2779  1.4442
  104OSM   H12T10561   3.125   1.097   9.484  0.3553  1.9199  0.0741
  104OSM   C13S10562   3.303   1.008   9.408  0.1050 -0.5835 -0.2793
  104OSM   H13S10563   3.262   0.905   9.415  0.8099 -1.0244 -2.2878
  104OSM   H13T10564   3.412   1.010   9.429  0.3500 -0.7621 -1.4773
  104OSM   C14S10565   3.281   1.060   9.269  0.2937  0.5772  0.2116
  104OSM   H14S10566   3.311   1.167   9.266 -0.5579  0.8781  1.8533
  104OSM   H14T10567   3.176   1.052   9.233  0.7620 -0.7568 -0.8908
  104OSM   C15S10568   3.355   0.974   9.163 -0.2594  0.3161  0.5610
  104OSM   H15S10569   3.345   0.868   9.193  1.4236  0.0038  0.0392
  104OSM   H15T10570   3.465   0.984   9.165 -0.0983 -0.9911 -0.5624
  104OSM   C16S10571   3.318   1.000   9.016  0.0202  0.3508 -0.3111
  104OSM   H16S10572   3.215   0.963   8.994  0.0170 -0.4488  1.0207
  104OSM   H16T10573   3.388   0.949   8.946 -0.5082 -0.0433 -0.5599
  104OSM   C17S10574   3.320   1.150   8.978  0.6256  0.2254 -0.3028
  104OSM   H17S10575   3.419   1.193   9.005  0.8970  0.2228 -1.3005
  104OSM   H17T10576   3.235   1.211   9.017  0.9603  0.6250 -0.2001
  104OSM   C18S10577   3.304   1.163   8.825  0.1442 -0.1125 -0.2298
  104OSM   H18S10578   3.324   1.267   8.792  0.6585  0.7934  2.8316
  104OSM   H18T10579   3.206   1.135   8.781  0.3483 -0.4931 -0.4510
  104OSM   H18U10580   3.383   1.101   8.778 -0.3781 -0.9935  0.0332
  104OSM    C1F10581   2.756   0.926  10.653  0.2556 -0.2124  0.1446
  104OSM     OF10582   2.826   0.919  10.753  0.7030 -0.0513  0.4763
  104OSM    C2F10583   2.645   1.018  10.640 -0.3219 -0.2048 -0.0628
  104OSM    H2F10584   2.635   1.075  10.734  0.9142 -1.9693  1.1609
  104OSM    H2G10585   2.559   0.947  10.633 -1.3532  1.0070  0.1384
  104OSM    C3F10586   2.665   1.111  10.521 -0.4667  0.4028  0.0367
  104OSM    H3F10587   2.667   1.047  10.430  0.2847 -0.8128  0.8900
  104OSM    H3G10588   2.762   1.160  10.541  0.4892 -2.0406  1.7036
  104OSM    C4F10589   2.553   1.216  10.501 -0.1183  0.4001  0.3102
  104OSM    H4F10590   2.541   1.267  10.600  0.6227 -0.3001  0.7699
  104OSM    H4G10591   2.455   1.185  10.461  0.8921  0.5513 -2.4088
  104OSM    C5F10592   2.611   1.323  10.392 -0.0916 -0.1194 -0.1431
  104OSM    H5F10593   2.709   1.368  10.419 -0.2683  0.1721  0.0131
  104OSM    H5G10594   2.542   1.410  10.387 -0.2019 -0.0499  2.2126
  104OSM    C6F10595   2.612   1.254  10.252 -0.9530 -0.6120  0.0293
  104OSM    H6F10596   2.534   1.178  10.233  0.0613 -0.9729 -2.9837
  104OSM    H6G10597   2.701   1.188  10.260 -1.8554 -1.9347 -0.7697
  104OSM    C7F10598   2.629   1.341  10.127  0.1589  0.1475  0.5694
  104OSM    H7F10599   2.677   1.433  10.164  1.3218 -1.1968  2.4862
  104OSM    H7G10600   2.524   1.345  10.089  0.3912 -0.5651 -0.1778
  104OSM    C8F10601   2.705   1.267  10.008  0.0984 -0.2552  0.0513
  104OSM    H8F10602   2.653   1.170   9.991  1.5620 -1.1037  0.2908
  104OSM    H8G10603   2.813   1.251  10.026 -0.1916 -1.3394  0.8902
  104OSM    C9F10604   2.689   1.358   9.894 -0.0760  0.1575 -0.1752
  104OSM    H9F10605   2.664   1.462   9.918  0.0997  0.2931 -0.5717
  104OSM   C10F10606   2.693   1.339   9.762 -0.2792 -1.0646 -0.0302
  104OSM   H10F10607   2.679   1.421   9.690  0.5950 -0.8300  0.0509
  104OSM   C11F10608   2.717   1.209   9.705  0.1412 -0.7455  0.4254
  104OSM   H11F10609   2.700   1.123   9.772 -1.0616  0.5439  1.8054
  104OSM   H11G10610   2.827   1.216   9.688 -0.1343  0.0954 -1.1944
  104OSM   C12F10611   2.657   1.173   9.573 -0.6696  0.8833  1.0432
  104OSM   H12F10612   2.650   1.263   9.509  2.2748  0.0639 -0.5631
  104OSM   H12G10613   2.562   1.119   9.593  1.4516 -2.8029  1.7526
  104OSM   C13F10614   2.743   1.075   9.483 -0.2422  0.6353 -0.2248
  104OSM   H13F10615   2.761   0.984   9.544 -0.1217  1.7576  1.4661
  104OSM   H13G10616   2.844   1.115   9.460 -0.3510  0.4390 -1.0293
  104OSM   C14F10617   2.682   1.041   9.346 -0.2240 -0.4412 -0.0426
  104OSM   H14F10618   2.690   1.122   9.270  0.0508 -0.9003 -0.5088
  104OSM   H14G10619   2.576   1.016   9.366  0.3044 -1.2397  1.8557
  104OSM   C15F10620   2.768   0.932   9.283 -0.3403 -0.2347  1.0733
  104OSM   H15F10621   2.753   0.836   9.336  1.7532 -0.3434  1.5133
  104OSM   H15G10622   2.876   0.954   9.298  0.0442 -1.4504  0.1002
  104OSM   C16F10623   2.739   0.912   9.132 -0.3384  0.2282  0.0600
  104OSM   H16F10624   2.805   0.837   9.085 -0.5620  0.6522 -0.9329
  104OSM   H16G10625   2.750   1.006   9.074  0.5086  0.8913  1.2483
  104OSM   C17F10626   2.591   0.871   9.107  0.5585  0.1570 -0.6360
  104OSM   H17F10627   2.531   0.936   9.175  1.2534 -0.2364  0.3652
  104OSM   H17G10628   2.564   0.767   9.136  1.3468  0.1074 -0.0751
  104OSM   C18F10629   2.537   0.892   8.968 -0.4103  0.1880 -0.2359
  104OSM   H18F10630   2.613   0.866   8.891 -0.0115  2.7005 -0.7431
  104OSM   H18G10631   2.518   1.001   8.955  0.3471  0.1874 -1.4421
  104OSM   H18H10632   2.443   0.834   8.963 -1.8280  2.4213 -0.2250
  105OSM      N10633   6.160   3.258  11.408  0.3168 -0.2329 -0.1967
  105OSM    C1510634   6.179   3.398  11.460 -0.4859  0.6068  0.5820
  105OSM   H15A10635   6.087   3.436  11.501 -1.2725 -0.1033 -0.4943
  105OSM   H15B10636   6.238   3.456  11.390 -0.2060 -0.8339 -0.4020
  105OSM   H15C10637   6.239   3.392  11.550 -0.4763 -0.9381  0.4787
  105OSM    C1410638   6.298   3.196  11.409  0.5180  0.0391  0.0662
  105OSM   H14A10639   6.343   3.203  11.507  1.3850  0.2349 -0.3490
  105OSM   H14B10640   6.366   3.249  11.344 -1.5872  1.0861 -1.3374
  105OSM   H14C10641   6.291   3.095  11.374  0.6106 -0.6626  2.0110
  105OSM    C1310642   6.077   3.177  11.506  0.0186 -0.5833  0.3391
  105OSM   H13A10643   5.972   3.201  11.498  0.4690  1.1354 -0.8507
  105OSM   H13B10644   6.112   3.201  11.605  0.1256 -1.3791  0.4903
  105OSM   H13C10645   6.089   3.072  11.484  1.5110 -0.5390  0.8744
  105OSM    C1210646   6.089   3.241  11.270 -0.4613  0.1642 -0.3202
  105OSM   H12A10647   5.987   3.277  11.271 -0.4706  0.1137  0.4932
  105OSM   H12B10648   6.077   3.134  11.254 -0.2496  0.1137 -0.1473
  105OSM    C1110649   6.169   3.298  11.152  0.4560  0.0848  0.1973
  105OSM   H11A10650   6.187   3.404  11.179  1.2264 -0.1116  0.4820
  105OSM   H11B10651   6.108   3.304  11.060 -0.4003 -0.8100  0.6876
  105OSM      P10652   6.297   3.105  11.024  0.0353 -0.3223  0.2402
  105OSM    O1310653   6.437   3.061  11.018  0.8107  0.6830 -0.1320
  105OSM    O1410654   6.194   3.014  11.075  0.3835 -0.5863 -0.5440
  105OSM    O1110655   6.253   3.159  10.879  0.3488 -0.8612 -0.0798
  105OSM    O1210656   6.291   3.227  11.122 -0.0754 -0.5597  0.0566
  105OSM    C1S10657   6.343   3.256  10.829  0.3138  0.8166  0.1657
  105OSM    H1S10658   6.444   3.218  10.805  0.3858  0.4463  1.0497
  105OSM    H1T10659   6.361   3.334  10.906  0.9110  0.6317  0.2170
  105OSM     NF10660   6.354   3.447  10.659 -0.0960 -0.2304  0.8338
  105OSM    HNF10661   6.319   3.537  10.679 -0.1652 -0.0849  0.0826
  105OSM    C2S10662   6.275   3.332  10.703  1.3158  1.1006 -0.0753
  105OSM    H2S10663   6.277   3.264  10.616 -0.7066  2.1188 -0.9295
  105OSM    C3S10664   6.125   3.376  10.722 -0.3512  0.7582 -0.3275
  105OSM    H3S10665   6.104   3.458  10.795  0.5479  1.1147 -0.4719
  105OSM     O310666   6.039   3.278  10.783 -0.2176 -0.1628 -0.4678
  105OSM    HO310667   6.096   3.213  10.826 -1.7778 -3.8605 -3.6727
  105OSM    C4S10668   6.080   3.438  10.591  0.2415  0.3506 -0.6449
  105OSM    H4S10669   6.091   3.547  10.594 -0.3265  0.4444 -1.8306
  105OSM    C5S10670   6.045   3.375  10.479  0.8087  0.5297 -0.2997
  105OSM    H5S10671   6.044   3.265  10.479 -0.9132  0.5262 -2.0644
  105OSM    C6S10672   6.001   3.439  10.348  0.7939 -0.5120 -0.3562
  105OSM    H6S10673   6.013   3.550  10.342  1.1780 -0.4901  0.7910
  105OSM    H6T10674   5.891   3.430  10.341  0.4875  0.0365  2.9704
  105OSM    C7S10675   6.072   3.381  10.227  0.1280  0.2731 -0.4185
  105OSM    H7S10676   6.048   3.273  10.219 -0.3924  0.1688  2.0713
  105OSM    H7T10677   6.183   3.377  10.233  0.0940 -0.4323 -0.1561
  105OSM    C8S10678   6.030   3.447  10.093  0.0293 -0.1278  0.2339
  105OSM    H8S10679   6.054   3.555  10.103  2.7950 -0.7874  1.1129
  105OSM    H8T10680   5.921   3.437  10.075  0.4886 -1.6134 -1.9708
  105OSM    C9S10681   6.107   3.399   9.967 -0.2834  0.1201 -0.2218
  105OSM    H9S10682   6.107   3.288   9.963 -0.6090  0.0789  0.7078
  105OSM    H9T10683   6.212   3.434   9.973 -0.3488  0.0340  1.9306
  105OSM   C10S10684   6.056   3.450   9.836  0.1598 -0.4245 -0.3107
  105OSM   H10S10685   6.032   3.559   9.834 -2.0585 -0.8263  1.8875
  105OSM   H10T10686   5.965   3.395   9.806 -1.1368  2.3737 -1.6868
  105OSM   C11S10687   6.166   3.431   9.729  0.6889 -0.7259 -0.0738
  105OSM   H11S10688   6.209   3.328   9.727  1.8510 -0.3115  2.0591
  105OSM   H11T10689   6.242   3.501   9.770 -1.1876 -0.4028  3.0442
  105OSM   C12S10690   6.130   3.461   9.579 -0.1783  0.5957  0.3508
  105OSM   H12S10691   6.224   3.453   9.521 -1.1826 -0.9778 -1.0824
  105OSM   H12T10692   6.090   3.565   9.583  0.3926  0.7706  2.3401
  105OSM   C13S10693   6.033   3.361   9.507 -0.4043  0.7921 -0.1411
  105OSM   H13S10694   5.933   3.370   9.555 -0.0314  0.9726  0.6191
  105OSM   H13T10695   6.062   3.257   9.534  0.2000  1.0541  0.2301
  105OSM   C14S10696   6.020   3.396   9.360 -0.7763 -0.1148 -0.1018
  105OSM   H14S10697   6.123   3.398   9.318 -0.7817 -0.4866 -0.1334
  105OSM   H14T10698   5.988   3.502   9.359  2.0242  0.7569 -0.4502
  105OSM   C15S10699   5.939   3.300   9.278  0.1024  0.9558 -0.0469
  105OSM   H15S10700   5.833   3.293   9.309  0.5631 -0.5824  1.2399
  105OSM   H15T10701   5.966   3.193   9.290  0.9513  1.3507  1.7333
  105OSM   C16S10702   5.968   3.331   9.131  0.0352  0.1052  0.4056
  105OSM   H16S10703   6.075   3.330   9.099 -0.1076 -3.6213 -0.0877
  105OSM   H16T10704   5.931   3.431   9.100 -0.7402 -0.2125  0.2954
  105OSM   C17S10705   5.901   3.230   9.036 -0.0269 -0.1715  0.1384
  105OSM   H17S10706   5.791   3.239   9.041  0.0243  0.5911 -0.0928
  105OSM   H17T10707   5.932   3.126   9.061 -0.4485 -0.8807 -2.1675
  105OSM   C18S10708   5.939   3.258   8.888 -0.2357 -0.2681  0.7749
  105OSM   H18S10709   6.049   3.268   8.880 -0.4916  1.1842 -1.4899
  105OSM   H18T10710   5.898   3.356   8.854  0.3950 -0.0908  0.5262
  105OSM   H18U10711   5.899   3.180   8.820 -0.0640  0.8675 -0.6441
  105OSM    C1F10712   6.485   3.431  10.627  0.8795  0.6196  0.0304
  105OSM     OF10713   6.516   3.327  10.569 -0.2470  0.6215 -0.0872
  105OSM    C2F10714   6.582   3.541  10.655 -0.4870  0.3352  0.5580
  105OSM    H2F10715   6.685   3.506  10.636 -1.2110 -1.0755 -0.9266
  105OSM    H2G10716   6.577   3.553  10.765  0.9465  0.4068  0.6215
  105OSM    C3F10717   6.539   3.678  10.603 -0.1114  0.0873 -0.2360
  105OSM    H3F10718   6.615   3.751  10.637  0.3226 -0.2884 -0.3966
  105OSM    H3G10719   6.439   3.708  10.640 -0.8372 -0.7383 -1.4740
  105OSM    C4F10720   6.549   3.699  10.447  0.1463  0.1763  0.5409
  105OSM    H4F10721   6.465   3.646  10.397  0.4231  0.2977 -0.0503
  105OSM    H4G10722   6.633   3.640  10.405  0.3961 -0.4075  1.8339
  105OSM    C5F10723   6.563   3.842  10.406 -0.3429 -0.3237  0.0820
  105OSM    H5F10724   6.643   3.895  10.462  0.0610  0.8788 -1.5733
  105OSM    H5G10725   6.468   3.898  10.418 -0.7950 -1.1127  0.1903
  105OSM    C6F10726   6.606   3.863  10.255 -0.0564  0.1906  0.9171
  105OSM    H6F10727   6.705   3.818  10.233 -0.0923  1.3529 -1.8597
  105OSM    H6G10728   6.607   3.972  10.234 -1.0522  0.1341  0.5895
  105OSM    C7F10729   6.502   3.795  10.153  0.0562 -0.1519  0.2451
  105OSM    H7F10730   6.407   3.839  10.188 -0.0859  2.0675 -2.7791
  105OSM    H7G10731   6.496   3.684  10.158  1.3770 -0.2618 -0.3773
  105OSM    C8F10732   6.521   3.860  10.013 -0.5872  0.5363  1.0507
  105OSM    H8F10733   6.615   3.815   9.974 -2.0980  0.2417 -2.4791
  105OSM    H8G10734   6.542   3.968  10.024 -0.5972  0.7240 -0.6140
  105OSM    C9F10735   6.400   3.834   9.929 -0.7863 -0.0506  0.0761
  105OSM    H9F10736   6.301   3.821   9.975 -0.7854 -1.2975 -0.2813
  105OSM   C10F10737   6.408   3.818   9.795 -0.6104  0.0230  0.0085
  105OSM   H10F10738   6.313   3.792   9.746 -0.3823  1.8553 -1.4837
  105OSM   C11F10739   6.537   3.817   9.714  0.3674 -0.5220  0.8610
  105OSM   H11F10740   6.598   3.727   9.737  3.4451  0.7128 -2.0582
  105OSM   H11G10741   6.594   3.910   9.736  1.1262 -0.1226 -2.5394
  105OSM   C12F10742   6.517   3.811   9.563 -0.0742 -0.0878  0.1553
  105OSM   H12F10743   6.489   3.914   9.532 -0.1729 -0.4625 -1.0181
  105OSM   H12G10744   6.433   3.745   9.532  2.2336 -2.6893 -0.7264
  105OSM   C13F10745   6.643   3.774   9.481  0.4551  0.2792 -0.0287
  105OSM   H13F10746   6.678   3.672   9.507  2.2383  1.2598  1.4679
  105OSM   H13G10747   6.719   3.843   9.523 -0.6504  1.1094  0.6297
  105OSM   C14F10748   6.615   3.777   9.325  0.8360 -0.5241  0.0083
  105OSM   H14F10749   6.542   3.698   9.296  0.4598  0.4061 -1.6344
  105OSM   H14G10750   6.713   3.739   9.287  1.6653 -0.5781  2.0764
  105OSM   C15F10751   6.571   3.916   9.274  0.5216  0.6637 -0.2955
  105OSM   H15F10752   6.628   3.989   9.335 -0.9495  1.1525  0.5228
  105OSM   H15G10753   6.461   3.933   9.287  0.7985  1.7086  0.8071
  105OSM   C16F10754   6.606   3.932   9.123 -0.2532  0.2140 -0.1595
  105OSM   H16F10755   6.549   4.018   9.083 -1.0031 -0.3942 -0.4117
  105OSM   H16G10756   6.579   3.843   9.062 -0.9829 -0.8756  1.7159
  105OSM   C17F10757   6.755   3.971   9.105 -0.1729 -0.0195 -0.1978
  105OSM   H17F10758   6.827   3.896   9.144 -0.7523 -0.9562 -0.9081
  105OSM   H17G10759   6.774   4.050   9.181  1.8209 -2.0456  1.4830
  105OSM   C18F10760   6.799   3.998   8.956  0.1162  0.0283 -0.0295
  105OSM   H18F10761   6.901   4.041   8.944  0.4786 -0.6625  0.4820
  105OSM   H18G10762   6.725   4.062   8.905 -1.0224 -1.2418  0.0022
  105OSM   H18H10763   6.800   3.900   8.902 -0.0003  0.6191 -1.1068
  106OSM      N10764   4.480   3.515  10.915  0.0294 -0.5279 -0.2628
  106OSM    C1510765   4.554   3.465  11.033 -0.5995 -0.0636 -0.2305
  106OSM   H15A10766   4.573   3.557  11.086 -0.2436  0.4349 -1.2048
  106OSM   H15B10767   4.649   3.420  11.008 -1.5438 -3.1399  1.4801
  106OSM   H15C10768   4.505   3.377  11.070 -1.1766  0.1985 -0.3639
  106OSM    C1410769   4.419   3.404  10.842  0.2204  0.1124  0.0886
  106OSM   H14A10770   4.362   3.336  10.904 -1.5363  1.8187  0.3816
  106OSM   H14B10771   4.493   3.338  10.798  1.3183  0.7890  0.9076
  106OSM   H14C10772   4.356   3.436  10.761  0.3801 -3.3160 -1.4791
  106OSM    C1310773   4.358   3.594  10.956 -0.4477 -0.2377  0.3536
  106OSM   H13A10774   4.312   3.637  10.868  2.1838 -2.2000 -2.0668
  106OSM   H13B10775   4.369   3.677  11.024 -1.2178  0.8140 -0.7755
  106OSM   H13C10776   4.294   3.523  11.006 -1.5922 -1.3679 -2.5905
  106OSM    C1210777   4.570   3.585  10.818 -0.3903  0.2726 -0.3989
  106OSM   H12A10778   4.632   3.652  10.876  0.5458  0.4820 -1.6264
  106OSM   H12B10779   4.504   3.647  10.759  0.4334  1.9708  0.4271
  106OSM    C1110780   4.668   3.500  10.733 -0.5905  0.0648 -0.2788
  106OSM   H11A10781   4.713   3.563  10.654  2.4292  0.4290  1.6613
  106OSM   H11B10782   4.613   3.422  10.677  0.3347  0.5432 -1.8865
  106OSM      P10783   4.892   3.515  10.839 -0.2094  0.5905  0.1544
  106OSM    O1310784   4.852   3.615  10.936  0.0413 -0.2057  0.1941
  106OSM    O1410785   5.009   3.432  10.876  0.1874 -0.4050  0.1300
  106OSM    O1110786   4.930   3.578  10.699 -0.4117 -0.0899  0.7712
  106OSM    O1210787   4.767   3.426  10.811 -0.0403  0.4554  0.0678
  106OSM    C1S10788   4.998   3.512  10.592  0.2391 -0.2836 -1.0499
  106OSM    H1S10789   4.934   3.436  10.542 -1.8347  0.4920  0.3584
  106OSM    H1T10790   5.096   3.470  10.624 -0.6919 -0.5037  1.5478
  106OSM     NF10791   5.052   3.530  10.345  0.1129  0.0264  0.0569
  106OSM    HNF10792   5.149   3.519  10.328  0.6661  1.2890  2.1780
  106OSM    C2S10793   5.027   3.608  10.468  0.2089  0.1179 -0.1132
  106OSM    H2S10794   4.935   3.669  10.462 -0.8828 -1.3340  1.4233
  106OSM    C3S10795   5.142   3.705  10.514 -0.0632  0.0740  0.2150
  106OSM    H3S10796   5.220   3.636  10.554  0.0142  0.0275 -0.0181
  106OSM     O310797   5.093   3.790  10.620  0.3353 -0.1247 -0.0621
  106OSM    HO310798   5.023   3.735  10.655 -0.1300 -0.3596 -1.3238
  106OSM    C4S10799   5.196   3.788  10.400 -0.3804  0.5326 -0.4351
  106OSM    H4S10800   5.127   3.871  10.381 -1.3907 -0.4950 -1.3028
  106OSM    C5S10801   5.315   3.771  10.337  0.7997  0.2021 -0.5172
  106OSM    H5S10802   5.388   3.692  10.357  1.4249  0.5214 -1.4735
  106OSM    C6S10803   5.364   3.867  10.225  0.1463  0.3854 -0.2384
  106OSM    H6S10804   5.292   3.949  10.204 -0.5279 -0.0981  0.1393
  106OSM    H6T10805   5.371   3.814  10.127 -3.7192 -1.6673  0.4943
  106OSM    C7S10806   5.500   3.935  10.256 -0.2715  0.5392 -0.6096
  106OSM    H7S10807   5.575   3.863  10.297 -1.1322 -0.3102 -0.5023
  106OSM    H7T10808   5.471   4.005  10.337  0.8540 -0.0986  0.3631
  106OSM    C8S10809   5.561   4.011  10.141  0.2482  0.5589  0.0706
  106OSM    H8S10810   5.588   3.933  10.067  2.9087 -0.3329  1.8980
  106OSM    H8T10811   5.654   4.043  10.192 -1.1300  0.8466  2.4911
  106OSM    C9S10812   5.478   4.121  10.083  0.0453  0.2168  1.1030
  106OSM    H9S10813   5.428   4.181  10.163 -3.1318 -0.0864 -0.5599
  106OSM    H9T10814   5.392   4.078  10.028 -1.0978 -1.7968  4.3232
  106OSM   C10S10815   5.556   4.230  10.005 -0.5579  0.4355 -0.2068
  106OSM   H10S10816   5.641   4.276  10.060 -1.1139  0.5934  0.5163
  106OSM   H10T10817   5.488   4.311   9.969 -2.3806 -1.4057 -0.9806
  106OSM   C11S10818   5.614   4.167   9.877 -0.2806 -0.2026 -0.8479
  106OSM   H11S10819   5.534   4.122   9.815  0.7912 -3.1143 -0.1849
  106OSM   H11T10820   5.688   4.088   9.899 -1.1567 -0.3773  1.5815
  106OSM   C12S10821   5.697   4.274   9.800  0.0076  0.0444  0.2915
  106OSM   H12S10822   5.777   4.304   9.871 -0.3414  2.0970 -0.1435
  106OSM   H12T10823   5.632   4.361   9.779  0.5574 -0.0086 -1.6897
  106OSM   C13S10824   5.755   4.222   9.670 -0.0824 -0.1845  0.6774
  106OSM   H13S10825   5.678   4.169   9.610 -0.7072  0.6088  0.7763
  106OSM   H13T10826   5.828   4.139   9.685  0.3009 -0.4705 -2.3361
  106OSM   C14S10827   5.838   4.318   9.585  0.0463 -0.4235 -0.0822
  106OSM   H14S10828   5.924   4.353   9.646 -0.7522  0.7439  0.3865
  106OSM   H14T10829   5.772   4.405   9.566 -1.3735 -1.7058 -1.1515
  106OSM   C15S10830   5.883   4.265   9.455  1.0529 -0.1021 -0.4410
  106OSM   H15S10831   5.802   4.198   9.419 -0.7271  1.2871  0.9082
  106OSM   H15T10832   5.970   4.196   9.469  0.8798 -0.0548  0.9415
  106OSM   C16S10833   5.932   4.375   9.361 -0.6978 -0.0722  0.1227
  106OSM   H16S10834   6.041   4.388   9.376 -0.7148 -1.1381  1.2087
  106OSM   H16T10835   5.896   4.477   9.389  2.0907  1.3430 -1.2429
  106OSM   C17S10836   5.901   4.339   9.215 -0.4836  0.2553  0.4331
  106OSM   H17S10837   5.791   4.328   9.205 -0.4154  0.1410 -0.2326
  106OSM   H17T10838   5.941   4.238   9.191 -2.6872 -0.4600 -0.4223
  106OSM   C18S10839   5.958   4.437   9.116 -0.0669 -0.3501  0.0156
  106OSM   H18S10840   6.069   4.437   9.122 -0.0765 -0.4255  0.2107
  106OSM   H18T10841   5.902   4.533   9.113 -1.5804 -1.1752  1.4912
  106OSM   H18U10842   5.937   4.393   9.016 -0.5966  2.4572 -1.1747
  106OSM    C1F10843   4.967   3.454  10.268 -0.3230 -0.3538  0.1971
  106OSM     OF10844   4.849   3.469  10.291 -0.4337  0.1633 -0.1536
  106OSM    C2F10845   5.027   3.358  10.167  0.2560 -0.7373 -0.6267
  106OSM    H2F10846   4.960   3.271  10.181 -1.5060  0.7312  0.4065
  106OSM    H2G10847   5.127   3.332  10.205 -0.2489  2.0571  2.8958
  106OSM    C3F10848   5.013   3.412  10.021  0.0109 -0.9411 -0.1195
  106OSM    H3F10849   5.074   3.505  10.017  0.4995 -1.2585 -0.0733
  106OSM    H3G10850   4.905   3.430  10.004  0.3465 -0.3490 -1.7363
  106OSM    C4F10851   5.070   3.324   9.907 -0.3144 -0.6534 -0.3742
  106OSM    H4F10852   5.026   3.222   9.898  0.1315 -1.0301  1.4549
  106OSM    H4G10853   5.170   3.295   9.946 -1.1938 -4.1221 -0.5099
  106OSM    C5F10854   5.089   3.387   9.771  0.1280 -0.2886 -0.6719
  106OSM    H5F10855   5.152   3.475   9.798 -0.2192 -0.4776  0.7769
  106OSM    H5G10856   4.990   3.415   9.729 -0.0860 -0.1564 -0.0730
  106OSM    C6F10857   5.155   3.301   9.666 -0.2194  0.1921 -0.1451
  106OSM    H6F10858   5.081   3.224   9.636 -0.2081 -0.0558  0.4606
  106OSM    H6G10859   5.237   3.245   9.717 -0.3154  1.3411  1.3030
  106OSM    C7F10860   5.206   3.382   9.545  0.1566 -0.1683 -0.4471
  106OSM    H7F10861   5.316   3.380   9.527  0.3708 -0.7353  0.8507
  106OSM    H7G10862   5.182   3.487   9.569  2.5170  0.4675 -0.7393
  106OSM    C8F10863   5.135   3.335   9.418  0.2057 -0.5682 -0.7483
  106OSM    H8F10864   5.098   3.231   9.431  0.8232 -1.1525 -3.4179
  106OSM    H8G10865   5.217   3.330   9.343  0.0689 -1.1814 -0.8629
  106OSM    C9F10866   5.029   3.435   9.388  0.1599 -0.0775 -0.2506
  106OSM    H9F10867   4.942   3.434   9.456  1.6037  3.7405  1.8062
  106OSM   C10F10868   5.033   3.531   9.291 -0.2679  0.1291  0.0713
  106OSM   H10F10869   4.945   3.596   9.284  0.9039  1.8387  0.9350
  106OSM   C11F10870   5.152   3.563   9.196 -0.4987 -0.6484 -0.3947
  106OSM   H11F10871   5.241   3.505   9.228  0.1250  1.6661  2.2519
  106OSM   H11G10872   5.182   3.670   9.197  2.8840 -1.4870 -2.3802
  106OSM   C12F10873   5.117   3.531   9.050 -0.3960  0.6090  0.3513
  106OSM   H12F10874   5.208   3.567   8.996 -0.0943  1.1555  1.2006
  106OSM   H12G10875   5.028   3.591   9.022 -0.7908  0.0919  0.5062
  106OSM   C13F10876   5.111   3.387   9.022 -0.0871  0.3802 -0.7392
  106OSM   H13F10877   5.014   3.346   9.059 -0.8809  2.6014 -0.2826
  106OSM   H13G10878   5.203   3.344   9.068  0.5666  2.8717  0.3835
  106OSM   C14F10879   5.091   3.373   8.869 -0.0228  0.3047 -0.3687
  106OSM   H14F10880   5.180   3.418   8.820  0.9364 -1.6216 -0.4282
  106OSM   H14G10881   4.996   3.423   8.841  0.5635  1.0806 -1.0219
  106OSM   C15F10882   5.077   3.223   8.826 -0.6410 -1.2575  0.1809
  106OSM   H15F10883   5.150   3.143   8.850  0.5114 -0.1234  0.5201
  106OSM   H15G10884   5.078   3.236   8.715 -1.5214  0.0062  0.2966
  106OSM   C16F10885   4.938   3.167   8.865 -0.5392  0.0216 -0.7106
  106OSM   H16F10886   4.866   3.242   8.826  0.3137  1.3415  0.1832
  106OSM   H16G10887   4.922   3.161   8.975  3.1816 -0.1313 -0.0968
  106OSM   C17F10888   4.912   3.033   8.794 -0.6138  0.3207 -0.0634
  106OSM   H17F10889   4.807   2.999   8.806  0.1428 -1.6458  1.1342
  106OSM   H17G10890   4.973   2.951   8.836 -0.3705 -0.0489 -1.1111
  106OSM   C18F10891   4.941   3.022   8.642 -0.4637 -0.1267  0.6073
  106OSM   H18F10892   4.904   2.920   8.617  0.1004 -0.0900 -0.3843
  106OSM   H18G10893   5.051   3.027   8.625 -0.5125 -0.0230  0.3313
  106OSM   H18H10894   4.887   3.096   8.580 -0.0221  1.0504  1.6123
  107OSM      N10895   0.902   0.642  10.915  0.6773 -0.2116  0.2472
  107OSM    C1510896   0.835   0.631  11.048  0.6677  0.2909  0.3510
  107OSM   H15A10897   0.864   0.709  11.117 -1.0332 -0.0387  1.4823
  107OSM   H15B10898   0.866   0.540  11.099  1.1707 -1.0450 -2.2619
  107OSM   H15C10899   0.727   0.633  11.045  0.7065  2.5275 -0.4265
  107OSM    C1410900   1.048   0.618  10.934  0.1314 -0.1431  0.2547
  107OSM   H14A10901   1.063   0.511  10.931 -0.0556 -0.1572 -0.2069
  107OSM   H14B10902   1.094   0.661  11.022  2.9116  0.3874 -1.3755
  107OSM   H14C10903   1.094   0.652  10.843 -4.1775 -0.1941 -2.0661
  107OSM    C1310904   0.850   0.546  10.818 -0.7096 -0.4766 -0.3527
  107OSM   H13A10905   0.742   0.546  10.822 -0.6689 -0.2099  0.8687
  107OSM   H13B10906   0.897   0.456  10.855 -0.2055 -0.1594 -0.2228
  107OSM   H13C10907   0.873   0.571  10.716 -1.4021 -1.0256 -0.6479
  107OSM    C1210908   0.889   0.790  10.874 -0.3550  0.2615  0.6821
  107OSM   H12A10909   0.922   0.867  10.943  0.9963 -0.5848  0.9940
  107OSM   H12B10910   0.784   0.814  10.875 -0.2566  0.9561 -1.4511
  107OSM    C1110911   0.959   0.833  10.735 -0.6414 -0.0746  0.6221
  107OSM   H11A10912   0.913   0.928  10.702 -0.5611 -0.7388 -1.5430
  107OSM   H11B10913   0.946   0.757  10.654  3.2072 -0.6086  0.4063
  107OSM      P10914   1.170   0.953  10.853 -0.0640 -0.1112 -0.3142
  107OSM    O1310915   1.096   0.965  10.984 -0.4610  0.1335  0.4630
  107OSM    O1410916   1.316   0.920  10.860 -0.7056 -0.0611  0.7564
  107OSM    O1110917   1.143   1.085  10.770 -0.2616 -0.2999 -0.0136
  107OSM    O1210918   1.097   0.843  10.761 -0.0084 -0.4219  0.2974
  107OSM    C1S10919   1.242   1.140  10.686 -1.2055  0.0649 -0.4863
  107OSM    H1S10920   1.345   1.102  10.703 -0.3050  2.1223 -1.1581
  107OSM    H1T10921   1.261   1.247  10.708 -4.5669  0.4825  0.7313
  107OSM     NF10922   1.325   1.175  10.457  0.0591  0.1063 -0.5765
  107OSM    HNF10923   1.322   1.261  10.408  1.4683 -0.0953 -1.0445
  107OSM    C2S10924   1.210   1.130  10.538  0.3162 -0.2629  0.5909
  107OSM    H2S10925   1.185   1.024  10.514  0.1866  0.2095 -1.4820
  107OSM    C3S10926   1.085   1.207  10.502 -0.1295  0.7395 -0.1609
  107OSM    H3S10927   1.107   1.316  10.504 -1.9731  1.2660 -3.6206
  107OSM     O310928   0.983   1.187  10.603  0.0424 -0.1260 -0.3256
  107OSM    HO310929   1.019   1.126  10.668 -1.8679  0.5510  1.4177
  107OSM    C4S10930   1.043   1.168  10.363 -0.4656 -0.0819 -0.1400
  107OSM    H4S10931   1.104   1.206  10.280 -1.0019 -2.1045 -1.5221
  107OSM    C5S10932   0.945   1.081  10.338  0.2515 -0.5263  1.0908
  107OSM    H5S10933   0.899   1.032  10.425 -0.2328 -0.1119  1.0709
  107OSM    C6S10934   0.908   1.018  10.207 -0.1237 -0.1838  0.4578
  107OSM    H6S10935   0.801   1.041  10.189 -0.2397  0.4277  1.8849
  107OSM    H6T10936   0.936   0.911  10.214 -1.8241 -0.7062 -0.5972
  107OSM    C7S10937   0.984   1.073  10.078  0.4361  0.0168  0.0370
  107OSM    H7S10938   1.089   1.040  10.095 -0.4072 -1.9322  1.7414
  107OSM    H7T10939   0.975   1.184  10.077 -0.4278 -0.0543 -0.4713
  107OSM    C8S10940   0.929   1.011   9.956  0.1241  0.0437  0.2104
  107OSM    H8S10941   0.819   1.026   9.952  0.2714  0.8025 -2.3972
  107OSM    H8T10942   0.954   0.903   9.961  2.3169  0.6518  3.8524
  107OSM    C9S10943   0.985   1.081   9.826  0.0331  0.2196  0.5879
  107OSM    H9S10944   1.095   1.099   9.824  0.0818 -0.0968  0.2791
  107OSM    H9T10945   0.932   1.178   9.824  1.2354  0.8826  0.1643
  107OSM   C10S10946   0.942   1.004   9.700 -0.6863 -0.4354  0.2038
  107OSM   H10S10947   0.834   0.980   9.708 -1.0084 -0.0615 -2.5868
  107OSM   H10T10948   1.009   0.915   9.697 -1.0443 -0.6917 -0.1706
  107OSM   C11S10949   0.953   1.077   9.559 -0.2309  0.4568  0.0381
  107OSM   H11S10950   1.061   1.072   9.532 -0.0442  0.7337  0.7171
  107OSM   H11T10951   0.922   1.183   9.566 -3.0338 -0.1498 -2.1885
  107OSM   C12S10952   0.879   1.020   9.437  0.0963  0.2870  0.3918
  107OSM   H12S10953   0.774   1.050   9.418 -0.2315 -1.6805 -0.9436
  107OSM   H12T10954   0.874   0.910   9.449  1.8714  0.0170 -1.0803
  107OSM   C13S10955   0.943   1.061   9.310 -0.3623  0.3536 -1.3027
  107OSM   H13S10956   1.052   1.038   9.304 -0.2936  0.5762 -0.9020
  107OSM   H13T10957   0.933   1.171   9.301  1.7024  0.5628 -1.3336
  107OSM   C14S10958   0.875   0.998   9.187 -0.8896  0.1716 -0.3429
  107OSM   H14S10959   0.766   1.020   9.192 -0.9345 -0.1181 -0.0830
  107OSM   H14T10960   0.897   0.890   9.199 -1.1874 -0.1797 -2.7951
  107OSM   C15S10961   0.932   1.026   9.058 -0.3094  0.4701  0.0767
  107OSM   H15S10962   0.882   0.956   8.988 -1.9376  0.8851  0.7921
  107OSM   H15T10963   1.041   1.002   9.062  0.0354  2.2689  2.4629
  107OSM   C16S10964   0.920   1.170   9.017 -0.1675 -0.1260  0.4928
  107OSM   H16S10965   0.946   1.233   9.104 -0.7625  0.9189 -0.0828
  107OSM   H16T10966   0.816   1.183   8.980  0.1897  0.7506 -0.2139
  107OSM   C17S10967   1.029   1.221   8.906  0.3244 -0.4018  0.1169
  107OSM   H17S10968   1.057   1.138   8.839  0.8433 -1.4287  1.5751
  107OSM   H17T10969   1.125   1.238   8.960 -0.1753  1.9337  0.3314
  107OSM   C18S10970   0.983   1.350   8.847  0.3848 -0.1966  0.4856
  107OSM   H18S10971   0.891   1.336   8.788 -0.9993 -2.2972  3.0314
  107OSM   H18T10972   1.052   1.383   8.766  0.4589  4.7178  2.3447
  107OSM   H18U10973   0.966   1.434   8.919  2.7528  0.6075  0.1557
  107OSM    C1F10974   1.438   1.106  10.439  0.3393  0.1365  0.2989
  107OSM     OF10975   1.443   0.987  10.459  0.9156  0.3000  0.0265
  107OSM    C2F10976   1.554   1.175  10.376  0.6565  0.0628  0.3022
  107OSM    H2F10977   1.579   1.258  10.445  0.7614 -0.1327  0.5000
  107OSM    H2G10978   1.525   1.214  10.276 -1.2525  1.0347  1.1919
  107OSM    C3F10979   1.679   1.088  10.363 -0.1774  0.0581 -0.0382
  107OSM    H3F10980   1.674   1.020  10.275 -0.1435  0.3133 -0.2354
  107OSM    H3G10981   1.685   1.015  10.447 -1.4618  0.1254  0.1207
  107OSM    C4F10982   1.809   1.170  10.348  0.0243  0.3851 -0.0512
  107OSM    H4F10983   1.894   1.103  10.326  0.3661  0.9783 -0.5420
  107OSM    H4G10984   1.846   1.225  10.437  0.3738  2.6470 -1.5522
  107OSM    C5F10985   1.800   1.282  10.250 -0.0296 -0.2405 -0.4965
  107OSM    H5F10986   1.887   1.350  10.263 -0.8610  1.5394 -3.6967
  107OSM    H5G10987   1.718   1.354  10.267 -0.4483 -0.4072 -1.7218
  107OSM    C6F10988   1.808   1.235  10.098 -0.4778  0.3927 -0.1122
  107OSM    H6F10989   1.723   1.170  10.069 -0.4137  0.4407 -0.4049
  107OSM    H6G10990   1.902   1.177  10.084 -0.9343 -0.5116  0.4944
  107OSM    C7F10991   1.831   1.355  10.006  0.1606  0.0629  0.5427
  107OSM    H7F10992   1.914   1.406  10.060  0.6926  0.1127 -0.3184
  107OSM    H7G10993   1.744   1.422   9.989  0.7897  0.0261 -3.2264
  107OSM    C8F10994   1.877   1.318   9.866  0.5112  0.0357 -0.0785
  107OSM    H8F10995   1.792   1.266   9.817  1.7072 -3.7943  1.7522
  107OSM    H8G10996   1.963   1.249   9.876 -0.2961 -0.8242  1.2148
  107OSM    C9F10997   1.928   1.438   9.791  0.2392 -0.1642  0.2925
  107OSM    H9F10998   1.992   1.503   9.852  1.7535 -0.4356 -0.9835
  107OSM   C10F10999   1.899   1.472   9.666  0.0841 -0.2582  0.5881
  107OSM   H10F11000   1.957   1.556   9.624  0.1078 -0.5527  0.0295
  107OSM   C11F11001   1.805   1.416   9.561 -0.1407  0.0724  0.1530
  107OSM   H11F11002   1.740   1.493   9.513 -0.2136  0.2054  0.4614
  107OSM   H11G11003   1.746   1.336   9.610  1.5536 -1.9037 -0.9532
  107OSM   C12F11004   1.866   1.352   9.432  0.8899 -0.2899 -0.0551
  107OSM   H12F11005   1.944   1.277   9.458 -1.0055 -1.8992  1.1065
  107OSM   H12G11006   1.917   1.439   9.385 -1.8388  2.5667  2.0894
  107OSM   C13F11007   1.752   1.306   9.341  0.4884 -0.4297  0.2237
  107OSM   H13F11008   1.678   1.388   9.330 -0.1855 -1.0138  0.3365
  107OSM   H13G11009   1.703   1.222   9.394  1.8021 -0.9957  0.5580
  107OSM   C14F11010   1.788   1.272   9.199  0.2227 -0.1872 -0.2611
  107OSM   H14F11011   1.873   1.201   9.204  1.4720  1.3647  1.0289
  107OSM   H14G11012   1.831   1.365   9.158  1.1588 -0.8751 -0.8636
  107OSM   C15F11013   1.668   1.225   9.112 -0.2220  0.0383 -0.3830
  107OSM   H15F11014   1.598   1.309   9.098 -2.5437 -1.3942  2.0174
  107OSM   H15G11015   1.606   1.143   9.155  1.0152 -0.2204  0.9518
  107OSM   C16F11016   1.706   1.173   8.974 -0.5144  0.4915  0.0827
  107OSM   H16F11017   1.626   1.104   8.942 -0.7828 -0.0877  1.9055
  107OSM   H16G11018   1.787   1.102   9.002  1.3564  2.5735  0.1239
  107OSM   C17F11019   1.743   1.279   8.869 -0.4185 -0.8050  0.5705
  107OSM   H17F11020   1.797   1.244   8.778 -0.7485  0.8272 -0.2878
  107OSM   H17G11021   1.814   1.351   8.917 -0.3873 -3.0821  4.0946
  107OSM   C18F11022   1.625   1.353   8.817 -0.0266 -0.1401 -0.0017
  107OSM   H18F11023   1.668   1.438   8.759  1.0099 -0.2614  0.5726
  107OSM   H18G11024   1.563   1.389   8.902 -0.7261 -0.8591 -0.2073
  107OSM   H18H11025   1.568   1.297   8.739  1.9913 -1.5984 -0.4844
  108OSM      N11026   5.255   2.725  10.600  0.0704 -0.8563  0.2091
  108OSM    C1511027   5.381   2.806  10.562  0.7650  0.4723 -0.5894
  108OSM   H15A11028   5.474   2.756  10.539  0.3846 -0.3500 -0.3542
  108OSM   H15B11029   5.419   2.844  10.656  0.1223 -2.9444  1.1340
  108OSM   H15C11030   5.360   2.886  10.492  0.6223  1.5280  0.6328
  108OSM    C1411031   5.158   2.826  10.656  0.8997 -0.1599  0.4631
  108OSM   H14A11032   5.143   2.914  10.594 -0.7664 -2.0715 -1.9351
  108OSM   H14B11033   5.190   2.856  10.755  1.7408 -0.1679  0.1944
  108OSM   H14C11034   5.063   2.778  10.674  0.9297  0.1842  1.5489
  108OSM    C1311035   5.212   2.653  10.484 -0.5937  0.1251 -1.2237
  108OSM   H13A11036   5.291   2.592  10.442 -0.1070 -0.1761  0.1002
  108OSM   H13B11037   5.196   2.719  10.400  0.4174  0.8136 -0.8694
  108OSM   H13C11038   5.128   2.588  10.506  0.8703 -0.9099  1.5767
  108OSM    C1211039   5.289   2.632  10.706  0.0397  0.1636  0.0690
  108OSM   H12A11040   5.359   2.669  10.778 -1.1995  1.3578  0.6878
  108OSM   H12B11041   5.355   2.560  10.660 -0.2074 -0.1357  0.1780
  108OSM    C1111042   5.171   2.568  10.782  0.0272 -0.7506  0.3516
  108OSM   H11A11043   5.120   2.638  10.851 -2.7466 -1.3465 -1.0052
  108OSM   H11B11044   5.223   2.501  10.854 -1.6924 -0.3857  1.9645
  108OSM      P11045   5.132   2.360  10.632  0.2465  0.0275  0.2409
  108OSM    O1311046   5.275   2.344  10.642  0.4469 -0.2234  0.2143
  108OSM    O1411047   5.049   2.245  10.678 -0.3534  0.1736 -0.3562
  108OSM    O1111048   5.097   2.391  10.492  0.2408 -0.4346  0.1352
  108OSM    O1211049   5.081   2.487  10.709  0.3036  0.2922  0.1889
  108OSM    C1S11050   4.973   2.380  10.425 -0.7980  0.8130  0.0229
  108OSM    H1S11051   4.907   2.467  10.446 -1.0103  0.1416  2.2216
  108OSM    H1T11052   4.916   2.292  10.462  0.1249 -0.0670 -0.5971
  108OSM     NF11053   4.851   2.372  10.217 -0.0282  0.4006 -0.0476
  108OSM    HNF11054   4.793   2.291  10.224  0.2434  0.3166  1.4880
  108OSM    C2S11055   4.986   2.366  10.275 -0.8283  0.7896  0.0260
  108OSM    H2S11056   5.046   2.454  10.243  1.0139 -0.4327  0.0896
  108OSM    C3S11057   5.061   2.240  10.243 -1.5467 -0.7806 -0.4578
  108OSM    H3S11058   5.015   2.153  10.295 -2.8853 -0.3035 -0.8194
  108OSM     O311059   5.195   2.234  10.301 -0.2453  0.6142 -0.0941
  108OSM    HO311060   5.195   2.298  10.373  1.0758 -0.0862  0.5554
  108OSM    C4S11061   5.071   2.218  10.099 -0.4926  0.1789  0.8067
  108OSM    H4S11062   5.107   2.297  10.032 -0.1636 -0.7293 -0.1071
  108OSM    C5S11063   5.029   2.111  10.032  0.0753 -0.0673 -0.3947
  108OSM    H5S11064   4.978   2.030  10.085  1.6645  0.5098  2.1153
  108OSM    C6S11065   5.034   2.106   9.878 -0.0802  0.3854  0.4631
  108OSM    H6S11066   5.040   2.000   9.846 -0.8397  1.0965 -2.1691
  108OSM    H6T11067   5.126   2.151   9.835  0.0799 -2.1269 -1.9705
  108OSM    C7S11068   4.921   2.176   9.817  0.5830  0.6748  0.2452
  108OSM    H7S11069   4.940   2.285   9.822 -1.1630  1.1007 -1.7000
  108OSM    H7T11070   4.825   2.155   9.869  1.0156 -1.1969  0.3157
  108OSM    C8S11071   4.901   2.130   9.676  0.1337  0.4444  0.0837
  108OSM    H8S11072   4.844   2.036   9.691 -0.0207  0.3930 -0.8080
  108OSM    H8T11073   4.994   2.120   9.616 -0.2149  1.3843 -0.6370
  108OSM    C9S11074   4.821   2.233   9.592 -0.1932  0.9960  0.1235
  108OSM    H9S11075   4.870   2.329   9.618 -0.2677  0.9573  0.4145
  108OSM    H9T11076   4.720   2.239   9.637  0.3506  2.4464  1.1705
  108OSM   C10S11077   4.825   2.203   9.445  0.0586  0.3136 -0.4080
  108OSM   H10S11078   4.733   2.246   9.399  0.4744 -0.8378 -2.3863
  108OSM   H10T11079   4.817   2.093   9.433 -2.5582  0.7152 -2.9365
  108OSM   C11S11080   4.958   2.232   9.369  0.6189 -0.5872 -0.5812
  108OSM   H11S11081   5.038   2.168   9.413  0.3911  0.2348  1.0499
  108OSM   H11T11082   4.997   2.335   9.384 -0.5849 -0.0967 -0.8115
  108OSM   C12S11083   4.957   2.193   9.218 -0.3675  0.2976 -0.0765
  108OSM   H12S11084   4.930   2.085   9.225  0.6066  0.1083  0.8456
  108OSM   H12T11085   5.059   2.201   9.173 -0.1271  0.2846  0.4568
  108OSM   C13S11086   4.847   2.252   9.135  0.2863 -0.0104  0.0350
  108OSM   H13S11087   4.829   2.361   9.150 -1.1749 -0.3191  0.5471
  108OSM   H13T11088   4.746   2.213   9.161 -0.5566  0.8065 -1.9096
  108OSM   C14S11089   4.871   2.224   8.989  0.1013  0.1342 -0.0794
  108OSM   H14S11090   4.964   2.277   8.958 -0.0051  0.3726  0.0084
  108OSM   H14T11091   4.791   2.271   8.927 -1.3400 -1.1933  0.7572
  108OSM   C15S11092   4.900   2.071   8.960  0.5044  0.0030 -0.6169
  108OSM   H15S11093   4.994   2.036   9.007 -0.5029 -0.5567  1.0075
  108OSM   H15T11094   4.909   2.064   8.849 -1.4654 -1.3716 -0.7167
  108OSM   C16S11095   4.776   1.981   8.992  0.8463 -0.8236  0.2956
  108OSM   H16S11096   4.745   1.999   9.097  1.2363  2.5341 -0.1374
  108OSM   H16T11097   4.800   1.872   8.985 -1.8167 -1.5019  1.0341
  108OSM   C17S11098   4.656   2.018   8.896 -0.0574 -0.7733  0.0492
  108OSM   H17S11099   4.690   2.013   8.791  1.3012 -0.7529  0.4764
  108OSM   H17T11100   4.630   2.122   8.925 -1.0210 -0.6188 -1.3251
  108OSM   C18S11101   4.540   1.917   8.909  0.7210 -0.3007  0.3996
  108OSM   H18S11102   4.504   1.926   9.013  0.5221 -2.6010  0.5481
  108OSM   H18T11103   4.574   1.813   8.891  0.1735  0.0769 -3.1698
  108OSM   H18U11104   4.455   1.940   8.840  3.8167  0.2251 -3.3838
  108OSM    C1F11105   4.792   2.490  10.185 -0.0862 -0.5054  0.2097
  108OSM     OF11106   4.852   2.595  10.189  0.3896 -0.4698  0.3364
  108OSM    C2F11107   4.644   2.470  10.180  0.1001  0.1746  0.5880
  108OSM    H2F11108   4.595   2.535  10.255  0.7218 -2.4744  3.4113
  108OSM    H2G11109   4.613   2.368  10.214  1.2195 -0.3820 -0.0423
  108OSM    C3F11110   4.577   2.498  10.043  0.6209 -0.3571 -0.1565
  108OSM    H3F11111   4.526   2.597  10.050  0.5821 -0.4658  1.2814
  108OSM    H3G11112   4.492   2.428  10.031 -0.8453  1.0689  1.5205
  108OSM    C4F11113   4.655   2.483   9.908  0.2778 -0.2507  0.5826
  108OSM    H4F11114   4.683   2.375   9.907 -0.7954 -0.5634  1.8913
  108OSM    H4G11115   4.757   2.527   9.904  0.1563 -0.0236 -0.0621
  108OSM    C5F11116   4.568   2.519   9.791  0.1212  0.8787  0.6978
  108OSM    H5F11117   4.464   2.498   9.824  0.2477 -0.5994  0.1795
  108OSM    H5G11118   4.588   2.456   9.702  0.1392 -0.6472  1.7625
  108OSM    C6F11119   4.593   2.669   9.752 -0.1065 -0.5735  1.1505
  108OSM    H6F11120   4.598   2.734   9.841  1.0630 -1.5741  1.8336
  108OSM    H6G11121   4.510   2.717   9.697  0.8104  1.0293  1.1423
  108OSM    C7F11122   4.730   2.677   9.672 -1.1697 -0.2725 -0.3138
  108OSM    H7F11123   4.799   2.591   9.686  0.9951  0.9850 -2.7194
  108OSM    H7G11124   4.778   2.771   9.706 -3.3479 -0.0111  2.1936
  108OSM    C8F11125   4.714   2.700   9.522 -0.0462 -0.1268 -0.4653
  108OSM    H8F11126   4.814   2.720   9.477  1.6214 -2.2396  2.0623
  108OSM    H8G11127   4.636   2.779   9.518 -1.4736 -1.4485  0.7520
  108OSM    C9F11128   4.651   2.577   9.461 -0.0282 -0.3307 -0.7854
  108OSM    H9F11129   4.664   2.485   9.519  0.5408  1.0185  1.2912
  108OSM   C10F11130   4.588   2.577   9.348 -0.4701 -0.0374  0.0838
  108OSM   H10F11131   4.554   2.480   9.310  1.0201 -0.5663  0.0470
  108OSM   C11F11132   4.576   2.698   9.260  0.4536  0.2346  0.4226
  108OSM   H11F11133   4.602   2.793   9.311  1.4477 -0.5020  1.3038
  108OSM   H11G11134   4.470   2.715   9.232  0.5976  2.1510  0.9415
  108OSM   C12F11135   4.663   2.692   9.134 -0.7798  0.1320  0.3644
  108OSM   H12F11136   4.693   2.588   9.109 -1.1660  0.3736 -1.1636
  108OSM   H12G11137   4.751   2.758   9.152 -1.2832  0.2529  2.4030
  108OSM   C13F11138   4.594   2.755   9.007  1.1839  0.8891  0.4828
  108OSM   H13F11139   4.549   2.855   9.025  3.2170  2.0154 -0.4418
  108OSM   H13G11140   4.508   2.690   8.983  1.0540  0.2333  2.6226
  108OSM   C14F11141   4.688   2.745   8.881 -0.0658 -0.1050 -0.2333
  108OSM   H14F11142   4.793   2.754   8.916 -0.1564  0.9757 -0.2196
  108OSM   H14G11143   4.675   2.832   8.814 -0.5437 -0.9726 -1.2978
  108OSM   C15F11144   4.697   2.606   8.813 -0.4646 -0.0948 -0.1664
  108OSM   H15F11145   4.595   2.575   8.783 -0.6656 -1.6048  1.9034
  108OSM   H15G11146   4.727   2.531   8.890 -0.2572  0.0106 -0.1447
  108OSM   C16F11147   4.805   2.610   8.706 -0.9985  0.6290  0.5822
  108OSM   H16F11148   4.905   2.621   8.753 -0.0784 -1.5094 -0.8079
  108OSM   H16G11149   4.785   2.693   8.635 -1.0391  0.3258  0.2404
  108OSM   C17F11150   4.810   2.481   8.617  0.1104 -0.3889  0.8715
  108OSM   H17F11151   4.848   2.405   8.688 -1.0862 -0.8799  1.0012
  108OSM   H17G11152   4.886   2.491   8.537  1.7914  0.5433  2.5554
  108OSM   C18F11153   4.676   2.436   8.558  0.3725  0.3064 -0.2632
  108OSM   H18F11154   4.688   2.349   8.490  0.2640 -2.4723  3.1031
  108OSM   H18G11155   4.609   2.507   8.506 -3.1139 -2.3848  0.3644
  108OSM   H18H11156   4.616   2.397   8.643  0.8734  1.0464  0.4311
  109OSM      N11157   4.203   0.329  10.797 -1.3271 -0.2257 -0.8330
  109OSM    C1511158   4.285   0.436  10.857  0.0683  0.3113  0.5080
  109OSM   H15A11159   4.354   0.402  10.933  0.6548  0.0520 -0.1361
  109OSM   H15B11160   4.221   0.514  10.893  2.0043  1.9301  0.5470
  109OSM   H15C11161   4.336   0.498  10.785 -1.5782  0.8460 -0.2262
  109OSM    C1411162   4.123   0.371  10.678 -0.0238  1.0094  0.4406
  109OSM   H14A11163   4.025   0.324  10.681  0.0314  0.8479 -0.2560
  109OSM   H14B11164   4.183   0.341  10.593  1.0245  0.9944  1.1786
  109OSM   H14C11165   4.097   0.476  10.684 -0.6416  0.8686  0.3580
  109OSM    C1311166   4.310   0.229  10.754  0.1015 -0.0469 -0.3739
  109OSM   H13A11167   4.364   0.190  10.839  1.7631  0.2534 -1.2692
  109OSM   H13B11168   4.381   0.276  10.686  0.9042 -1.3916 -0.4870
  109OSM   H13C11169   4.263   0.149  10.699  2.3076 -0.2125 -2.0811
  109OSM    C1211170   4.128   0.266  10.909 -0.0820 -0.4644  0.0177
  109OSM   H12A11171   4.089   0.346  10.971 -0.2121  0.5185 -1.3015
  109OSM   H12B11172   4.203   0.212  10.964  0.9554  0.5161 -0.3926
  109OSM    C1111173   4.017   0.177  10.867  0.2334  0.8179 -0.0557
  109OSM   H11A11174   3.986   0.099  10.940 -1.2107  0.0147 -1.4761
  109OSM   H11B11175   4.041   0.115  10.778 -0.8273  0.4268 -0.0855
  109OSM      P11176   3.810   0.309  10.945  0.0419  0.2730 -0.2749
  109OSM    O1311177   3.784   0.201  11.045  0.6696  0.0136 -0.2206
  109OSM    O1411178   3.858   0.438  11.001  0.4713  0.4424  0.0060
  109OSM    O1111179   3.675   0.345  10.862  0.2812  0.4178 -0.0599
  109OSM    O1211180   3.908   0.258  10.836 -0.1941  0.1333  0.6305
  109OSM    C1S11181   3.666   0.424  10.745 -0.1052  0.4042  0.5792
  109OSM    H1S11182   3.739   0.508  10.736 -0.3635  0.5516 -0.1856
  109OSM    H1T11183   3.580   0.494  10.753 -2.6891 -2.5569 -0.2399
  109OSM     NF11184   3.684   0.460  10.497  0.1797 -0.0040  0.2404
  109OSM    HNF11185   3.602   0.469  10.441 -0.2466  3.0292  1.2623
  109OSM    C2S11186   3.671   0.356  10.600  0.1802 -0.5292 -0.2151
  109OSM    H2S11187   3.765   0.296  10.597 -0.2173 -1.1061 -1.5772
  109OSM    C3S11188   3.538   0.273  10.587 -0.1767  0.0241  0.1162
  109OSM    H3S11189   3.447   0.335  10.598 -0.5169 -0.6413  1.1240
  109OSM     O311190   3.532   0.169  10.685 -0.3004  0.0273  0.2531
  109OSM    HO311191   3.593   0.194  10.755 -1.5375  1.8237  0.7246
  109OSM    C4S11192   3.536   0.217  10.446 -0.9964 -0.3437  0.4778
  109OSM    H4S11193   3.451   0.252  10.385  0.5017 -1.5658 -2.4287
  109OSM    C5S11194   3.605   0.115  10.392  0.3759 -0.3305 -1.0009
  109OSM    H5S11195   3.652   0.043  10.460 -1.8559 -1.8199 -1.0108
  109OSM    C6S11196   3.593   0.055  10.255  0.3855  0.0417  0.1283
  109OSM    H6S11197   3.533  -0.039  10.262  3.7429 -2.1808  0.1432
  109OSM    H6T11198   3.691   0.020  10.217 -0.3407 -1.9046 -0.0301
  109OSM    C7S11199   3.522   0.142  10.152  0.1171 -0.1643  0.8276
  109OSM    H7S11200   3.560   0.246  10.143 -2.4694  0.6609 -1.1755
  109OSM    H7T11201   3.417   0.153  10.185  0.6003  0.6232  2.1363
  109OSM    C8S11202   3.511   0.076  10.013  1.0438 -0.2090  0.0864
  109OSM    H8S11203   3.428   0.002  10.011 -0.4174  1.3860  0.2293
  109OSM    H8T11204   3.601   0.017   9.985  0.0569 -1.7081  0.0131
  109OSM    C9S11205   3.509   0.175   9.897  0.7851  0.0348 -0.0089
  109OSM    H9S11206   3.601   0.235   9.908  0.7879  0.4218 -1.9395
  109OSM    H9T11207   3.429   0.252   9.899 -1.0112 -1.8006  0.8910
  109OSM   C10S11208   3.513   0.108   9.752 -0.3212 -0.2468 -0.6320
  109OSM   H10S11209   3.416   0.054   9.749  0.0982 -1.0850  0.5526
  109OSM   H10T11210   3.606   0.046   9.752 -0.0167  0.1723 -2.8208
  109OSM   C11S11211   3.506   0.205   9.626  0.7498  0.1064  0.1654
  109OSM   H11S11212   3.599   0.264   9.607  0.4932 -0.1296 -1.9285
  109OSM   H11T11213   3.425   0.276   9.654  1.0802  1.2334 -1.6151
  109OSM   C12S11214   3.482   0.132   9.492  0.4967 -0.6381  0.4860
  109OSM   H12S11215   3.385   0.077   9.497 -0.7487  1.5227  0.4560
  109OSM   H12T11216   3.567   0.062   9.480  0.8744 -0.1235  0.1680
  109OSM   C13S11217   3.470   0.216   9.362  0.0157 -0.1267  0.5018
  109OSM   H13S11218   3.565   0.275   9.359  1.6950 -2.7958 -1.0695
  109OSM   H13T11219   3.380   0.281   9.366 -0.9312 -1.3322 -0.9939
  109OSM   C14S11220   3.466   0.125   9.241  0.2353  0.1804  0.0833
  109OSM   H14S11221   3.425   0.167   9.146 -1.4183 -3.4299 -0.9150
  109OSM   H14T11222   3.403   0.034   9.252  1.3475 -0.5023  0.9258
  109OSM   C15S11223   3.604   0.049   9.216 -0.3715  0.1844  0.0386
  109OSM   H15S11224   3.612  -0.031   9.292  0.2941 -0.7430 -0.9954
  109OSM   H15T11225   3.691   0.117   9.228 -1.0283  1.2869 -1.3138
  109OSM   C16S11226   3.602  -0.014   9.081 -0.8620 -0.3312 -0.8134
  109OSM   H16S11227   3.511  -0.073   9.058  0.3081 -1.0162 -3.8576
  109OSM   H16T11228   3.686  -0.086   9.090 -2.0986 -1.5722  1.2228
  109OSM   C17S11229   3.639   0.077   8.969  0.1805  0.1147  0.0608
  109OSM   H17S11230   3.737   0.125   8.990  0.2876 -0.4585  0.8665
  109OSM   H17T11231   3.567   0.162   8.959  1.3093  1.0406 -0.3644
  109OSM   C18S11232   3.648   0.008   8.836  0.4773 -0.1877  0.2588
  109OSM   H18S11233   3.657   0.058   8.737 -0.9049 -0.6522 -0.1177
  109OSM   H18T11234   3.555  -0.051   8.823 -0.3137  1.4701 -1.8067
  109OSM   H18U11235   3.728  -0.069   8.831  0.1259 -0.4252 -2.2999
  109OSM    C1F11236   3.778   0.541  10.478 -0.0362 -0.3392 -0.4849
  109OSM     OF11237   3.893   0.505  10.513  0.2075 -0.4707  0.0448
  109OSM    C2F11238   3.747   0.669  10.414 -0.3704 -0.0858  0.0993
  109OSM    H2F11239   3.701   0.738  10.487  0.1713 -1.2563  1.5665
  109OSM    H2G11240   3.671   0.650  10.335  0.2238  3.2329 -1.3689
  109OSM    C3F11241   3.872   0.721  10.345 -0.6614 -0.3891  0.4744
  109OSM    H3F11242   3.908   0.661  10.259  1.9499  1.7851 -0.0206
  109OSM    H3G11243   3.947   0.715  10.427 -1.2159 -1.2841  0.9261
  109OSM    C4F11244   3.863   0.873  10.301  0.4324  0.1497 -0.1069
  109OSM    H4F11245   3.813   0.931  10.382  1.3378 -0.3777  0.8422
  109OSM    H4G11246   3.790   0.882  10.218 -3.8042  0.4147  3.4579
  109OSM    C5F11247   3.995   0.941  10.249  0.3383  0.2173 -0.0058
  109OSM    H5F11248   4.039   0.970  10.347  3.2238 -1.6465 -0.6693
  109OSM    H5G11249   3.971   1.039  10.202 -0.9050 -0.1703 -0.1996
  109OSM    C6F11250   4.080   0.852  10.156 -0.6052  0.2690  0.9540
  109OSM    H6F11251   4.120   0.761  10.204 -1.6540 -0.3005  0.7609
  109OSM    H6G11252   4.170   0.910  10.125  0.1677 -0.0233  2.6032
  109OSM    C7F11253   4.008   0.816  10.021 -0.2784 -0.7295 -0.3267
  109OSM    H7F11254   3.919   0.881  10.013 -0.3560 -0.4255  2.6662
  109OSM    H7G11255   3.964   0.715  10.034 -1.5830  0.0869  1.8555
  109OSM    C8F11256   4.098   0.797   9.888  0.0471 -0.1803  0.1089
  109OSM    H8F11257   4.177   0.721   9.903  2.1670  1.9754  0.2474
  109OSM    H8G11258   4.158   0.888   9.868 -1.2399  0.7409  0.3285
  109OSM    C9F11259   4.018   0.769   9.770 -0.1344  0.4198  0.0879
  109OSM    H9F11260   4.001   0.662   9.752 -2.5578  1.1495 -2.3513
  109OSM   C10F11261   3.960   0.856   9.683  0.2413 -0.5577 -0.2493
  109OSM   H10F11262   3.889   0.823   9.606 -1.6330 -0.3119  1.3509
  109OSM   C11F11263   3.971   1.004   9.685 -0.9834  0.6388 -0.2067
  109OSM   H11F11264   4.032   1.029   9.774 -1.1554 -1.5171  0.5657
  109OSM   H11G11265   3.879   1.066   9.691 -1.2713  0.2107 -0.1109
  109OSM   C12F11266   4.048   1.050   9.565 -0.3159 -0.2154  0.3374
  109OSM   H12F11267   4.159   1.040   9.565 -0.0905  1.9878 -1.4920
  109OSM   H12G11268   4.036   1.160   9.559 -0.3864 -0.3360 -1.9337
  109OSM   C13F11269   4.009   0.996   9.428  0.5145 -0.1432  0.0368
  109OSM   H13F11270   3.904   1.028   9.411  0.9254  2.0563  1.3318
  109OSM   H13G11271   4.026   0.887   9.423  0.0232 -0.1609 -1.4839
  109OSM   C14F11272   4.081   1.064   9.312  0.3994  0.2136  0.5168
  109OSM   H14F11273   4.190   1.062   9.331  0.5387  1.1484 -0.1112
  109OSM   H14G11274   4.051   1.171   9.303  1.3073  0.5123  1.0042
  109OSM   C15F11275   4.044   0.992   9.185  0.1634 -0.0855  0.4666
  109OSM   H15F11276   3.935   1.001   9.163  0.7579  1.7020 -1.9275
  109OSM   H15G11277   4.056   0.881   9.194  0.5598 -0.0395  0.5036
  109OSM   C16F11278   4.128   1.040   9.063  0.2625  0.0741  0.0076
  109OSM   H16F11279   4.235   1.018   9.084  0.0321  1.2994  2.5632
  109OSM   H16G11280   4.114   1.150   9.060 -1.3247 -0.1265 -0.9845
  109OSM   C17F11281   4.080   0.987   8.927 -0.2525 -0.8658  0.2382
  109OSM   H17F11282   4.141   1.027   8.843 -1.7371  1.5505  0.2941
  109OSM   H17G11283   3.979   1.023   8.901  0.9192  1.9481 -0.6194
  109OSM   C18F11284   4.077   0.831   8.914 -0.0425  0.2594 -0.1698
  109OSM   H18F11285   4.050   0.806   8.810 -0.6737  1.3152 -0.2701
  109OSM   H18G11286   4.005   0.778   8.979 -1.2475  1.6804 -0.3161
  109OSM   H18H11287   4.183   0.809   8.941  0.9035  2.4042 -1.9622
  110OSM      N11288   4.678   5.536  11.170 -0.8531  0.0198 -0.2518
  110OSM    C1511289   4.783   5.531  11.277 -0.2251 -0.4065  0.3382
  110OSM   H15A11290   4.739   5.539  11.375  0.7297  0.1928  0.7163
  110OSM   H15B11291   4.851   5.614  11.268  0.5946 -1.0998  0.1488
  110OSM   H15C11292   4.840   5.440  11.289 -1.1722 -1.1034 -0.2999
  110OSM    C1411293   4.585   5.420  11.189  0.5172  0.2415 -0.2315
  110OSM   H14A11294   4.544   5.411  11.288  0.5365 -0.0848 -0.2518
  110OSM   H14B11295   4.645   5.331  11.178 -0.9678 -0.9450  0.9688
  110OSM   H14C11296   4.505   5.433  11.117  1.8464 -1.3141 -2.0421
  110OSM    C1311297   4.588   5.651  11.183 -0.6726  1.2002 -0.3131
  110OSM   H13A11298   4.543   5.671  11.279  1.4604  0.3326  0.9135
  110OSM   H13B11299   4.514   5.640  11.105  0.5758 -0.3435 -1.2983
  110OSM   H13C11300   4.644   5.742  11.168  1.5240  0.0578  0.6709
  110OSM    C1211301   4.738   5.514  11.032 -0.0246 -0.0854 -0.5611
  110OSM   H12A11302   4.661   5.475  10.966 -2.2476 -1.0055  2.4586
  110OSM   H12B11303   4.798   5.425  11.041 -0.0045 -0.0231 -0.0545
  110OSM    C1111304   4.817   5.634  10.972 -0.0719  0.4633  0.2860
  110OSM   H11A11305   4.759   5.728  10.964 -0.3702  0.0685 -2.5394
  110OSM   H11B11306   4.836   5.602  10.867 -2.5057 -0.4779  0.1029
  110OSM      P11307   5.056   5.566  11.047 -0.1233  0.3093 -0.0556
  110OSM    O1311308   5.112   5.564  11.185  0.6564 -0.4401  0.1074
  110OSM    O1411309   5.012   5.437  10.989 -0.5309  0.0195 -0.4147
  110OSM    O1111310   5.151   5.644  10.950  0.2341  0.3525 -0.6419
  110OSM    O1211311   4.936   5.666  11.047  0.0195 -0.3745  0.0305
  110OSM    C1S11312   5.145   5.627  10.811  0.3010  0.8862 -0.0975
  110OSM    H1S11313   5.045   5.592  10.778  0.3525  2.7089 -2.2708
  110OSM    H1T11314   5.221   5.549  10.786  0.2779  1.0995 -0.8224
  110OSM     NF11315   5.176   5.727  10.593  0.3551  0.1768 -0.7999
  110OSM    HNF11316   5.255   5.718  10.533  0.6865 -1.4532 -0.1454
  110OSM    C2S11317   5.199   5.751  10.732  0.1558  0.1419 -0.2626
  110OSM    H2S11318   5.141   5.842  10.760 -0.4541 -0.9350  2.1393
  110OSM    C3S11319   5.339   5.783  10.786  0.3462  0.4864  0.7000
  110OSM    H3S11320   5.414   5.705  10.761 -0.9683 -0.5002 -0.2243
  110OSM     O311321   5.352   5.810  10.924  0.2885 -0.9594 -0.5759
  110OSM    HO311322   5.262   5.813  10.957 -0.6405 -0.3659 -2.9967
  110OSM    C4S11323   5.389   5.908  10.711 -0.5658 -0.6471 -0.7971
  110OSM    H4S11324   5.324   5.993  10.735 -0.1994 -1.0394  1.7761
  110OSM    C5S11325   5.486   5.926  10.620 -0.1494 -0.8288 -0.0725
  110OSM    H5S11326   5.537   5.830  10.601 -0.1029 -0.9782  0.7701
  110OSM    C6S11327   5.512   6.063  10.553 -0.2167  1.2927 -1.0732
  110OSM    H6S11328   5.619   6.087  10.538  0.0199  1.6066  0.9596
  110OSM    H6T11329   5.477   6.148  10.617  1.7744  1.7368 -0.5531
  110OSM    C7S11330   5.433   6.083  10.419 -0.2805  0.2289 -0.5556
  110OSM    H7S11331   5.326   6.066  10.445 -0.0699 -1.6942 -0.8904
  110OSM    H7T11332   5.478   6.003  10.356  1.1265  2.1942 -2.0944
  110OSM    C8S11333   5.476   6.214  10.347  0.2605 -0.3449  0.2384
  110OSM    H8S11334   5.476   6.299  10.419 -1.7041  0.2258 -0.4232
  110OSM    H8T11335   5.395   6.222  10.272  0.8020 -1.0963 -0.4383
  110OSM    C9S11336   5.614   6.192  10.265 -0.6242  0.1139 -0.1537
  110OSM    H9S11337   5.668   6.103  10.305 -0.1569  0.0502 -0.9219
  110OSM    H9T11338   5.681   6.280  10.274 -1.2257  0.5284  0.2856
  110OSM   C10S11339   5.582   6.164  10.121 -0.2262  0.8120  0.3609
  110OSM   H10S11340   5.497   6.229  10.091 -1.2276 -0.6106  0.0518
  110OSM   H10T11341   5.539   6.062  10.117 -2.9934  1.9861 -1.2680
  110OSM   C11S11342   5.706   6.175  10.027 -0.0697  0.2751  0.4878
  110OSM   H11S11343   5.797   6.133  10.075  0.2359  0.0179 -0.3162
  110OSM   H11T11344   5.729   6.279   9.995 -1.3575  0.1666 -0.8503
  110OSM   C12S11345   5.682   6.093   9.896 -0.8958 -0.2101 -0.2805
  110OSM   H12S11346   5.580   6.111   9.855 -0.2565  1.0877 -1.3921
  110OSM   H12T11347   5.704   5.986   9.916  1.8612  0.6500  1.5378
  110OSM   C13S11348   5.772   6.139   9.786 -0.2509  0.6888  0.0057
  110OSM   H13S11349   5.877   6.118   9.818 -1.0528 -1.1681  1.5264
  110OSM   H13T11350   5.778   6.248   9.764  0.4187  0.6620  0.0298
  110OSM   C14S11351   5.743   6.057   9.661  0.4374 -1.1030 -0.1535
  110OSM   H14S11352   5.745   5.949   9.688 -1.3180 -0.6278  1.9938
  110OSM   H14T11353   5.836   6.064   9.600  0.7478 -1.9573  0.1996
  110OSM   C15S11354   5.627   6.095   9.583 -0.3564  0.2965  0.9698
  110OSM   H15S11355   5.627   6.206   9.589 -0.2180  0.2448  2.0331
  110OSM   H15T11356   5.532   6.063   9.629 -0.3667  0.8320  1.3311
  110OSM   C16S11357   5.640   6.055   9.435  0.0287 -0.0905  0.3016
  110OSM   H16S11358   5.684   5.953   9.432  0.2298  0.0593 -2.2902
  110OSM   H16T11359   5.707   6.135   9.396 -0.3678  0.4952  0.8151
  110OSM   C17S11360   5.509   6.054   9.357  0.1494  0.6456  0.0373
  110OSM   H17S11361   5.446   6.145   9.361 -0.1967  0.4255 -0.4207
  110OSM   H17T11362   5.452   5.977   9.414  0.1634 -0.4892 -1.4390
  110OSM   C18S11363   5.530   6.012   9.213 -0.1681  0.0735 -0.9477
  110OSM   H18S11364   5.587   6.089   9.157  1.9387 -0.1205  0.8266
  110OSM   H18T11365   5.440   5.984   9.155 -0.1405  1.3212 -1.5977
  110OSM   H18U11366   5.590   5.920   9.235 -0.4306  0.2195  0.4131
  110OSM    C1F11367   5.057   5.732  10.535  0.5093 -0.4445 -0.1430
  110OSM     OF11368   4.956   5.768  10.596  0.3426  0.4105  0.9272
  110OSM    C2F11369   5.056   5.696  10.386 -0.2044 -0.1562 -0.8298
  110OSM    H2F11370   5.109   5.600  10.367  0.2804 -0.1498  0.4919
  110OSM    H2G11371   5.108   5.779  10.334  3.3529 -0.3405  2.2833
  110OSM    C3F11372   4.914   5.679  10.335  0.0006 -0.3516 -0.4675
  110OSM    H3F11373   4.847   5.763  10.366  1.0603  0.4620 -0.3403
  110OSM    H3G11374   4.862   5.593  10.382  0.3946 -1.4200 -1.9838
  110OSM    C4F11375   4.921   5.668  10.179 -0.3986  0.3264 -0.0280
  110OSM    H4F11376   4.975   5.752  10.130  0.8210 -1.0837 -1.1555
  110OSM    H4G11377   4.815   5.664  10.145 -0.1829 -2.0801 -0.5375
  110OSM    C5F11378   4.986   5.529  10.136  0.5475 -0.6151  0.8366
  110OSM    H5F11379   4.962   5.456  10.216  2.6315 -2.7461 -0.4208
  110OSM    H5G11380   5.097   5.532  10.143  0.7289 -3.2428 -0.5490
  110OSM    C6F11381   4.948   5.471   9.998  0.4553 -0.3842 -0.8281
  110OSM    H6F11382   4.838   5.483   9.988  0.0609 -0.7028  2.6411
  110OSM    H6G11383   4.959   5.361   9.986 -0.6986 -0.5193 -0.6702
  110OSM    C7F11384   5.019   5.553   9.880 -0.1271 -0.2447 -0.4705
  110OSM    H7F11385   5.129   5.544   9.888 -0.2481 -0.9413  0.6264
  110OSM    H7G11386   4.987   5.658   9.898  1.4157  0.2308 -0.4598
  110OSM    C8F11387   4.963   5.500   9.743  0.8828  0.3255 -0.8522
  110OSM    H8F11388   5.020   5.559   9.667  1.6885 -1.3842 -1.6087
  110OSM    H8G11389   4.857   5.527   9.726  0.3633  0.7856  2.8140
  110OSM    C9F11390   4.972   5.351   9.716  0.3729 -0.1808  0.0674
  110OSM    H9F11391   4.961   5.288   9.806  0.4153  0.0254  0.2168
  110OSM   C10F11392   5.006   5.284   9.600  0.4501 -0.6765 -0.3874
  110OSM   H10F11393   4.987   5.176   9.598 -1.3576 -0.3602 -0.9293
  110OSM   C11F11394   5.057   5.339   9.465  0.3550  0.5432  0.2813
  110OSM   H11F11395   5.157   5.295   9.447 -0.0768  0.2059 -1.4003
  110OSM   H11G11396   5.074   5.448   9.473  1.5783  0.6406 -2.8608
  110OSM   C12F11397   4.958   5.306   9.349 -0.6892 -0.3861 -0.2921
  110OSM   H12F11398   4.859   5.350   9.374 -0.0148  1.5933 -0.9815
  110OSM   H12G11399   4.952   5.196   9.336 -0.3411 -0.4563  0.1287
  110OSM   C13F11400   4.998   5.373   9.218 -0.1201 -0.4744  0.5013
  110OSM   H13F11401   5.020   5.480   9.236 -0.9419 -0.5614  2.0790
  110OSM   H13G11402   4.916   5.350   9.146 -0.9562  4.2411 -0.1694
  110OSM   C14F11403   5.120   5.301   9.158 -0.0841  0.2444 -0.4878
  110OSM   H14F11404   5.107   5.191   9.161 -1.0856  0.2141 -3.8282
  110OSM   H14G11405   5.208   5.318   9.224 -0.9549 -2.0188  1.3387
  110OSM   C15F11406   5.144   5.350   9.017 -0.7270  1.4706 -0.2402
  110OSM   H15F11407   5.171   5.458   9.010  2.2119  0.7470 -0.6897
  110OSM   H15G11408   5.056   5.324   8.955  0.5896 -0.4377 -1.3274
  110OSM   C16F11409   5.260   5.273   8.949 -0.1047 -0.0603 -0.3731
  110OSM   H16F11410   5.336   5.270   9.030  0.0648  0.7758 -0.4967
  110OSM   H16G11411   5.306   5.340   8.873  1.4393  0.9627  1.4267
  110OSM   C17F11412   5.219   5.138   8.891  0.1756 -0.2048  0.3680
  110OSM   H17F11413   5.157   5.136   8.799  0.6276  0.5980  0.0391
  110OSM   H17G11414   5.163   5.086   8.972 -2.4133  1.6470 -0.1711
  110OSM   C18F11415   5.343   5.050   8.866 -0.6178 -0.3260  0.1163
  110OSM   H18F11416   5.361   4.993   8.960 -3.3027  1.2745  1.6634
  110OSM   H18G11417   5.428   5.113   8.834 -2.0060  0.4484 -2.1155
  110OSM   H18H11418   5.320   4.970   8.793 -1.3151 -0.7828  0.8160
  111OSM      N11419   5.405   3.667  10.849 -0.2042 -0.5351  0.6134
  111OSM    C1511420   5.352   3.809  10.847 -0.7409  0.1607 -0.1104
  111OSM   H15A11421   5.261   3.809  10.789  0.2838 -1.0839 -1.7707
  111OSM   H15B11422   5.416   3.882  10.800  0.3584 -0.7445 -0.0319
  111OSM   H15C11423   5.346   3.852  10.945  0.5041  0.1644 -0.0241
  111OSM    C1411424   5.524   3.656  10.954  0.3551  0.4749 -0.1794
  111OSM   H14A11425   5.600   3.726  10.921  1.3296 -0.7195 -0.5398
  111OSM   H14B11426   5.558   3.554  10.961  0.3372  0.5828  1.5724
  111OSM   H14C11427   5.497   3.685  11.054 -0.8716  0.5680 -0.5353
  111OSM    C1311428   5.297   3.574  10.896 -0.0145 -0.0794  0.2833
  111OSM   H13A11429   5.204   3.584  10.841  0.2265  0.2146 -0.0697
  111OSM   H13B11430   5.263   3.592  10.997  0.5655 -2.0689  0.8606
  111OSM   H13C11431   5.342   3.476  10.899 -1.3342 -0.7056  0.3544
  111OSM    C1211432   5.457   3.627  10.708 -0.5958  0.3732 -0.5860
  111OSM   H12A11433   5.376   3.589  10.648 -1.2316  1.8762 -0.6906
  111OSM   H12B11434   5.526   3.544  10.722 -1.0384  0.3968  2.0432
  111OSM    C1111435   5.533   3.728  10.616  0.0319 -0.0943  0.1939
  111OSM   H11A11436   5.463   3.815  10.607 -0.1757 -0.1030  1.5556
  111OSM   H11B11437   5.541   3.695  10.511  0.7169 -0.9645  0.5182
  111OSM      P11438   5.789   3.681  10.644 -0.3264 -0.0521 -0.2206
  111OSM    O1311439   5.880   3.688  10.763 -0.3743  0.7216  0.5130
  111OSM    O1411440   5.750   3.544  10.598 -0.0432 -0.0103  0.7146
  111OSM    O1111441   5.863   3.748  10.526  0.3098  0.0762 -1.0726
  111OSM    O1211442   5.660   3.763  10.676 -0.3053  0.2390  0.3000
  111OSM    C1S11443   5.875   3.887  10.529  0.4788  0.3231  0.0765
  111OSM    H1S11444   5.914   3.918  10.628 -2.7559  0.8001  1.2637
  111OSM    H1T11445   5.777   3.934  10.509  1.1722  2.6843  1.9689
  111OSM     NF11446   6.016   4.059  10.434  0.1544 -0.6961  0.3636
  111OSM    HNF11447   5.950   4.123  10.394  3.8642  2.3457 -1.2407
  111OSM    C2S11448   5.971   3.924  10.413 -0.6016  0.7320  0.5102
  111OSM    H2S11449   6.061   3.859  10.409 -0.2408  1.1954  1.0402
  111OSM    C3S11450   5.893   3.897  10.277 -0.5241  0.6205  0.4898
  111OSM    H3S11451   5.791   3.941  10.272 -0.9617 -0.6565 -3.7159
  111OSM     O311452   5.873   3.757  10.264  0.1383 -0.1511 -0.3498
  111OSM    HO311453   5.877   3.734  10.356  1.7482  1.1681 -0.0651
  111OSM    C4S11454   5.973   3.924  10.149 -0.1372  0.5990 -0.3669
  111OSM    H4S11455   6.047   3.847  10.121  2.2326  2.1427  1.3658
  111OSM    C5S11456   5.954   4.030  10.071  0.3304  0.5279 -0.0136
  111OSM    H5S11457   5.880   4.104  10.103 -1.2790  0.1096 -2.6257
  111OSM    C6S11458   6.022   4.047   9.945 -0.0845  0.7065 -0.2932
  111OSM    H6S11459   6.131   4.034   9.963 -0.3382  0.2581  0.9281
  111OSM    H6T11460   6.005   4.152   9.911  2.7304  1.4764  0.4766
  111OSM    C7S11461   5.994   3.939   9.836 -0.3895  0.1915 -0.6648
  111OSM    H7S11462   5.884   3.934   9.817 -0.4231  2.7982 -1.2707
  111OSM    H7T11463   6.036   3.844   9.877  2.4919  2.5786  2.1716
  111OSM    C8S11464   6.069   3.973   9.709  0.5144  0.6330  0.3107
  111OSM    H8S11465   6.177   3.994   9.728  0.7589 -1.3023  1.2112
  111OSM    H8T11466   6.030   4.063   9.657  0.0649  0.6878  0.7430
  111OSM    C9S11467   6.058   3.861   9.601 -0.6987  0.0652  0.4589
  111OSM    H9S11468   5.947   3.851   9.595 -0.7876  0.9427  0.5415
  111OSM    H9T11469   6.105   3.767   9.637  0.2654  1.1362  2.0719
  111OSM   C10S11470   6.124   3.890   9.459  0.2093  0.2747 -0.0754
  111OSM   H10S11471   6.232   3.916   9.465  0.0016  1.9502 -2.9697
  111OSM   H10T11472   6.062   3.969   9.413 -0.2224 -1.2424 -2.1793
  111OSM   C11S11473   6.098   3.776   9.358 -0.2393 -0.0352  0.3308
  111OSM   H11S11474   5.993   3.758   9.326  0.4109 -1.0963 -1.2566
  111OSM   H11T11475   6.128   3.681   9.408  0.3357  0.2255  0.4818
  111OSM   C12S11476   6.174   3.794   9.225 -0.0939 -0.4277  0.0587
  111OSM   H12S11477   6.281   3.773   9.248  0.6827  0.4334 -2.5712
  111OSM   H12T11478   6.176   3.904   9.208  0.4340  0.2810  4.0101
  111OSM   C13S11479   6.148   3.713   9.103  1.1129 -0.1232 -0.4343
  111OSM   H13S11480   6.052   3.737   9.053  1.9630  0.7988 -1.6557
  111OSM   H13T11481   6.139   3.606   9.133  0.2485 -0.5990 -2.2635
  111OSM   C14S11482   6.267   3.722   9.008  0.1467 -0.1442  0.2487
  111OSM   H14S11483   6.365   3.714   9.060  1.3375 -0.8585 -2.0153
  111OSM   H14T11484   6.268   3.824   8.964  1.2251 -0.2892 -0.0784
  111OSM   C15S11485   6.259   3.618   8.892  0.4273  0.0205  0.1126
  111OSM   H15S11486   6.334   3.654   8.818 -2.2584  1.4971 -1.9561
  111OSM   H15T11487   6.160   3.625   8.843 -0.2409  1.1337  1.5778
  111OSM   C16S11488   6.314   3.488   8.950 -0.7744  0.0626  0.9659
  111OSM   H16S11489   6.273   3.446   9.045 -0.3712  1.7843  1.9288
  111OSM   H16T11490   6.416   3.516   8.985 -1.6109  1.8068  2.0637
  111OSM   C17S11491   6.317   3.378   8.843 -0.2689 -0.0720  0.1311
  111OSM   H17S11492   6.384   3.407   8.759 -0.6788 -1.9306 -0.8788
  111OSM   H17T11493   6.217   3.368   8.797  0.4892  0.2184 -1.6285
  111OSM   C18S11494   6.372   3.242   8.890 -0.2082 -0.2718 -0.8301
  111OSM   H18S11495   6.294   3.191   8.950 -1.0047 -0.2168 -1.8048
  111OSM   H18T11496   6.466   3.261   8.945 -2.0693  0.2329  2.3283
  111OSM   H18U11497   6.391   3.166   8.811 -0.0513 -0.7619 -0.3260
  111OSM    C1F11498   6.092   4.099  10.540  0.6553  0.1631 -0.2742
  111OSM     OF11499   6.133   4.019  10.621  0.1035  0.0082  0.5129
  111OSM    C2F11500   6.120   4.245  10.563 -0.0908 -0.7667 -0.1246
  111OSM    H2F11501   6.103   4.276  10.668  1.3816 -0.4732  0.0361
  111OSM    H2G11502   6.066   4.315  10.495  0.9526 -1.2666 -1.4978
  111OSM    C3F11503   6.266   4.274  10.521 -0.6144 -0.3787  0.9192
  111OSM    H3F11504   6.334   4.208  10.578  2.5919 -0.1356 -2.4206
  111OSM    H3G11505   6.287   4.381  10.543 -1.4703  0.0989 -0.4943
  111OSM    C4F11506   6.275   4.254  10.369  0.3530 -0.1022  0.2934
  111OSM    H4F11507   6.203   4.322  10.318  1.8328  0.2101 -1.4427
  111OSM    H4G11508   6.241   4.152  10.343 -1.1193  0.2654  0.7031
  111OSM    C5F11509   6.423   4.271  10.327 -0.0692 -0.0238  0.8302
  111OSM    H5F11510   6.476   4.186  10.375  1.4321  0.9780  0.9790
  111OSM    H5G11511   6.471   4.361  10.371 -0.5193  0.8077 -0.3757
  111OSM    C6F11512   6.443   4.269  10.164  0.5963  0.1770  0.4537
  111OSM    H6F11513   6.410   4.167  10.135 -0.6012  1.1328 -1.6725
  111OSM    H6G11514   6.545   4.284  10.124 -0.6753  2.6053 -2.0160
  111OSM    C7F11515   6.352   4.374  10.096  0.2445 -0.8612 -0.1638
  111OSM    H7F11516   6.330   4.464  10.158  0.5176 -2.7446  2.7451
  111OSM    H7G11517   6.250   4.331  10.081 -1.5835  2.6267  1.5151
  111OSM    C8F11518   6.411   4.393   9.951 -0.0479  0.2426  0.1186
  111OSM    H8F11519   6.516   4.428   9.951  0.5726 -1.5395 -1.5721
  111OSM    H8G11520   6.364   4.483   9.904 -1.0215 -0.9648 -1.2798
  111OSM    C9F11521   6.390   4.272   9.867 -0.0154  0.2760 -0.3556
  111OSM    H9F11522   6.433   4.182   9.913  1.1705  0.4002 -1.1760
  111OSM   C10F11523   6.310   4.269   9.759 -0.9430  0.1577 -0.4975
  111OSM   H10F11524   6.293   4.165   9.725  0.0281 -0.1321 -0.1077
  111OSM   C11F11525   6.233   4.387   9.701  0.8416  0.7634  0.2830
  111OSM   H11F11526   6.236   4.479   9.764  0.6588  1.0816 -0.1758
  111OSM   H11G11527   6.127   4.354   9.695  1.2489 -0.2827 -1.1951
  111OSM   C12F11528   6.275   4.414   9.556  0.2998 -0.1482 -0.6705
  111OSM   H12F11529   6.371   4.470   9.556  0.1944  0.0469  1.0534
  111OSM   H12G11530   6.199   4.482   9.511 -2.0550 -2.3799 -0.1217
  111OSM   C13F11531   6.267   4.283   9.471  0.5176  0.2449 -0.2553
  111OSM   H13F11532   6.166   4.240   9.484  0.7269 -0.5688 -1.2299
  111OSM   H13G11533   6.348   4.214   9.506 -0.3751 -1.8978 -2.2872
  111OSM   C14F11534   6.293   4.321   9.324 -0.2891  0.3697  0.3517
  111OSM   H14F11535   6.396   4.360   9.309 -0.3568 -0.0585 -1.3732
  111OSM   H14G11536   6.214   4.389   9.285 -3.0803 -3.3694 -0.7643
  111OSM   C15F11537   6.278   4.194   9.234 -0.8615 -0.6075 -0.8779
  111OSM   H15F11538   6.177   4.155   9.255 -0.7609  0.0865  0.9880
  111OSM   H15G11539   6.358   4.121   9.262  1.0028  0.7552 -2.4835
  111OSM   C16F11540   6.312   4.230   9.088 -0.8702 -0.2578  0.7907
  111OSM   H16F11541   6.419   4.261   9.080 -1.6656  2.6086  0.6456
  111OSM   H16G11542   6.256   4.320   9.055 -0.3662  0.2688  1.3461
  111OSM   C17F11543   6.261   4.116   8.996  0.0309 -0.0652 -0.4420
  111OSM   H17F11544   6.267   4.018   9.047 -2.9195  0.2877  0.7055
  111OSM   H17G11545   6.336   4.100   8.916  0.9213 -1.9691  0.7350
  111OSM   C18F11546   6.123   4.128   8.947  1.0094 -0.5096  0.1340
  111OSM   H18F11547   6.095   4.059   8.865  0.9751 -0.4898  0.1290
  111OSM   H18G11548   6.099   4.227   8.903 -0.2881 -0.3951  1.0451
  111OSM   H18H11549   6.053   4.110   9.032  1.1467 -0.0019  0.3576
  112OSM      N11550   4.633   1.599  11.049  0.2519  0.3693  0.4826
  112OSM    C1511551   4.545   1.725  11.057  0.0053  1.0545  0.2230
  112OSM   H15A11552   4.512   1.761  10.960  1.2010 -1.4950 -1.1998
  112OSM   H15B11553   4.607   1.803  11.098  2.1244  0.4353 -1.6989
  112OSM   H15C11554   4.458   1.714  11.120 -1.4959  0.3191 -1.9048
  112OSM    C1411555   4.701   1.573  11.177  0.4205 -0.9376 -0.5859
  112OSM   H14A11556   4.757   1.662  11.203 -0.8639 -0.2719 -0.0607
  112OSM   H14B11557   4.774   1.494  11.173  0.7752 -0.7818  2.1230
  112OSM   H14C11558   4.635   1.548  11.259  1.0431  0.2421  0.2978
  112OSM    C1311559   4.544   1.480  11.018 -0.4254  0.5758  0.9965
  112OSM   H13A11560   4.607   1.396  10.992  1.3751  2.2349 -0.1119
  112OSM   H13B11561   4.481   1.496  10.932 -1.3394 -0.7805  1.3954
  112OSM   H13C11562   4.480   1.437  11.094 -0.3526 -0.2193  0.6126
  112OSM    C1211563   4.744   1.620  10.937  0.4604  0.1996 -0.2888
  112OSM   H12A11564   4.806   1.533  10.921  2.0181  1.2382 -0.0629
  112OSM   H12B11565   4.819   1.691  10.968 -1.7346  1.5411  2.1551
  112OSM    C1111566   4.694   1.668  10.799  0.6802  0.3209 -0.1760
  112OSM   H11A11567   4.614   1.595  10.773 -0.4179  1.9633 -1.5321
  112OSM   H11B11568   4.772   1.650  10.722  0.5419 -1.2586  0.0424
  112OSM      P11569   4.759   1.912  10.782  0.2777  0.4151 -0.1323
  112OSM    O1311570   4.703   2.044  10.802 -0.2014 -0.6039 -0.0241
  112OSM    O1411571   4.876   1.867  10.862 -0.8981  0.7731  0.1091
  112OSM    O1111572   4.802   1.896  10.629  0.8478 -0.6208  0.5072
  112OSM    O1211573   4.646   1.802  10.791 -0.5457  0.0447  0.1084
  112OSM    C1S11574   4.705   1.908  10.525  0.2052 -0.5232 -0.6655
  112OSM    H1S11575   4.658   2.007  10.542  0.4610 -0.6947  1.2072
  112OSM    H1T11576   4.628   1.829  10.536 -0.8919  0.5265 -0.7363
  112OSM     NF11577   4.681   1.916  10.279  0.0541  0.2070  0.0291
  112OSM    HNF11578   4.638   1.837  10.235 -1.1329 -0.2529  1.9782
  112OSM    C2S11579   4.780   1.896  10.388  0.3989 -0.2268  0.6928
  112OSM    H2S11580   4.863   1.969  10.378  0.3196 -0.3268 -0.7674
  112OSM    C3S11581   4.850   1.755  10.376  0.2866  0.0869 -0.4495
  112OSM    H3S11582   4.766   1.684  10.369  2.7539 -2.9386 -0.5586
  112OSM     O311583   4.915   1.696  10.493 -0.0607 -0.3112  0.3939
  112OSM    HO311584   4.873   1.742  10.566 -1.6707 -2.0033  0.5652
  112OSM    C4S11585   4.935   1.753  10.250 -0.0215  0.1751  0.0312
  112OSM    H4S11586   4.883   1.697  10.171  0.6549 -1.4042  0.6788
  112OSM    C5S11587   5.063   1.783  10.235 -0.1891  1.1531 -0.2930
  112OSM    H5S11588   5.117   1.827  10.320 -0.0355  0.9907 -0.3046
  112OSM    C6S11589   5.152   1.763  10.114 -0.2437  0.1496  0.6155
  112OSM    H6S11590   5.208   1.668  10.133  0.4445  0.0787 -1.6754
  112OSM    H6T11591   5.216   1.852  10.097 -1.5152  0.9077 -0.2430
  112OSM    C7S11592   5.072   1.726   9.989 -0.1050  0.1378  0.0621
  112OSM    H7S11593   5.012   1.813   9.955  0.2725  0.7904  1.0293
  112OSM    H7T11594   5.000   1.646  10.017 -0.3237  0.0542 -0.7371
  112OSM    C8S11595   5.156   1.664   9.877  0.0817 -1.0520 -0.0674
  112OSM    H8S11596   5.204   1.575   9.924 -0.2456  0.6445  3.7007
  112OSM    H8T11597   5.239   1.734   9.853 -1.9185  1.1838 -0.6323
  112OSM    C9S11598   5.071   1.623   9.761  0.6895 -0.2021 -0.0900
  112OSM    H9S11599   4.970   1.582   9.783  0.2562 -0.0019 -1.6566
  112OSM    H9T11600   5.124   1.536   9.717  0.2517 -0.0321 -0.9797
  112OSM   C10S11601   5.062   1.728   9.641  0.5286 -0.5969  0.1348
  112OSM   H10S11602   5.156   1.758   9.592  1.7156 -1.4124  1.8614
  112OSM   H10T11603   5.028   1.815   9.701 -3.0245 -1.0294 -1.0996
  112OSM   C11S11604   4.960   1.686   9.534 -0.5055  0.0912 -0.0352
  112OSM   H11S11605   4.878   1.649   9.599  0.2160  0.8371  1.3041
  112OSM   H11T11606   4.998   1.602   9.472 -0.9482  0.4651 -0.8209
  112OSM   C12S11607   4.931   1.791   9.428  0.0781  0.0145 -0.2416
  112OSM   H12S11608   5.028   1.801   9.374  0.6711 -1.5828  0.5190
  112OSM   H12T11609   4.901   1.887   9.475 -1.9252 -0.6370 -0.1714
  112OSM   C13S11610   4.820   1.759   9.323 -0.2360 -0.6081 -0.0700
  112OSM   H13S11611   4.847   1.656   9.293 -1.3738 -0.9491  0.0341
  112OSM   H13T11612   4.844   1.836   9.247 -2.0145  0.2746  0.2367
  112OSM   C14S11613   4.677   1.795   9.366 -1.1783  0.4416  0.0678
  112OSM   H14S11614   4.679   1.905   9.381 -1.4915  0.5844 -0.8607
  112OSM   H14T11615   4.638   1.746   9.457  1.5706 -0.4965  0.8053
  112OSM   C15S11616   4.573   1.762   9.257  0.8083  0.4723  0.1837
  112OSM   H15S11617   4.564   1.651   9.257  0.2933  0.4997  1.6947
  112OSM   H15T11618   4.597   1.787   9.152 -0.6720 -1.8145 -0.7510
  112OSM   C16S11619   4.433   1.811   9.303  0.0648  0.1263  0.6384
  112OSM   H16S11620   4.443   1.909   9.353  1.7496  0.3941 -0.1838
  112OSM   H16T11621   4.406   1.745   9.388  0.3754  1.4928  1.8148
  112OSM   C17S11622   4.322   1.807   9.192  0.7764 -0.4249  0.1282
  112OSM   H17S11623   4.331   1.896   9.126 -1.1880 -0.2012  0.1359
  112OSM   H17T11624   4.224   1.821   9.242 -0.9331 -0.9527 -2.9308
  112OSM   C18S11625   4.311   1.677   9.110 -0.2311 -0.2608 -0.4748
  112OSM   H18S11626   4.382   1.675   9.025  1.2257 -0.0653  0.7088
  112OSM   H18T11627   4.223   1.676   9.043 -0.1680  1.7705 -0.6275
  112OSM   H18U11628   4.292   1.589   9.175 -3.8292  0.6314 -0.2376
  112OSM    C1F11629   4.645   2.030  10.228 -0.4972 -0.4662 -0.1153
  112OSM     OF11630   4.687   2.139  10.261 -0.1337  0.2948  0.0831
  112OSM    C2F11631   4.550   2.019  10.114  0.1057 -0.5648  1.0394
  112OSM    H2F11632   4.466   1.956  10.150 -0.6225  1.7507  3.5484
  112OSM    H2G11633   4.602   1.960  10.036  1.9390  1.9515  0.3112
  112OSM    C3F11634   4.509   2.154  10.049  0.6710  0.5122  0.4132
  112OSM    H3F11635   4.601   2.203  10.011  0.2706  0.1262 -1.0704
  112OSM    H3G11636   4.459   2.213  10.129 -0.7639 -0.7492  0.4817
  112OSM    C4F11637   4.428   2.150   9.919 -0.1445 -0.2228 -0.1038
  112OSM    H4F11638   4.397   2.251   9.885 -0.8518 -0.0518  1.0180
  112OSM    H4G11639   4.335   2.095   9.943 -0.5733  0.0887 -1.0044
  112OSM    C5F11640   4.492   2.082   9.800  0.1271 -0.1848  0.1757
  112OSM    H5F11641   4.528   1.981   9.830  0.0299  0.1281  1.3934
  112OSM    H5G11642   4.569   2.147   9.754 -0.0394  0.1924  0.4339
  112OSM    C6F11643   4.390   2.042   9.690  0.1104  0.2459  0.1440
  112OSM    H6F11644   4.306   1.984   9.733 -0.0955 -0.2462 -0.9026
  112OSM    H6G11645   4.447   1.971   9.626  1.0541 -0.7033  1.9827
  112OSM    C7F11646   4.323   2.157   9.607 -0.0670  0.3690  0.0923
  112OSM    H7F11647   4.299   2.227   9.690 -0.6601 -0.5295  0.6981
  112OSM    H7G11648   4.223   2.136   9.563 -0.7387  1.5947  0.9955
  112OSM    C8F11649   4.408   2.211   9.489  0.6487  1.1811 -0.2465
  112OSM    H8F11650   4.409   2.133   9.409  1.2940  1.8860 -0.9351
  112OSM    H8G11651   4.514   2.214   9.523  0.4547  2.0147  0.2828
  112OSM    C9F11652   4.368   2.341   9.430 -0.2461  0.2818  0.0084
  112OSM    H9F11653   4.406   2.416   9.501 -0.3422  0.0439  0.3092
  112OSM   C10F11654   4.297   2.371   9.319 -0.6172 -0.1958  0.0020
  112OSM   H10F11655   4.290   2.477   9.290  1.3623 -0.1062 -0.2069
  112OSM   C11F11656   4.244   2.274   9.212 -1.1376 -0.4092  0.4093
  112OSM   H11F11657   4.132   2.273   9.211 -1.1445  0.3509 -0.0919
  112OSM   H11G11658   4.281   2.172   9.232  0.8318 -0.0598 -1.3052
  112OSM   C12F11659   4.318   2.308   9.077 -0.5009 -0.4213 -0.1844
  112OSM   H12F11660   4.428   2.308   9.094 -0.7102  1.5123  1.2651
  112OSM   H12G11661   4.291   2.415   9.059  0.9064 -0.1085 -0.4838
  112OSM   C13F11662   4.281   2.230   8.950  1.2671  0.8393  0.5934
  112OSM   H13F11663   4.170   2.233   8.945  1.2046 -2.1137 -1.0866
  112OSM   H13G11664   4.315   2.125   8.967  4.0905  1.5742 -0.2904
  112OSM   C14F11665   4.352   2.259   8.822 -0.7677 -0.7483 -0.0954
  112OSM   H14F11666   4.458   2.226   8.826 -0.9746 -1.4202 -0.0200
  112OSM   H14G11667   4.337   2.368   8.807  0.0501 -0.8146 -1.4938
  112OSM   C15F11668   4.287   2.199   8.698 -0.4818 -0.3068 -0.0130
  112OSM   H15F11669   4.257   2.094   8.723  1.7538 -0.8080  0.6980
  112OSM   H15G11670   4.358   2.188   8.613  1.7363  5.5821  0.8543
  112OSM   C16F11671   4.178   2.279   8.636 -0.2311 -0.3635  0.5134
  112OSM   H16F11672   4.175   2.387   8.662  0.3630 -0.6754  1.9218
  112OSM   H16G11673   4.089   2.253   8.697  0.5491 -1.6688  1.1334
  112OSM   C17F11674   4.136   2.263   8.484  0.4820 -0.0827  0.3153
  112OSM   H17F11675   4.075   2.172   8.463 -0.1178  0.2851  0.4577
  112OSM   H17G11676   4.229   2.255   8.424 -1.6366 -1.2047 -2.9340
  112OSM   C18F11677   4.055   2.384   8.439 -0.1893 -0.0524  0.6879
  112OSM   H18F11678   3.958   2.396   8.490 -1.0315  0.7446 -1.0718
  112OSM   H18G11679   4.047   2.375   8.329  0.9745 -2.2462  0.7478
  112OSM   H18H11680   4.103   2.482   8.460 -1.6413  0.4046  1.8922
  113OSM      N11681   4.760   0.742  11.193 -0.1345  0.1167  0.3432
  113OSM    C1511682   4.823   0.642  11.282 -0.2083  0.1568  0.1896
  113OSM   H15A11683   4.776   0.645  11.379 -1.1096 -1.2510 -0.1887
  113OSM   H15B11684   4.927   0.670  11.293 -0.7007  1.4310  1.9116
  113OSM   H15C11685   4.806   0.546  11.238  0.1013 -0.3734  1.2029
  113OSM    C1411686   4.616   0.710  11.169 -0.2023 -0.5629  0.2743
  113OSM   H14A11687   4.567   0.785  11.108  0.8284  0.4304  0.6598
  113OSM   H14B11688   4.560   0.728  11.259  2.0874  0.7783  1.4715
  113OSM   H14C11689   4.599   0.612  11.127 -0.5352  0.2359 -1.4918
  113OSM    C1311690   4.773   0.871  11.258 -0.4221 -0.2136  0.1623
  113OSM   H13A11691   4.870   0.872  11.304 -0.2099  0.8937 -0.3050
  113OSM   H13B11692   4.700   0.885  11.336  0.4639  1.1247  0.7552
  113OSM   H13C11693   4.773   0.956  11.192  2.6317 -0.0268  0.3643
  113OSM    C1211694   4.837   0.730  11.067  0.3432 -0.5268  0.1405
  113OSM   H12A11695   4.832   0.629  11.028  0.9178 -0.8684  0.9137
  113OSM   H12B11696   4.943   0.731  11.090  0.4235  2.6303 -0.2205
  113OSM    C1111697   4.819   0.838  10.958  0.3510 -0.0451 -0.1400
  113OSM   H11A11698   4.711   0.864  10.945  0.5428  1.2726  0.7753
  113OSM   H11B11699   4.852   0.786  10.866  1.4414 -0.7326  0.6284
  113OSM      P11700   5.038   0.967  10.976  0.1925  0.3579 -0.1955
  113OSM    O1311701   5.087   1.097  11.030 -0.5436 -0.3326  0.2846
  113OSM    O1411702   5.097   0.844  11.026  0.1230  0.2962  0.2917
  113OSM    O1111703   5.067   0.965  10.825  0.1109  0.3729 -0.0148
  113OSM    O1211704   4.886   0.957  10.992 -0.1807  0.6657  0.1856
  113OSM    C1S11705   5.015   1.071  10.739  0.6118  0.3693  0.1553
  113OSM    H1S11706   5.064   1.167  10.763  0.4434  0.3573  0.5571
  113OSM    H1T11707   4.907   1.093  10.756  1.0504  0.7073  2.6781
  113OSM     NF11708   4.953   1.139  10.512  0.4858  0.7925 -0.1271
  113OSM    HNF11709   4.874   1.091  10.476 -1.1161  2.5704  0.9260
  113OSM    C2S11710   5.038   1.051  10.582 -0.1638  0.1273  0.0135
  113OSM    H2S11711   5.146   1.072  10.565 -0.6129  0.0211 -3.3636
  113OSM    C3S11712   5.009   0.903  10.537  0.7514  0.0828  0.3075
  113OSM    H3S11713   4.902   0.877  10.552  0.2565  1.4837 -0.6383
  113OSM     O311714   5.098   0.817  10.614  0.3320 -0.1467  0.9912
  113OSM    HO311715   5.104   0.850  10.703  0.9295 -0.8978  1.2393
  113OSM    C4S11716   5.051   0.879  10.399  0.4887 -0.2655 -0.7300
  113OSM    H4S11717   5.156   0.847  10.395  0.1467 -2.2115  3.0508
  113OSM    C5S11718   4.976   0.864  10.291 -0.3351 -0.1162  0.2653
  113OSM    H5S11719   4.867   0.868  10.308 -0.3041  1.2358  0.2601
  113OSM    C6S11720   5.026   0.832  10.150  0.6519  0.2411  0.4193
  113OSM    H6S11721   5.046   0.925  10.092  0.9605  0.6206  1.1316
  113OSM    H6T11722   4.949   0.767  10.104  1.7438 -1.8879  1.5584
  113OSM    C7S11723   5.162   0.753  10.152 -0.0128  0.1835  0.0140
  113OSM    H7S11724   5.137   0.662  10.211  0.9229 -0.2542 -0.2668
  113OSM    H7T11725   5.233   0.807  10.218 -0.8034  1.4199 -0.1180
  113OSM    C8S11726   5.238   0.727  10.022 -0.5940  0.0491  0.2233
  113OSM    H8S11727   5.329   0.671  10.052 -0.8182  0.6687  2.1491
  113OSM    H8T11728   5.278   0.823   9.983 -0.5009 -0.4590 -0.9409
  113OSM    C9S11729   5.157   0.647   9.923 -0.3233 -0.7655 -0.1007
  113OSM    H9S11730   5.061   0.696   9.899 -0.5965 -0.7103  1.0650
  113OSM    H9T11731   5.139   0.548   9.971 -0.8188 -0.6406 -0.0316
  113OSM   C10S11732   5.235   0.620   9.794 -0.5680 -0.0085 -0.3063
  113OSM   H10S11733   5.328   0.563   9.816  0.7146  2.9408  2.4133
  113OSM   H10T11734   5.263   0.717   9.747  1.7013 -1.6837 -2.5261
  113OSM   C11S11735   5.151   0.550   9.677  0.2596 -0.5915 -0.6172
  113OSM   H11S11736   5.050   0.596   9.680  0.5699  0.0411  0.4485
  113OSM   H11T11737   5.130   0.443   9.697 -1.6650 -0.5922 -2.4861
  113OSM   C12S11738   5.214   0.562   9.543  0.9087  0.2217 -0.2425
  113OSM   H12S11739   5.323   0.545   9.554  1.1427  1.0789 -1.1490
  113OSM   H12T11740   5.214   0.669   9.512  1.9330  0.0835 -0.7098
  113OSM   C13S11741   5.151   0.458   9.443  0.1216 -0.5432  0.2904
  113OSM   H13S11742   5.041   0.471   9.432  0.2708  0.5670  0.0033
  113OSM   H13T11743   5.167   0.357   9.485 -2.3130 -1.4452 -0.8954
  113OSM   C14S11744   5.231   0.473   9.311  0.0370  0.3413  0.0949
  113OSM   H14S11745   5.341   0.484   9.323 -0.3139  2.7838  1.2471
  113OSM   H14T11746   5.180   0.566   9.278 -0.1780 -0.9543 -3.4327
  113OSM   C15S11747   5.188   0.368   9.198 -0.4338  0.2331 -0.2339
  113OSM   H15S11748   5.083   0.396   9.175 -1.1244 -2.0103  0.0679
  113OSM   H15T11749   5.183   0.265   9.241 -1.1734  0.2281 -0.3280
  113OSM   C16S11750   5.277   0.365   9.072 -0.1464  0.1905 -0.7288
  113OSM   H16S11751   5.295   0.471   9.044 -2.2014  1.2576  1.7555
  113OSM   H16T11752   5.236   0.323   8.978  2.3397  0.6554 -2.0598
  113OSM   C17S11753   5.418   0.294   9.085  0.0800 -0.1021  0.2716
  113OSM   H17S11754   5.479   0.321   9.174  0.5640 -0.4212  0.0415
  113OSM   H17T11755   5.484   0.332   9.004  0.2901  0.0040  0.4894
  113OSM   C18S11756   5.404   0.145   9.071 -0.0806  0.1669  0.1739
  113OSM   H18S11757   5.506   0.103   9.066  0.5296  1.3515  1.9734
  113OSM   H18T11758   5.348   0.127   8.977 -0.4111 -0.9760  0.5860
  113OSM   H18U11759   5.361   0.107   9.166  1.1637 -0.0973  0.6375
  113OSM    C1F11760   4.963   1.268  10.511 -0.8491  0.2118 -1.0722
  113OSM     OF11761   5.068   1.326  10.551  0.0699  0.3624  0.0083
  113OSM    C2F11762   4.844   1.350  10.461 -0.5914 -0.1322 -0.3938
  113OSM    H2F11763   4.844   1.438  10.528  3.1169 -0.6926  0.4464
  113OSM    H2G11764   4.752   1.288  10.469 -0.3166 -0.6083 -0.9368
  113OSM    C3F11765   4.864   1.398  10.312 -0.7242  0.2344 -0.4377
  113OSM    H3F11766   4.947   1.472  10.305  0.7279 -1.1965  1.0504
  113OSM    H3G11767   4.773   1.456  10.288  0.0096  1.1346 -1.0810
  113OSM    C4F11768   4.866   1.282  10.208 -0.3438 -0.2207 -0.3309
  113OSM    H4F11769   4.775   1.218  10.218 -2.0178  1.8600 -1.6510
  113OSM    H4G11770   4.953   1.217  10.229 -0.2030  0.8307  2.5905
  113OSM    C5F11771   4.873   1.327  10.060  0.0928  0.2585 -0.3652
  113OSM    H5F11772   4.967   1.383  10.041 -0.3859  2.4481  3.3272
  113OSM    H5G11773   4.785   1.394  10.050  0.4996  0.5567 -2.1937
  113OSM    C6F11774   4.853   1.209   9.963 -0.5081  0.2314  0.2134
  113OSM    H6F11775   4.749   1.172   9.946 -0.9357  1.4467  0.1343
  113OSM    H6G11776   4.909   1.122  10.003 -2.5903 -0.6704  1.2516
  113OSM    C7F11777   4.915   1.232   9.818  0.4942 -0.1419  0.2264
  113OSM    H7F11778   5.025   1.242   9.829  0.4009  0.9833  0.1304
  113OSM    H7G11779   4.876   1.329   9.782 -2.1364 -1.8652 -1.7810
  113OSM    C8F11780   4.892   1.111   9.723 -0.1920  0.3628  0.0518
  113OSM    H8F11781   4.914   1.134   9.616  0.5524 -1.6878 -0.2565
  113OSM    H8G11782   4.784   1.085   9.724 -0.3115  0.7694 -1.3395
  113OSM    C9F11783   4.962   0.986   9.757 -0.7110  0.4573  0.7281
  113OSM    H9F11784   4.961   0.964   9.865  1.5984 -0.0335  0.6663
  113OSM   C10F11785   5.045   0.919   9.671  0.7390 -0.2632 -0.3175
  113OSM   H10F11786   5.102   0.834   9.711 -1.7199 -2.4492 -1.3838
  113OSM   C11F11787   5.085   0.961   9.526 -0.1498  0.1890 -0.6712
  113OSM   H11F11788   5.188   0.931   9.498 -0.6938 -0.1001 -2.4045
  113OSM   H11G11789   5.086   1.071   9.511  2.9342  0.4730  1.0084
  113OSM   C12F11790   4.999   0.901   9.424  0.6935  0.1145  0.4502
  113OSM   H12F11791   4.894   0.905   9.460 -0.4931  1.5467 -3.0294
  113OSM   H12G11792   5.011   0.790   9.418 -3.1878 -0.2793 -1.7154
  113OSM   C13F11793   5.011   0.958   9.285 -0.3482  0.1089  0.0265
  113OSM   H13F11794   4.981   1.065   9.286  0.8370  0.4417  0.4627
  113OSM   H13G11795   4.942   0.899   9.221  0.3926 -0.5124 -0.2143
  113OSM   C14F11796   5.150   0.950   9.218  0.2787 -0.1046 -0.1800
  113OSM   H14F11797   5.152   0.839   9.212 -0.6167 -0.0855 -1.0115
  113OSM   H14G11798   5.233   0.992   9.278  0.1697  1.4044 -1.0643
  113OSM   C15F11799   5.135   1.010   9.074  0.1155 -0.0579 -0.6894
  113OSM   H15F11800   5.238   1.031   9.038  0.4448  2.1746  1.3589
  113OSM   H15G11801   5.089   1.110   9.058 -0.3715 -0.1618  0.0200
  113OSM   C16F11802   5.064   0.894   8.991  0.2056  0.4435  0.3875
  113OSM   H16F11803   4.960   0.869   9.022  0.6431 -0.9304  0.7551
  113OSM   H16G11804   5.127   0.803   8.988  0.5785  0.6916  0.7511
  113OSM   C17F11805   5.069   0.953   8.852  0.1079  0.5338 -1.1075
  113OSM   H17F11806   5.164   0.998   8.815  0.6397  0.0979 -0.2754
  113OSM   H17G11807   4.995   1.036   8.855  0.6754  1.0677 -1.6119
  113OSM   C18F11808   5.018   0.855   8.743  0.6629  0.0457  0.0181
  113OSM   H18F11809   5.050   0.888   8.642  2.5971  0.2313  0.6592
  113OSM   H18G11810   4.915   0.823   8.769  1.8054 -0.9632  3.5370
  113OSM   H18H11811   5.068   0.756   8.743 -2.2483 -1.4698 -0.5845
  114OSM      N11812   6.297   6.473  11.531 -0.2715 -0.0081 -0.5631
  114OSM    C1511813   6.329   6.557  11.656  0.0531  0.0134  0.2355
  114OSM   H15A11814   6.418   6.618  11.654  0.0418  0.1187  2.2366
  114OSM   H15B11815   6.338   6.488  11.739 -0.3179 -1.2863 -0.7863
  114OSM   H15C11816   6.242   6.621  11.663  0.1815  0.2903 -0.6097
  114OSM    C1411817   6.275   6.557  11.403 -0.5280 -0.0553 -0.5289
  114OSM   H14A11818   6.260   6.483  11.325  0.3279 -1.9342  1.0479
  114OSM   H14B11819   6.355   6.623  11.373  0.3732 -0.2046  1.4795
  114OSM   H14C11820   6.193   6.625  11.419  1.2607  1.9924  0.1134
  114OSM    C1311821   6.410   6.372  11.510  0.0358 -0.2063  0.0248
  114OSM   H13A11822   6.395   6.312  11.422  0.9462 -0.4371  0.0279
  114OSM   H13B11823   6.423   6.308  11.596 -0.2902 -1.6999 -1.0058
  114OSM   H13C11824   6.498   6.433  11.502 -0.3371  0.2667 -0.5731
  114OSM    C1211825   6.173   6.397  11.564 -0.9036  0.0082  0.2006
  114OSM   H12A11826   6.187   6.333  11.650 -0.3920 -0.3954 -0.1798
  114OSM   H12B11827   6.149   6.329  11.484  2.9692  1.8445 -2.7075
  114OSM    C1111828   6.046   6.481  11.593  0.5696  0.5188 -0.2281
  114OSM   H11A11829   6.059   6.559  11.671  1.2720  0.9858 -0.7966
  114OSM   H11B11830   5.974   6.416  11.646  0.6559 -0.1223 -0.8799
  114OSM      P11831   5.900   6.424  11.381  0.1175 -0.2271  0.1525
  114OSM    O1311832   5.997   6.323  11.326 -0.2417 -0.4005  0.3479
  114OSM    O1411833   5.777   6.373  11.458 -0.1703 -0.0885  0.7995
  114OSM    O1111834   5.852   6.516  11.266  0.2374 -0.8742  0.7921
  114OSM    O1211835   5.980   6.526  11.466  0.6060  1.0834  0.4630
  114OSM    C1S11836   5.940   6.564  11.168 -0.8998 -0.1372 -0.0395
  114OSM    H1S11837   6.015   6.486  11.147 -0.6356  0.0030  0.3878
  114OSM    H1T11838   6.000   6.650  11.207 -0.0344 -0.9460  0.4215
  114OSM     NF11839   5.980   6.655  10.953 -0.3030 -0.2221  0.1275
  114OSM    HNF11840   5.986   6.753  10.966 -0.7642  0.0307 -1.4867
  114OSM    C2S11841   5.875   6.591  11.024 -1.0768  0.0007  0.2501
  114OSM    H2S11842   5.862   6.491  10.978 -1.5321  0.6548 -1.0738
  114OSM    C3S11843   5.746   6.672  11.036  0.0828  0.6464  0.7011
  114OSM    H3S11844   5.761   6.776  11.071 -0.1063  1.2301 -0.9088
  114OSM     O311845   5.647   6.624  11.120 -0.1260 -0.2464  0.1630
  114OSM    HO311846   5.687   6.571  11.190 -0.4112  0.2054  0.6778
  114OSM    C4S11847   5.690   6.687  10.894  0.3434 -0.4889 -0.0802
  114OSM    H4S11848   5.725   6.780  10.848 -0.8323 -0.7211 -1.4772
  114OSM    C5S11849   5.595   6.611  10.828  0.2615  0.0982  0.1541
  114OSM    H5S11850   5.556   6.520  10.876  0.4677  1.2096  2.5039
  114OSM    C6S11851   5.543   6.623  10.689 -0.0905  0.3691 -0.0029
  114OSM    H6S11852   5.434   6.647  10.686  0.1263  1.2321 -1.7050
  114OSM    H6T11853   5.563   6.530  10.633  2.0285 -0.1879  1.6207
  114OSM    C7S11854   5.600   6.724  10.578  0.4092 -0.5789 -0.4346
  114OSM    H7S11855   5.710   6.733  10.592  0.4008 -1.3880  0.1808
  114OSM    H7T11856   5.554   6.824  10.597  0.6854 -0.2498 -1.4407
  114OSM    C8S11857   5.568   6.694  10.429 -0.1405 -0.3123  0.2468
  114OSM    H8S11858   5.573   6.587  10.397  1.3209 -0.0042 -0.6021
  114OSM    H8T11859   5.649   6.740  10.369 -0.0063  0.7372  1.2217
  114OSM    C9S11860   5.440   6.771  10.376 -0.1504 -0.1538 -0.4174
  114OSM    H9S11861   5.441   6.876  10.410 -0.7152  0.3817 -2.0159
  114OSM    H9T11862   5.349   6.725  10.419 -0.0292 -0.0744 -0.0738
  114OSM   C10S11863   5.430   6.766  10.228 -0.4632  0.6679 -0.0079
  114OSM   H10S11864   5.529   6.788  10.184 -0.3465 -2.6222 -1.5456
  114OSM   H10T11865   5.371   6.847  10.181  1.5839  2.3587  0.2772
  114OSM   C11S11866   5.382   6.629  10.164  0.0023  0.2734  0.5948
  114OSM   H11S11867   5.276   6.616  10.197 -0.2142  1.9698  0.6274
  114OSM   H11T11868   5.432   6.545  10.215  0.0874  0.0244  0.1034
  114OSM   C12S11869   5.384   6.630  10.007  0.3941  0.0825  0.3429
  114OSM   H12S11870   5.491   6.625   9.979  0.2642  0.2171 -0.1645
  114OSM   H12T11871   5.339   6.728   9.979 -0.7430 -1.0817 -1.9966
  114OSM   C13S11872   5.304   6.516   9.936 -0.1374  0.8520 -0.4265
  114OSM   H13S11873   5.198   6.549   9.938 -0.1678  0.7651 -0.6969
  114OSM   H13T11874   5.319   6.423   9.995 -1.1702 -0.6625 -2.5269
  114OSM   C14S11875   5.357   6.488   9.802  0.5919 -0.0786  0.0253
  114OSM   H14S11876   5.463   6.457   9.805 -0.0810 -2.2568  1.9294
  114OSM   H14T11877   5.350   6.588   9.754  2.8583  0.4124  0.6969
  114OSM   C15S11878   5.272   6.394   9.720  0.2974  0.0756 -0.6075
  114OSM   H15S11879   5.169   6.409   9.760  1.2837  2.2034  1.2707
  114OSM   H15T11880   5.302   6.290   9.741  0.6500  0.3262  0.1352
  114OSM   C16S11881   5.281   6.400   9.572  0.5931 -0.2346  0.6300
  114OSM   H16S11882   5.387   6.396   9.540 -0.0296 -1.8859 -1.3507
  114OSM   H16T11883   5.226   6.490   9.537  2.6380  0.2514 -1.4247
  114OSM   C17S11884   5.226   6.286   9.490 -0.0141 -0.2020  0.3621
  114OSM   H17S11885   5.126   6.266   9.535 -0.6311 -0.2076 -0.9836
  114OSM   H17T11886   5.278   6.189   9.502  2.4802  0.5958 -3.1408
  114OSM   C18S11887   5.206   6.336   9.349  0.1878  0.1880  0.5062
  114OSM   H18S11888   5.138   6.424   9.345  1.0090  0.8246  0.3213
  114OSM   H18T11889   5.156   6.248   9.303  0.2040  0.3154  0.2371
  114OSM   H18U11890   5.295   6.352   9.285 -0.1010  1.8533  0.4836
  114OSM    C1F11891   6.083   6.594  10.894  0.0537 -0.4336  0.5931
  114OSM     OF11892   6.114   6.483  10.928 -0.0811 -0.5579 -0.8448
  114OSM    C2F11893   6.166   6.670  10.795  0.1769  0.3576 -0.3711
  114OSM    H2F11894   6.271   6.656  10.829  0.6422  3.1395 -0.5237
  114OSM    H2G11895   6.148   6.780  10.797 -1.8035  0.0355  0.8229
  114OSM    C3F11896   6.148   6.628  10.642 -0.7234 -0.4950  0.1945
  114OSM    H3F11897   6.178   6.521  10.634  1.0096 -0.0254  0.2262
  114OSM    H3G11898   6.220   6.687  10.582 -1.6907  0.3373 -0.1506
  114OSM    C4F11899   6.012   6.639  10.574  0.3350  0.5834  0.1433
  114OSM    H4F11900   5.980   6.745  10.570 -0.1753  0.4361  0.3079
  114OSM    H4G11901   5.939   6.574  10.627 -1.1152  0.6813 -1.6806
  114OSM    C5F11902   6.029   6.594  10.425 -0.2090 -0.3608  0.0842
  114OSM    H5F11903   6.057   6.487  10.417 -1.2403 -0.6011 -0.4558
  114OSM    H5G11904   6.108   6.659  10.381  0.0025 -1.9447 -1.9272
  114OSM    C6F11905   5.899   6.594  10.342 -0.2850 -0.4735  0.1551
  114OSM    H6F11906   5.873   6.702  10.334  0.6324 -0.0834  1.9472
  114OSM    H6G11907   5.820   6.534  10.392 -0.0958 -1.6447 -0.9257
  114OSM    C7F11908   5.916   6.542  10.201  0.2197  0.0636  0.6764
  114OSM    H7F11909   5.937   6.433  10.207  0.7567  0.0932 -0.4625
  114OSM    H7G11910   6.001   6.589  10.147  0.9203 -1.6615  0.2303
  114OSM    C8F11911   5.791   6.570  10.117  0.6324  0.2161 -0.3920
  114OSM    H8F11912   5.755   6.669  10.154 -2.2730 -0.9756  0.0901
  114OSM    H8G11913   5.704   6.510  10.150  0.6344 -0.8246 -2.2234
  114OSM    C9F11914   5.814   6.560   9.965  0.8760 -0.4664  0.5533
  114OSM    H9F11915   5.814   6.457   9.926 -1.9105 -0.0301 -0.6990
  114OSM   C10F11916   5.828   6.663   9.879 -0.5317  0.3173  0.3653
  114OSM   H10F11917   5.827   6.645   9.771  1.8818  2.5990 -0.1025
  114OSM   C11F11918   5.821   6.809   9.909 -0.0845  0.0593 -0.2679
  114OSM   H11F11919   5.794   6.841  10.012 -0.7810 -0.8129 -0.1688
  114OSM   H11G11920   5.742   6.849   9.843  1.1731 -0.4660 -2.1259
  114OSM   C12F11921   5.948   6.892   9.874  0.3853 -0.5418 -0.3440
  114OSM   H12F11922   5.936   6.996   9.911 -1.3367 -0.9620  0.3194
  114OSM   H12G11923   5.959   6.893   9.763  1.0083 -4.0577 -0.3831
  114OSM   C13F11924   6.079   6.847   9.938  0.4222  0.4681  0.0709
  114OSM   H13F11925   6.168   6.887   9.886  2.0139  0.1207  2.4193
  114OSM   H13G11926   6.093   6.737   9.929 -0.1957  0.5151 -1.4671
  114OSM   C14F11927   6.089   6.897  10.089  0.3564 -0.8096 -0.2389
  114OSM   H14F11928   6.030   6.824  10.148 -1.4054  1.0575  0.3535
  114OSM   H14G11929   6.028   6.989  10.098  1.0626 -0.2349 -1.2789
  114OSM   C15F11930   6.228   6.918  10.145 -1.7510 -0.5607 -1.5325
  114OSM   H15F11931   6.292   6.989  10.089 -0.2990 -0.6044  0.0369
  114OSM   H15G11932   6.285   6.823  10.143 -0.4586  0.1777 -0.4806
  114OSM   C16F11933   6.213   6.959  10.289  0.1450 -0.4105 -0.0403
  114OSM   H16F11934   6.127   6.902  10.331  0.8287 -1.6967 -0.3643
  114OSM   H16G11935   6.183   7.066  10.292  0.4948 -0.2457 -2.2269
  114OSM   C17F11936   6.343   6.943  10.373 -0.5687  0.0318 -0.3712
  114OSM   H17F11937   6.424   7.007  10.333  0.4206 -1.4743 -0.8319
  114OSM   H17G11938   6.379   6.839  10.359  0.5719  0.3097  0.3914
  114OSM   C18F11939   6.335   6.979  10.520 -0.2134  0.4060 -0.8354
  114OSM   H18F11940   6.364   7.084  10.541  0.4227 -0.2024  1.5593
  114OSM   H18G11941   6.413   6.920  10.574 -1.0119 -0.7683 -0.9584
  114OSM   H18H11942   6.230   6.963  10.553  0.2979 -1.3093  0.0592
  115OSM      N11943   1.268   3.692   6.326 -0.2073  0.1394 -0.1792
  115OSM    C1511944   1.346   3.566   6.328  0.3194 -0.7237 -0.0484
  115OSM   H15A11945   1.439   3.568   6.384 -0.2312 -1.5747  0.9070
  115OSM   H15B11946   1.359   3.522   6.230  1.9029 -0.6075  0.0941
  115OSM   H15C11947   1.288   3.488   6.374 -0.9669  1.4120  2.0600
  115OSM    C1411948   1.264   3.733   6.470  0.0216  0.0107 -0.1216
  115OSM   H14A11949   1.210   3.662   6.531 -1.0329  0.6792 -0.2662
  115OSM   H14B11950   1.202   3.821   6.475 -0.6822 -0.3107 -2.4947
  115OSM   H14C11951   1.361   3.754   6.513  1.1043 -3.2798 -0.8170
  115OSM    C1311952   1.346   3.800   6.245  0.5160 -0.1755 -0.0331
  115OSM   H13A11953   1.289   3.891   6.248 -0.1976 -0.6030 -0.6013
  115OSM   H13B11954   1.352   3.774   6.141  0.3047  1.7204 -0.5240
  115OSM   H13C11955   1.444   3.812   6.290 -0.2670 -0.6467  1.8615
  115OSM    C1211956   1.128   3.672   6.266  0.2808 -1.1873 -0.4750
  115OSM   H12A11957   1.086   3.770   6.252  1.4620 -0.5044  0.5974
  115OSM   H12B11958   1.071   3.622   6.343  2.2893 -1.7391  0.6878
  115OSM    C1111959   1.115   3.609   6.127 -0.0075  0.0650  0.0843
  115OSM   H11A11960   1.202   3.640   6.064 -1.3082 -1.7401 -2.7302
  115OSM   H11B11961   1.029   3.665   6.085  0.9407  1.0530 -0.5576
  115OSM      P11962   0.975   3.401   6.185 -0.0648 -0.4357 -0.1640
  115OSM    O1311963   0.861   3.490   6.150  0.5965 -0.2595 -0.1590
  115OSM    O1411964   0.970   3.258   6.144  0.0045  0.3932  0.6972
  115OSM    O1111965   1.001   3.402   6.339  0.3711  0.6224 -0.1657
  115OSM    O1211966   1.109   3.468   6.116  0.1668  0.1314 -0.1178
  115OSM    C1S11967   1.099   3.307   6.390  0.0065  0.4327  0.2727
  115OSM    H1S11968   1.194   3.322   6.336 -0.2676  0.0160 -0.3366
  115OSM    H1T11969   1.082   3.202   6.358 -0.5025  1.5050 -3.1653
  115OSM     NF11970   1.193   3.203   6.586  0.2613 -0.2578 -0.1373
  115OSM    HNF11971   1.141   3.119   6.601  1.3842 -0.8656  0.4552
  115OSM    C2S11972   1.104   3.311   6.545  0.0477 -0.2323 -0.6709
  115OSM    H2S11973   1.144   3.409   6.580 -0.8434 -0.4841  1.0854
  115OSM    C3S11974   0.971   3.289   6.618  0.7235 -0.5338 -0.2534
  115OSM    H3S11975   0.944   3.181   6.620  2.7616 -1.0776 -1.0951
  115OSM     O311976   0.857   3.351   6.555 -0.3453 -0.1621  0.3709
  115OSM    HO311977   0.885   3.375   6.467 -2.9570  2.1144  0.0883
  115OSM    C4S11978   0.979   3.332   6.762  0.5301 -0.8247  0.3572
  115OSM    H4S11979   0.985   3.249   6.833 -3.0288 -0.8218  0.7796
  115OSM    C5S11980   0.964   3.459   6.810 -0.1377  0.3816  0.3424
  115OSM    H5S11981   0.928   3.533   6.737 -0.3063 -0.0330  0.0065
  115OSM    C6S11982   0.972   3.505   6.956  0.6809  0.4657 -0.2897
  115OSM    H6S11983   0.924   3.603   6.973 -1.4821 -0.6794  0.3939
  115OSM    H6T11984   1.079   3.522   6.981  0.2289  0.9349  1.3896
  115OSM    C7S11985   0.907   3.397   7.045 -0.4719 -0.8977  0.2999
  115OSM    H7S11986   0.969   3.306   7.060 -1.0918 -1.4179 -0.2233
  115OSM    H7T11987   0.809   3.364   7.003 -0.7179  0.7267 -0.4562
  115OSM    C8S11988   0.892   3.462   7.183  0.1639  0.3029 -0.4034
  115OSM    H8S11989   0.811   3.539   7.179  0.5327  0.9013  2.4894
  115OSM    H8T11990   0.990   3.507   7.209 -0.0018 -0.7706  2.2420
  115OSM    C9S11991   0.868   3.366   7.300  0.1653  0.0664 -0.1855
  115OSM    H9S11992   0.957   3.301   7.314  0.7943  1.6474  3.7863
  115OSM    H9T11993   0.777   3.306   7.283  0.1049 -0.2048  1.0951
  115OSM   C10S11994   0.846   3.442   7.430  0.2468  0.2077  0.2692
  115OSM   H10S11995   0.759   3.510   7.440 -1.2428 -1.7253  0.6097
  115OSM   H10T11996   0.929   3.515   7.444 -1.3173  1.9818  0.4297
  115OSM   C11S11997   0.852   3.351   7.549 -0.5848 -1.3519  0.3888
  115OSM   H11S11998   0.927   3.273   7.523  1.2893  1.2412 -2.1990
  115OSM   H11T11999   0.758   3.293   7.564 -1.4384 -0.0799 -0.0154
  115OSM   C12S12000   0.904   3.429   7.674  0.1371  0.3568  0.8859
  115OSM   H12S12001   0.819   3.494   7.704 -1.3263 -0.7271 -0.8479
  115OSM   H12T12002   0.995   3.491   7.657 -0.0204  0.2005 -0.5500
  115OSM   C13S12003   0.922   3.320   7.788  0.1107  1.0546  0.2402
  115OSM   H13S12004   0.997   3.243   7.760 -2.3772 -0.9639 -1.1475
  115OSM   H13T12005   0.826   3.268   7.805 -0.4344  1.3099 -1.8419
  115OSM   C14S12006   0.965   3.381   7.918  0.1232  0.2303 -0.9552
  115OSM   H14S12007   0.880   3.441   7.955 -2.1947 -1.9500 -2.5400
  115OSM   H14T12008   1.052   3.450   7.914  0.2629  0.2052  1.2966
  115OSM   C15S12009   0.995   3.279   8.025  0.1405 -0.4494 -0.3160
  115OSM   H15S12010   1.076   3.217   7.981 -0.6995 -1.0395 -1.0372
  115OSM   H15T12011   0.907   3.226   8.067  0.2569 -1.0342 -0.8200
  115OSM   C16S12012   1.064   3.343   8.145 -0.6849  0.0612 -0.3288
  115OSM   H16S12013   0.996   3.414   8.196 -0.4426  0.1937 -0.1857
  115OSM   H16T12014   1.141   3.413   8.105 -2.4977  2.3769  0.1672
  115OSM   C17S12015   1.118   3.235   8.238 -0.1883  0.1753  0.1926
  115OSM   H17S12016   1.221   3.220   8.201  0.2147 -2.1474  2.1527
  115OSM   H17T12017   1.062   3.140   8.222  0.1993 -0.0183 -0.0085
  115OSM   C18S12018   1.132   3.277   8.387 -0.0714 -0.2017 -0.7430
  115OSM   H18S12019   1.033   3.299   8.431 -0.7256 -1.7706 -1.3855
  115OSM   H18T12020   1.186   3.374   8.379  0.9103 -0.4484  2.2516
  115OSM   H18U12021   1.199   3.208   8.443  0.0879  0.5752  0.0438
  115OSM    C1F12022   1.322   3.205   6.555 -0.5085 -0.1495 -0.4064
  115OSM     OF12023   1.377   3.297   6.499 -0.8233  0.0580  0.3081
  115OSM    C2F12024   1.397   3.078   6.580  0.2997 -0.3876 -0.2998
  115OSM    H2F12025   1.502   3.101   6.606 -0.1844 -0.3084  1.6733
  115OSM    H2G12026   1.376   3.010   6.495 -0.9793  0.2820 -0.5396
  115OSM    C3F12027   1.345   2.985   6.693 -0.8435 -0.1910  0.4255
  115OSM    H3F12028   1.402   2.889   6.690 -3.0713 -1.5379 -0.0936
  115OSM    H3G12029   1.237   2.968   6.676 -0.8429 -0.7179  0.9305
  115OSM    C4F12030   1.346   3.048   6.836 -0.1376 -0.5112 -0.4999
  115OSM    H4F12031   1.292   3.144   6.823 -0.3449 -0.6729 -0.8216
  115OSM    H4G12032   1.448   3.070   6.876 -1.1375  1.9275  0.8034
  115OSM    C5F12033   1.277   2.967   6.944 -0.3533 -0.4217  0.5266
  115OSM    H5F12034   1.322   2.865   6.946 -0.9103 -0.7879 -2.4433
  115OSM    H5G12035   1.169   2.959   6.919 -0.9419  0.4649  2.7089
  115OSM    C6F12036   1.283   3.016   7.088  0.7906  0.3693 -0.6770
  115OSM    H6F12037   1.231   3.114   7.090  1.7841  0.8786  1.1588
  115OSM    H6G12038   1.390   3.031   7.113  1.3257 -2.0145 -1.3534
  115OSM    C7F12039   1.237   2.909   7.189  0.6267 -0.1587 -0.1959
  115OSM    H7F12040   1.284   2.811   7.167 -1.8221 -1.3447 -0.3369
  115OSM    H7G12041   1.127   2.899   7.175  0.5019  0.7290  0.0933
  115OSM    C8F12042   1.261   2.948   7.335 -0.2371 -0.5816  0.4049
  115OSM    H8F12043   1.360   2.997   7.333 -0.1937 -0.6434  0.9517
  115OSM    H8G12044   1.273   2.861   7.403  1.9564  0.7524  1.7625
  115OSM    C9F12045   1.176   3.052   7.408  0.1707  0.0021  0.5784
  115OSM    H9F12046   1.158   3.145   7.353 -1.1746 -0.3492  0.3842
  115OSM   C10F12047   1.124   3.050   7.531  0.6105 -0.0892 -0.6280
  115OSM   H10F12048   1.067   3.139   7.560 -3.0639 -2.8428  1.0648
  115OSM   C11F12049   1.147   2.944   7.642 -0.1023 -0.5117  0.8278
  115OSM   H11F12050   1.203   2.858   7.599 -0.7260  0.2010 -1.5137
  115OSM   H11G12051   1.053   2.894   7.675 -0.2767 -0.6593  0.1262
  115OSM   C12F12052   1.214   2.999   7.760 -0.4949  0.1291 -0.0565
  115OSM   H12F12053   1.165   3.093   7.794  0.9107  1.1640 -0.8704
  115OSM   H12G12054   1.319   3.019   7.733 -0.1337 -1.0239  0.4453
  115OSM   C13F12055   1.212   2.906   7.879  0.2130 -0.5474 -0.3488
  115OSM   H13F12056   1.247   2.803   7.855  0.9239 -0.9696  2.3428
  115OSM   H13G12057   1.105   2.882   7.901  0.0923 -1.5125 -1.9158
  115OSM   C14F12058   1.297   2.948   7.996 -0.2552  0.2892  0.1339
  115OSM   H14F12059   1.270   3.041   8.051  2.8393 -0.0255  2.3558
  115OSM   H14G12060   1.399   2.965   7.955 -0.6610  0.2876 -0.9034
  115OSM   C15F12061   1.302   2.839   8.106  0.2270  0.5011 -0.4089
  115OSM   H15F12062   1.365   2.881   8.187 -0.9264  2.1507 -0.3563
  115OSM   H15G12063   1.352   2.752   8.058  0.0846  0.4150 -0.4017
  115OSM   C16F12064   1.165   2.802   8.171  0.5961 -0.4566 -0.2683
  115OSM   H16F12065   1.111   2.752   8.088 -0.2180 -0.7673  0.4497
  115OSM   H16G12066   1.112   2.891   8.211  0.1917 -0.6112 -0.4586
  115OSM   C17F12067   1.192   2.691   8.283  0.3155  0.4025  0.2083
  115OSM   H17F12068   1.092   2.671   8.328  0.1757  0.4290 -0.0858
  115OSM   H17G12069   1.265   2.732   8.356  3.0462 -0.7994 -1.7725
  115OSM   C18F12070   1.245   2.565   8.232 -0.3422 -0.8067  0.2464
  115OSM   H18F12071   1.204   2.491   8.304  3.2033 -1.4216  1.7338
  115OSM   H18G12072   1.355   2.552   8.225 -0.5129 -1.3841 -1.6918
  115OSM   H18H12073   1.204   2.556   8.129 -0.5197  1.2587  0.1146
  116OSM      N12074   0.683   0.712   6.432  0.0117 -0.4165  0.2150
  116OSM    C1512075   0.684   0.859   6.471  0.6429  0.4129 -0.6932
  116OSM   H15A12076   0.717   0.870   6.573  1.5938 -2.0677 -0.7157
  116OSM   H15B12077   0.585   0.903   6.463  1.1686  1.8791  0.4903
  116OSM   H15C12078   0.748   0.925   6.414 -0.4092  1.9159 -0.1939
  116OSM    C1412079   0.828   0.683   6.426 -0.1349  0.3367 -0.3092
  116OSM   H14A12080   0.871   0.673   6.525 -0.0712 -0.7749 -0.4448
  116OSM   H14B12081   0.881   0.753   6.364  2.2285 -2.2845 -1.3562
  116OSM   H14C12082   0.842   0.582   6.391 -0.5443  0.2106 -0.1126
  116OSM    C1312083   0.630   0.635   6.550 -0.8276 -0.1403 -0.6960
  116OSM   H13A12084   0.604   0.532   6.528  1.0598 -1.2641  2.0363
  116OSM   H13B12085   0.551   0.683   6.606  0.9290  0.1779  1.6223
  116OSM   H13C12086   0.707   0.625   6.625 -1.5123 -0.5796 -0.0301
  116OSM    C1212087   0.609   0.678   6.308  0.0139 -0.1103  0.2605
  116OSM   H12A12088   0.637   0.753   6.235 -1.8834  1.5995  1.2349
  116OSM   H12B12089   0.503   0.692   6.324  0.3055  0.8400  1.4493
  116OSM    C1112090   0.635   0.536   6.240  0.2251 -0.5203  0.9661
  116OSM   H11A12091   0.745   0.522   6.226 -0.0999 -1.5698 -0.6582
  116OSM   H11B12092   0.614   0.544   6.131  2.7968  0.1639  0.4850
  116OSM      P12093   0.420   0.409   6.323 -0.4840 -0.0014  0.1785
  116OSM    O1312094   0.351   0.522   6.249  0.2794  0.6020  0.4819
  116OSM    O1412095   0.386   0.272   6.284  0.1914 -0.2462  0.1460
  116OSM    O1112096   0.398   0.421   6.479  0.2602 -0.4816 -0.3983
  116OSM    O1212097   0.580   0.421   6.302  0.0192 -0.2468 -0.6847
  116OSM    C1S12098   0.462   0.329   6.570  0.1854  0.7891 -0.3681
  116OSM    H1S12099   0.566   0.365   6.584  0.3000  0.1272  0.5730
  116OSM    H1T12100   0.489   0.231   6.524 -1.9224 -0.2092  0.4327
  116OSM     NF12101   0.477   0.241   6.805 -0.2271  0.2883 -0.6744
  116OSM    HNF12102   0.452   0.147   6.827  1.4207 -0.2388 -0.9643
  116OSM    C2S12103   0.396   0.319   6.712 -0.0250 -0.7334  0.6230
  116OSM    H2S12104   0.398   0.428   6.735 -2.3734 -0.5082 -0.1318
  116OSM    C3S12105   0.250   0.274   6.706  0.8456 -0.6168 -0.1966
  116OSM    H3S12106   0.236   0.163   6.703 -0.6767 -0.5096  1.9839
  116OSM     O312107   0.173   0.323   6.594 -0.0785 -0.4031  0.1485
  116OSM    HO312108   0.246   0.341   6.535 -0.5070 -0.6141 -0.4469
  116OSM    C4S12109   0.177   0.320   6.828  0.3969  0.6152  0.1288
  116OSM    H4S12110   0.176   0.430   6.834 -0.4009  0.5413  1.4543
  116OSM    C5S12111   0.120   0.246   6.922 -0.1526  0.0090  0.0655
  116OSM    H5S12112   0.140   0.138   6.930  2.1153  0.5344  1.9347
  116OSM    C6S12113   0.049   0.308   7.038 -0.5933 -0.0234  0.6864
  116OSM    H6S12114  -0.060   0.291   7.024 -0.4016 -1.0205  0.3170
  116OSM    H6T12115   0.047   0.418   7.051 -2.1291 -0.0226  0.5166
  116OSM    C7S12116   0.098   0.246   7.173  0.0782  0.7108 -0.5078
  116OSM    H7S12117   0.207   0.264   7.179  0.3576 -1.5597  2.2929
  116OSM    H7T12118   0.084   0.136   7.166 -2.0311  0.8499  1.0407
  116OSM    C8S12119   0.014   0.292   7.291 -0.3794  0.4203 -0.0353
  116OSM    H8S12120   0.012   0.403   7.297 -2.4025  0.6337 -3.4892
  116OSM    H8T12121   0.075   0.273   7.382  0.4259 -0.1277 -0.6804
  116OSM    C9S12122  -0.119   0.220   7.311  0.0635  0.1805 -0.6189
  116OSM    H9S12123  -0.108   0.109   7.309  0.2456  0.1677  0.4812
  116OSM    H9T12124  -0.168   0.233   7.212 -0.9887 -2.3424 -0.4789
  116OSM   C10S12125  -0.198   0.258   7.441 -0.2274 -0.0308  0.1189
  116OSM   H10S12126  -0.294   0.205   7.429  0.4116 -1.2363  0.2637
  116OSM   H10T12127  -0.219   0.366   7.424 -0.3799 -0.3332 -1.6439
  116OSM   C11S12128  -0.128   0.240   7.583 -0.0961 -0.0172  0.9063
  116OSM   H11S12129  -0.049   0.317   7.599  2.1297 -1.7234 -1.4409
  116OSM   H11T12130  -0.068   0.147   7.573 -1.8725 -1.0910  0.0297
  116OSM   C12S12131  -0.221   0.254   7.703 -0.4323 -0.6202  0.5347
  116OSM   H12S12132  -0.295   0.172   7.692 -0.6611 -0.3104 -0.2722
  116OSM   H12T12133  -0.275   0.350   7.686 -0.7114 -0.8152  0.3172
  116OSM   C13S12134  -0.158   0.266   7.846  1.2466  0.2692 -0.2778
  116OSM   H13S12135  -0.104   0.363   7.853 -2.1433  2.5926 -4.1226
  116OSM   H13T12136  -0.090   0.181   7.867 -0.8762 -1.7237 -1.2650
  116OSM   C14S12137  -0.263   0.246   7.958 -0.8050 -0.6855  0.0099
  116OSM   H14S12138  -0.305   0.143   7.952 -0.6439 -0.7176 -0.6322
  116OSM   H14T12139  -0.349   0.311   7.936 -0.7187 -0.6225 -0.1418
  116OSM   C15S12140  -0.201   0.272   8.089 -0.3049  0.2450 -0.0021
  116OSM   H15S12141  -0.150   0.371   8.087 -0.1207  0.2032  1.6865
  116OSM   H15T12142  -0.116   0.200   8.098 -0.9840 -0.4033  1.3794
  116OSM   C16S12143  -0.286   0.253   8.212  0.4836 -0.0531  0.4542
  116OSM   H16S12144  -0.322   0.148   8.213 -0.2707  0.2042  0.0773
  116OSM   H16T12145  -0.372   0.322   8.219  1.2071  0.7737  1.3525
  116OSM   C17S12146  -0.194   0.266   8.341 -0.2499  0.4472  0.0185
  116OSM   H17S12147  -0.146   0.367   8.345 -0.8083  0.6726  1.3078
  116OSM   H17T12148  -0.115   0.188   8.335  0.2502  0.9079  0.5448
  116OSM   C18S12149  -0.285   0.249   8.467 -0.4041  0.6231  0.0633
  116OSM   H18S12150  -0.318   0.145   8.492 -0.0861  0.5435  0.1615
  116OSM   H18T12151  -0.382   0.298   8.449 -1.0959 -1.3466 -1.6554
  116OSM   H18U12152  -0.250   0.308   8.555 -1.9622  0.5820  0.7319
  116OSM    C1F12153   0.596   0.285   6.849 -0.5971  0.0158  1.1822
  116OSM     OF12154   0.637   0.396   6.822 -0.2761  0.2629 -0.2585
  116OSM    C2F12155   0.665   0.203   6.952 -0.1259 -0.5685  0.0855
  116OSM    H2F12156   0.730   0.133   6.895 -1.4058 -0.7517 -1.1840
  116OSM    H2G12157   0.588   0.140   7.001 -0.0270 -0.2629  0.6401
  116OSM    C3F12158   0.737   0.288   7.058 -0.6405 -0.0192 -0.3678
  116OSM    H3F12159   0.787   0.378   7.018 -1.0129 -0.0240 -0.8467
  116OSM    H3G12160   0.812   0.225   7.111  1.0948  1.2039 -1.3644
  116OSM    C4F12161   0.627   0.343   7.161  0.1071  0.2685  0.7248
  116OSM    H4F12162   0.533   0.362   7.105 -0.5716 -0.0690  1.7345
  116OSM    H4G12163   0.664   0.436   7.207  1.7194 -0.3748  0.7544
  116OSM    C5F12164   0.599   0.256   7.280  0.2209  0.0501 -0.3439
  116OSM    H5F12165   0.564   0.156   7.248 -1.5510  0.2173  0.9717
  116OSM    H5G12166   0.518   0.315   7.329 -0.9110 -0.6746 -1.3279
  116OSM    C6F12167   0.705   0.245   7.389 -0.1840 -0.2042 -0.2214
  116OSM    H6F12168   0.784   0.323   7.381  0.3163 -0.7333 -0.5457
  116OSM    H6G12169   0.753   0.145   7.384 -0.8060 -0.4672 -0.9116
  116OSM    C7F12170   0.653   0.270   7.533 -0.2143 -0.5038 -0.0057
  116OSM    H7F12171   0.559   0.211   7.532 -0.9725  0.6748 -0.1576
  116OSM    H7G12172   0.629   0.377   7.554  2.5661  0.1199  0.1681
  116OSM    C8F12173   0.749   0.217   7.640 -0.1678 -0.6503 -0.4288
  116OSM    H8F12174   0.830   0.291   7.656  0.2387 -1.2131  0.1551
  116OSM    H8G12175   0.801   0.126   7.603  0.9325 -0.4099  0.5085
  116OSM    C9F12176   0.670   0.186   7.768 -0.2606  0.4008  0.3170
  116OSM    H9F12177   0.576   0.129   7.765  0.1221 -0.1922 -0.5447
  116OSM   C10F12178   0.721   0.209   7.895  0.2005  0.0962  0.3170
  116OSM   H10F12179   0.658   0.170   7.976  0.4021  0.8212  0.8204
  116OSM   C11F12180   0.858   0.266   7.934  0.0769  0.7028  0.2020
  116OSM   H11F12181   0.847   0.377   7.939 -1.5799  0.5695 -0.1059
  116OSM   H11G12182   0.934   0.238   7.858 -1.4465  1.8363 -1.8021
  116OSM   C12F12183   0.881   0.211   8.079 -0.2372 -0.1524 -0.0784
  116OSM   H12F12184   0.905   0.103   8.077  0.4843 -0.0153  0.5516
  116OSM   H12G12185   0.802   0.240   8.152  0.7817  0.4899  0.8054
  116OSM   C13F12186   1.007   0.274   8.147  0.1196 -0.1510 -0.5553
  116OSM   H13F12187   0.993   0.384   8.153  0.1282 -0.1425 -0.6883
  116OSM   H13G12188   1.098   0.242   8.093 -0.3235  0.9271 -1.9578
  116OSM   C14F12189   1.030   0.216   8.288 -0.2960  0.3258  0.4086
  116OSM   H14F12190   1.061   0.110   8.270  0.4533  0.8309 -1.2912
  116OSM   H14G12191   0.932   0.218   8.340 -0.0222  2.9714  0.8576
  116OSM   C15F12192   1.143   0.290   8.359 -0.4210  0.3415  0.0891
  116OSM   H15F12193   1.104   0.390   8.388  0.5150  1.2717 -1.8107
  116OSM   H15G12194   1.228   0.307   8.290  0.0341  1.3734  0.8882
  116OSM   C16F12195   1.172   0.208   8.484  0.2160 -0.7816 -0.0691
  116OSM   H16F12196   1.169   0.105   8.445  0.2676  0.0055 -2.1884
  116OSM   H16G12197   1.094   0.222   8.562  0.5956 -0.6779  0.2937
  116OSM   C17F12198   1.322   0.225   8.532  0.2493 -0.3122 -0.2650
  116OSM   H17F12199   1.381   0.257   8.443  0.3570  2.5004  0.7764
  116OSM   H17G12200   1.360   0.133   8.583  0.1576 -1.5055 -2.2944
  116OSM   C18F12201   1.326   0.346   8.630  0.1607 -0.4238  0.1664
  116OSM   H18F12202   1.275   0.328   8.728  2.3637 -0.9586  1.2497
  116OSM   H18G12203   1.270   0.428   8.580  1.6333  0.1214 -0.6046
  116OSM   H18H12204   1.434   0.368   8.635  0.2976 -0.9290 -0.6404
  117OSM      N12205   5.445   2.336   5.950 -0.8452  0.5571  0.1204
  117OSM    C1512206   5.394   2.304   5.811 -0.0766 -0.6204 -0.0043
  117OSM   H15A12207   5.454   2.341   5.729  0.4644 -1.1093  0.1693
  117OSM   H15B12208   5.304   2.358   5.786  0.4295  0.3599  0.2640
  117OSM   H15C12209   5.369   2.199   5.816  0.9292 -0.8159  0.8690
  117OSM    C1412210   5.583   2.284   5.960  0.3238 -0.6951  0.8043
  117OSM   H14A12211   5.620   2.278   6.062  1.7658  2.2082  0.5125
  117OSM   H14B12212   5.652   2.357   5.920  1.4176 -1.7425  0.7494
  117OSM   H14C12213   5.595   2.192   5.905  3.0977 -1.3205  2.3253
  117OSM    C1312214   5.446   2.482   5.974 -0.4274 -0.2365  0.0399
  117OSM   H13A12215   5.467   2.502   6.078 -1.9811  0.3500  0.2586
  117OSM   H13B12216   5.355   2.532   5.946 -0.0999 -0.4733 -1.4560
  117OSM   H13C12217   5.513   2.530   5.904 -1.9356  0.3511 -1.0305
  117OSM    C1212218   5.362   2.270   6.060  0.2519  0.5189 -0.1590
  117OSM   H12A12219   5.374   2.163   6.057 -0.7993  0.3958  0.0244
  117OSM   H12B12220   5.257   2.289   6.043 -0.2042 -1.0701  0.8109
  117OSM    C1112221   5.389   2.305   6.210 -0.3936 -0.1586  0.1329
  117OSM   H11A12222   5.314   2.256   6.277  0.9553 -3.1435 -0.4368
  117OSM   H11B12223   5.386   2.415   6.223  0.7264  0.3293 -3.2621
  117OSM      P12224   5.603   2.325   6.358  0.4905  0.0981  0.3776
  117OSM    O1312225   5.686   2.219   6.424  0.2211  0.3693  0.1134
  117OSM    O1412226   5.677   2.434   6.293  0.2585  0.3153  0.3804
  117OSM    O1112227   5.495   2.385   6.460 -0.5059  0.3604 -0.1060
  117OSM    O1212228   5.517   2.267   6.247  0.3937 -0.2928  0.2060
  117OSM    C1S12229   5.420   2.296   6.537  0.2599  0.4351 -0.2763
  117OSM    H1S12230   5.458   2.192   6.544 -1.1488 -0.0697  0.2439
  117OSM    H1T12231   5.313   2.294   6.506 -0.3842 -1.0910  1.9375
  117OSM     NF12232   5.354   2.252   6.771  0.3076  0.0198  0.5296
  117OSM    HNF12233   5.257   2.268   6.784  0.0953 -1.2483  0.5525
  117OSM    C2S12234   5.431   2.342   6.691 -0.6545 -0.3198  0.0290
  117OSM    H2S12235   5.536   2.334   6.724 -0.6485 -1.1194 -0.1839
  117OSM    C3S12236   5.395   2.496   6.708  0.2648  0.7732 -0.1757
  117OSM    H3S12237   5.295   2.523   6.668  0.1651  0.4584 -0.1377
  117OSM     O312238   5.482   2.574   6.635 -0.1071 -0.2311 -0.4889
  117OSM    HO312239   5.519   2.511   6.573 -1.4392 -1.7008  0.1942
  117OSM    C4S12240   5.409   2.526   6.853 -0.0235  0.6109 -0.3600
  117OSM    H4S12241   5.508   2.560   6.887  0.7804 -3.1397  1.3077
  117OSM    C5S12242   5.309   2.532   6.938 -0.4116  0.5142  0.1301
  117OSM    H5S12243   5.209   2.489   6.917  0.2195 -1.5775  1.2799
  117OSM    C6S12244   5.333   2.567   7.083  0.1597 -0.1731  0.1066
  117OSM    H6S12245   5.252   2.627   7.129 -0.1850 -1.4948  1.2339
  117OSM    H6T12246   5.431   2.618   7.092  0.8278 -1.6360  1.2755
  117OSM    C7S12247   5.332   2.446   7.177 -0.1073  0.6262  0.3050
  117OSM    H7S12248   5.429   2.397   7.154 -0.6672 -0.0120 -0.7295
  117OSM    H7T12249   5.254   2.377   7.138 -1.3042  2.0044  0.2106
  117OSM    C8S12250   5.329   2.466   7.326  0.1762  0.4458 -0.2153
  117OSM    H8S12251   5.246   2.536   7.346 -0.0301  0.3510 -0.7540
  117OSM    H8T12252   5.426   2.514   7.354 -0.9317  2.7374 -0.2082
  117OSM    C9S12253   5.315   2.336   7.398  0.2254 -0.3229  0.1030
  117OSM    H9S12254   5.392   2.273   7.349  1.1118  0.5450  0.3662
  117OSM    H9T12255   5.215   2.292   7.379  0.2073 -0.1523 -0.1911
  117OSM   C10S12256   5.326   2.332   7.554 -0.8194 -0.2489 -0.4607
  117OSM   H10S12257   5.302   2.233   7.598  0.4612 -0.8302 -1.0430
  117OSM   H10T12258   5.240   2.393   7.589 -3.7350 -3.7406 -1.2198
  117OSM   C11S12259   5.467   2.373   7.603 -0.0083  0.1559  0.2535
  117OSM   H11S12260   5.491   2.477   7.571 -0.5496  0.6427  1.4022
  117OSM   H11T12261   5.542   2.303   7.559  0.7703  0.6333  0.7877
  117OSM   C12S12262   5.485   2.376   7.750 -0.2781  0.1340  0.6589
  117OSM   H12S12263   5.595   2.382   7.765 -0.3805  1.4542  0.9777
  117OSM   H12T12264   5.454   2.290   7.812 -0.1791  0.8282  1.6885
  117OSM   C13S12265   5.448   2.508   7.809 -0.3648 -0.2547 -0.4954
  117OSM   H13S12266   5.341   2.522   7.832 -0.1670  0.9662 -0.3233
  117OSM   H13T12267   5.475   2.587   7.737  2.4744  0.7988  1.6282
  117OSM   C14S12268   5.520   2.526   7.945  0.2055  0.5413 -0.1590
  117OSM   H14S12269   5.629   2.531   7.928 -0.1057  0.8356 -2.2195
  117OSM   H14T12270   5.487   2.442   8.010  1.1433  0.5598  0.3524
  117OSM   C15S12271   5.486   2.656   8.007 -0.2422  0.4839 -0.2877
  117OSM   H15S12272   5.379   2.673   8.031 -0.2931  0.7513 -0.6898
  117OSM   H15T12273   5.507   2.733   7.929  0.6119  0.7262  0.1778
  117OSM   C16S12274   5.585   2.684   8.126 -0.4598 -0.3998  0.5214
  117OSM   H16S12275   5.683   2.648   8.089  0.0005 -1.6314  2.8392
  117OSM   H16T12276   5.573   2.620   8.216  1.7444 -2.3571 -0.5311
  117OSM   C17S12277   5.607   2.836   8.160 -0.6467  1.0478 -0.5071
  117OSM   H17S12278   5.523   2.890   8.208  0.6081  1.2983  1.4659
  117OSM   H17T12279   5.622   2.884   8.061  0.5647  0.1659 -0.7607
  117OSM   C18S12280   5.722   2.842   8.260  0.4327  0.4702 -0.1262
  117OSM   H18S12281   5.817   2.830   8.204  1.6081  0.4643  1.8569
  117OSM   H18T12282   5.721   2.760   8.334  2.8982 -0.3010 -0.9039
  117OSM   H18U12283   5.736   2.938   8.314 -4.4463  0.3669  1.5332
  117OSM    C1F12284   5.405   2.129   6.800  1.0641 -0.5426 -0.1073
  117OSM     OF12285   5.523   2.103   6.781  0.2816  0.3594  0.6019
  117OSM    C2F12286   5.325   2.040   6.891 -0.2570 -0.4338  0.5023
  117OSM    H2F12287   5.321   1.938   6.849 -0.3878 -0.1750 -0.1168
  117OSM    H2G12288   5.223   2.084   6.896 -0.9299 -1.9698  0.3698
  117OSM    C3F12289   5.392   2.030   7.029  0.1680  0.3593 -0.0117
  117OSM    H3F12290   5.401   2.137   7.060 -0.2887  0.4769 -0.2825
  117OSM    H3G12291   5.494   1.988   7.013 -0.2561  0.2340 -2.5347
  117OSM    C4F12292   5.308   1.953   7.132 -0.0400 -0.9190  0.3679
  117OSM    H4F12293   5.370   1.930   7.222  0.8433  1.7747  0.4948
  117OSM    H4G12294   5.279   1.859   7.081  0.1477 -0.3143 -0.8634
  117OSM    C5F12295   5.187   2.041   7.177 -0.0411 -0.5154  0.1574
  117OSM    H5F12296   5.126   2.057   7.086  1.2849 -0.2866 -0.6935
  117OSM    H5G12297   5.216   2.146   7.198  0.9102 -0.5940 -0.7259
  117OSM    C6F12298   5.107   1.992   7.298 -0.6254 -0.2107  0.8812
  117OSM    H6F12299   5.072   1.889   7.279  0.4180 -0.3654 -0.2794
  117OSM    H6G12300   5.016   2.051   7.321  0.3433  1.4801  0.4513
  117OSM    C7F12301   5.181   1.997   7.437 -0.2886 -0.9642  0.0160
  117OSM    H7F12302   5.191   2.104   7.464 -0.9840 -1.1671  1.1046
  117OSM    H7G12303   5.283   1.955   7.429  0.0371 -0.0588 -0.5532
  117OSM    C8F12304   5.105   1.933   7.553 -0.1428  0.6564 -0.4809
  117OSM    H8F12305   5.089   1.824   7.533 -1.3650  0.4860  1.3218
  117OSM    H8G12306   5.000   1.966   7.567  0.1296  1.3112  0.0017
  117OSM    C9F12307   5.203   1.933   7.668 -0.0915  0.1207 -0.8072
  117OSM    H9F12308   5.294   1.873   7.658  1.4935  1.8702  2.3207
  117OSM   C10F12309   5.188   1.994   7.791  0.1040  0.2440 -0.0390
  117OSM   H10F12310   5.263   1.979   7.869  0.5805  0.1250 -0.5141
  117OSM   C11F12311   5.067   2.075   7.823 -0.5296  0.3664 -0.8546
  117OSM   H11F12312   5.008   2.029   7.906 -0.2419  0.4105 -0.6245
  117OSM   H11G12313   5.006   2.084   7.730 -1.4330 -0.5259 -0.3632
  117OSM   C12F12314   5.104   2.223   7.861 -0.4198 -0.8499  0.0337
  117OSM   H12F12315   5.005   2.272   7.850 -0.1089 -0.7768 -2.7921
  117OSM   H12G12316   5.175   2.286   7.803 -0.5051  0.2528  1.1220
  117OSM   C13F12317   5.156   2.241   8.004  0.0098  0.7499 -0.1508
  117OSM   H13F12318   5.258   2.196   8.008  0.6695  2.2937  0.9253
  117OSM   H13G12319   5.107   2.179   8.082  0.6944  0.2898 -0.0809
  117OSM   C14F12320   5.143   2.390   8.047 -0.2659  0.1788  0.3733
  117OSM   H14F12321   5.041   2.429   8.025  0.1331  2.0924  1.7987
  117OSM   H14G12322   5.215   2.446   7.983 -0.3913 -0.2207 -0.1222
  117OSM   C15F12323   5.166   2.429   8.196  0.0648  0.1328  0.0319
  117OSM   H15F12324   5.271   2.397   8.211  0.8362  2.2346 -0.8388
  117OSM   H15G12325   5.092   2.378   8.262 -0.4554 -0.4911 -1.0165
  117OSM   C16F12326   5.158   2.579   8.223  0.1088  0.3676  0.3979
  117OSM   H16F12327   5.054   2.616   8.213  0.0126  0.2138  0.8115
  117OSM   H16G12328   5.216   2.639   8.150  0.7926  1.6267  1.9418
  117OSM   C17F12329   5.221   2.612   8.355  0.1116 -0.2716 -0.0086
  117OSM   H17F12330   5.193   2.543   8.437  0.8677  1.1090  1.4370
  117OSM   H17G12331   5.331   2.599   8.341  0.2411  0.8392 -0.0531
  117OSM   C18F12332   5.185   2.756   8.398  0.1452 -0.4204 -0.5173
  117OSM   H18F12333   5.244   2.828   8.336  1.3758  0.3568  1.5136
  117OSM   H18G12334   5.216   2.769   8.504  3.2673 -0.6304 -1.3481
  117OSM   H18H12335   5.075   2.766   8.389 -0.0015 -1.5061  0.0980
  118OSM      N12336   1.912   5.007   6.199  0.1614  0.1397 -0.2065
  118OSM    C1512337   1.924   5.155   6.188  0.5626 -0.1316 -0.1592
  118OSM   H15A12338   1.831   5.209   6.176  1.0726  0.5558 -1.1698
  118OSM   H15B12339   1.982   5.187   6.102 -2.7957  1.8492 -1.8448
  118OSM   H15C12340   1.968   5.207   6.272  1.6970  1.5855 -1.7684
  118OSM    C1412341   1.831   4.958   6.083 -0.2163 -0.2095  0.0756
  118OSM   H14A12342   1.738   5.012   6.096  0.1063  0.3195  0.2108
  118OSM   H14B12343   1.820   4.851   6.088  1.2016 -0.2844  2.2618
  118OSM   H14C12344   1.880   4.990   5.993 -1.1492 -1.1514 -0.7853
  118OSM    C1312345   2.046   4.949   6.194  0.0428 -0.2431  0.1367
  118OSM   H13A12346   2.089   4.952   6.294 -0.3763 -2.7762  0.4164
  118OSM   H13B12347   2.115   5.008   6.134 -0.9668  1.0909  0.2553
  118OSM   H13C12348   2.054   4.848   6.157 -2.6679  0.3733 -2.2095
  118OSM    C1212349   1.837   4.976   6.330 -0.1143  0.2922  0.6886
  118OSM   H12A12350   1.911   4.970   6.409  3.2770  0.8887 -2.3377
  118OSM   H12B12351   1.803   4.873   6.325  1.5924 -0.4841  3.6313
  118OSM    C1112352   1.708   5.048   6.370  0.2771 -0.4226  0.0505
  118OSM   H11A12353   1.716   5.158   6.352 -0.0174 -0.3440  0.3928
  118OSM   H11B12354   1.682   5.029   6.476  1.0840 -0.1784  0.2960
  118OSM      P12355   1.521   4.872   6.287  0.1297  0.0212 -0.2774
  118OSM    O1312356   1.402   4.883   6.198  0.1996  0.2269 -0.3323
  118OSM    O1412357   1.615   4.754   6.262  0.4456  0.1258  0.7667
  118OSM    O1112358   1.472   4.866   6.436 -0.1691 -0.4927 -0.7405
  118OSM    O1212359   1.604   5.008   6.279  0.9722 -0.6199  0.1435
  118OSM    C1S12360   1.538   4.782   6.533  0.2549 -0.1136 -0.4282
  118OSM    H1S12361   1.633   4.741   6.491 -0.8028 -1.3790 -1.6354
  118OSM    H1T12362   1.470   4.695   6.541  2.2940 -1.8927 -1.7683
  118OSM     NF12363   1.631   4.785   6.760  0.0518 -0.2798 -0.2155
  118OSM    HNF12364   1.581   4.743   6.835 -0.1969  1.5403  0.6361
  118OSM    C2S12365   1.549   4.860   6.669  0.3586 -0.7873 -0.2164
  118OSM    H2S12366   1.600   4.958   6.667 -0.9186 -0.1030  0.0292
  118OSM    C3S12367   1.401   4.891   6.723 -0.1038 -0.0136  0.5790
  118OSM    H3S12368   1.346   4.795   6.736  1.5856 -1.0701  0.1451
  118OSM     O312369   1.329   4.978   6.632  0.3525 -0.1536  0.0913
  118OSM    HO312370   1.370   4.946   6.552 -0.1302  0.8406 -0.5716
  118OSM    C4S12371   1.412   4.952   6.857 -0.8262 -0.3194 -0.2527
  118OSM    H4S12372   1.426   4.876   6.935 -1.5960  1.1510  1.3671
  118OSM    C5S12373   1.404   5.080   6.892  0.0316  0.4890 -0.7216
  118OSM    H5S12374   1.386   5.158   6.816 -0.8997  0.9569 -0.0307
  118OSM    C6S12375   1.419   5.133   7.032 -0.2234 -0.0384 -0.0404
  118OSM    H6S12376   1.341   5.203   7.068  0.3351 -0.0043  1.1157
  118OSM    H6T12377   1.513   5.189   7.015 -0.7054  0.7097 -0.2643
  118OSM    C7S12378   1.447   5.023   7.147  0.1240 -0.1815  0.2872
  118OSM    H7S12379   1.551   4.986   7.136  0.7633  1.3616  0.9383
  118OSM    H7T12380   1.378   4.938   7.131 -1.1923  1.0505 -0.6656
  118OSM    C8S12381   1.426   5.094   7.281  0.3760 -0.7714 -0.4568
  118OSM    H8S12382   1.318   5.116   7.292  0.6677 -0.3422  1.9366
  118OSM    H8T12383   1.468   5.197   7.272  1.0967 -0.8018  2.0219
  118OSM    C9S12384   1.482   5.017   7.407 -0.2087  0.4322  0.8782
  118OSM    H9S12385   1.588   4.995   7.381 -0.4062  0.9656 -0.4416
  118OSM    H9T12386   1.432   4.921   7.432 -1.4832  1.5865  2.8420
  118OSM   C10S12387   1.485   5.106   7.535  0.0015  0.1419 -0.0835
  118OSM   H10S12388   1.384   5.135   7.572  0.2974 -0.4261  1.1912
  118OSM   H10T12389   1.541   5.199   7.512 -1.7667  1.2534 -0.0038
  118OSM   C11S12390   1.549   5.031   7.652  0.1355 -0.1358  0.4565
  118OSM   H11S12391   1.658   5.025   7.635 -0.1225 -0.8510 -1.0274
  118OSM   H11T12392   1.503   4.929   7.652  0.4288 -0.2666  0.3686
  118OSM   C12S12393   1.513   5.099   7.787 -0.8259  1.1466  0.9641
  118OSM   H12S12394   1.403   5.092   7.802 -1.0595 -0.7330 -1.1758
  118OSM   H12T12395   1.544   5.204   7.772 -1.0374  0.8722 -1.7391
  118OSM   C13S12396   1.597   5.041   7.901 -0.6407 -0.1676  0.0591
  118OSM   H13S12397   1.706   5.050   7.881 -1.4148  4.5793 -2.9004
  118OSM   H13T12398   1.576   4.933   7.915 -2.6799  0.1226 -0.6260
  118OSM   C14S12399   1.564   5.120   8.031 -0.2679  0.1538  0.0407
  118OSM   H14S12400   1.455   5.125   8.051 -0.4363  0.1282 -0.8601
  118OSM   H14T12401   1.603   5.223   8.016 -1.2420 -0.0273 -4.4701
  118OSM   C15S12402   1.640   5.052   8.143  0.1599 -0.0408 -0.4196
  118OSM   H15S12403   1.747   5.072   8.123  0.2859 -1.1648 -0.8815
  118OSM   H15T12404   1.622   4.943   8.141  0.3254 -0.0736 -0.1730
  118OSM   C16S12405   1.607   5.112   8.288  1.0783 -0.0066 -0.1644
  118OSM   H16S12406   1.619   5.222   8.287 -0.7825  0.3046  3.0171
  118OSM   H16T12407   1.677   5.079   8.367 -0.5289 -1.1236  0.8321
  118OSM   C17S12408   1.466   5.077   8.340  0.7002  0.3460  0.0573
  118OSM   H17S12409   1.458   4.967   8.353  1.1086  0.2622 -0.3879
  118OSM   H17T12410   1.390   5.114   8.267  0.9853  2.5684  0.8337
  118OSM   C18S12411   1.442   5.155   8.467 -0.1123 -0.0381 -0.4131
  118OSM   H18S12412   1.485   5.096   8.551 -0.5404  0.8702  0.4368
  118OSM   H18T12413   1.337   5.179   8.490  0.4206  0.7179  1.2497
  118OSM   H18U12414   1.492   5.254   8.465 -1.3903  0.6129  0.0773
  118OSM    C1F12415   1.759   4.750   6.746 -0.4623 -0.1721 -0.8096
  118OSM     OF12416   1.830   4.797   6.657 -0.4819 -0.1004 -0.9026
  118OSM    C2F12417   1.813   4.648   6.845  0.1455 -0.4864 -0.0101
  118OSM    H2F12418   1.736   4.576   6.881 -0.1484 -0.8728 -1.3951
  118OSM    H2G12419   1.844   4.705   6.935 -0.1084 -0.7156  0.2235
  118OSM    C3F12420   1.949   4.577   6.804  0.5380  0.5411 -0.1101
  118OSM    H3F12421   2.031   4.651   6.806  1.6590 -0.6565 -0.8489
  118OSM    H3G12422   1.927   4.531   6.705  0.8169  1.1396 -0.4496
  118OSM    C4F12423   1.970   4.462   6.902 -0.8471 -0.5691 -0.3815
  118OSM    H4F12424   2.031   4.373   6.874 -1.0306 -0.6712 -0.4550
  118OSM    H4G12425   1.869   4.423   6.927 -2.0178  2.9319  0.6738
  118OSM    C5F12426   2.016   4.510   7.041 -0.1346  0.5850  0.3781
  118OSM    H5F12427   1.939   4.549   7.111 -0.4002  0.3208  0.2342
  118OSM    H5G12428   2.096   4.584   7.023  0.7021 -0.8894 -2.2462
  118OSM    C6F12429   2.087   4.406   7.125 -0.2602 -0.3003  0.5008
  118OSM    H6F12430   2.109   4.438   7.229  1.2439  0.1307  0.0705
  118OSM    H6G12431   2.183   4.391   7.072 -0.1087 -3.5868  1.5700
  118OSM    C7F12432   2.018   4.269   7.131  0.6481  0.4323  0.5550
  118OSM    H7F12433   2.044   4.213   7.039  0.8375 -0.8869  1.3892
  118OSM    H7G12434   1.907   4.276   7.139  0.4607  0.1940 -1.5513
  118OSM    C8F12435   2.066   4.175   7.242 -0.0199 -0.0550  0.1935
  118OSM    H8F12436   2.085   4.219   7.343  0.4217 -0.1245  0.1435
  118OSM    H8G12437   2.162   4.126   7.213 -1.5729 -2.2075 -1.5238
  118OSM    C9F12438   1.961   4.074   7.256  0.6354 -0.2005 -0.2987
  118OSM    H9F12439   1.930   4.030   7.160  0.6429 -0.6896 -0.0787
  118OSM   C10F12440   1.899   4.030   7.367  0.1109 -0.3254  0.3599
  118OSM   H10F12441   1.819   3.954   7.360 -0.2938  0.1939 -0.7125
  118OSM   C11F12442   1.924   4.069   7.512 -0.1504 -0.2407 -0.7580
  118OSM   H11F12443   2.019   4.127   7.508 -0.8087  0.7600 -2.5167
  118OSM   H11G12444   1.938   3.986   7.585 -1.3896  1.5648  1.6256
  118OSM   C12F12445   1.823   4.165   7.571 -0.8675  0.3831 -0.1427
  118OSM   H12F12446   1.739   4.099   7.602 -0.4438  0.4247  1.1244
  118OSM   H12G12447   1.778   4.224   7.488  2.2107 -0.9459 -2.8686
  118OSM   C13F12448   1.866   4.247   7.693  0.7568 -0.6283  0.4387
  118OSM   H13F12449   1.794   4.329   7.713 -1.0014 -2.6789  2.9319
  118OSM   H13G12450   1.963   4.296   7.671 -1.3019  3.3360 -0.3155
  118OSM   C14F12451   1.856   4.169   7.825  0.0563  0.2444  0.1759
  118OSM   H14F12452   1.835   4.063   7.801 -0.0068  0.8978 -2.7578
  118OSM   H14G12453   1.770   4.207   7.884 -0.6934 -1.1168 -0.0286
  118OSM   C15F12454   1.984   4.171   7.911 -0.2243 -0.1490  0.3308
  118OSM   H15F12455   2.002   4.271   7.955 -1.5382  1.0986 -1.8735
  118OSM   H15G12456   2.075   4.134   7.859  0.7195  0.1157  1.7782
  118OSM   C16F12457   1.947   4.071   8.028  0.2443  0.4603 -0.8205
  118OSM   H16F12458   1.914   3.970   7.994 -1.5833 -0.1625  2.5545
  118OSM   H16G12459   1.864   4.114   8.088  0.7671 -0.9993  1.0284
  118OSM   C17F12460   2.072   4.041   8.115  0.6628 -0.0408 -0.0236
  118OSM   H17F12461   2.144   4.008   8.036  0.8272  0.8346 -0.2429
  118OSM   H17G12462   2.055   3.970   8.199  0.6915  3.0931  2.7193
  118OSM   C18F12463   2.134   4.162   8.189 -0.4507  0.2085 -0.8170
  118OSM   H18F12464   2.179   4.233   8.117  1.4053 -2.0152 -1.9256
  118OSM   H18G12465   2.221   4.112   8.236 -1.5188 -2.6507 -1.7787
  118OSM   H18H12466   2.068   4.195   8.272  1.2062  1.4460  0.0206
  119OSM      N12467   2.660   3.491   5.901  1.1426  0.7581 -0.3788
  119OSM    C1512468   2.625   3.349   5.869  0.4713  0.1677  0.1784
  119OSM   H15A12469   2.697   3.275   5.901 -1.0893 -1.6619 -0.4897
  119OSM   H15B12470   2.618   3.337   5.761 -1.7616 -1.5533  0.4700
  119OSM   H15C12471   2.531   3.325   5.915 -0.6664  2.3086 -0.9714
  119OSM    C1412472   2.539   3.574   5.869 -0.9321  0.1941 -1.0192
  119OSM   H14A12473   2.549   3.682   5.877 -0.7019  0.1108 -0.1509
  119OSM   H14B12474   2.468   3.561   5.950  2.8819  1.0997  2.6723
  119OSM   H14C12475   2.494   3.551   5.774 -0.6753  0.0942 -1.1160
  119OSM    C1312476   2.687   3.477   6.047 -0.2929  0.0488 -0.3679
  119OSM   H13A12477   2.599   3.444   6.100 -1.2057  1.8481 -0.7248
  119OSM   H13B12478   2.721   3.569   6.091  1.4790 -0.3472 -0.8833
  119OSM   H13C12479   2.756   3.394   6.048  0.7704  0.8165 -3.3837
  119OSM    C1212480   2.780   3.541   5.820 -0.2829 -0.3262  0.3300
  119OSM   H12A12481   2.830   3.622   5.871  2.4724  0.3426 -3.1982
  119OSM   H12B12482   2.754   3.573   5.720  0.8382  0.9193  0.4251
  119OSM    C1112483   2.894   3.433   5.796 -0.5807 -0.0492  0.3163
  119OSM   H11A12484   2.980   3.479   5.743 -2.4445  0.9718 -1.9450
  119OSM   H11B12485   2.862   3.358   5.720 -0.2405  1.1459 -1.0311
  119OSM      P12486   3.045   3.411   6.013 -0.1965 -0.1086 -0.0175
  119OSM    O1312487   3.045   3.313   6.122 -0.1841  1.2761 -0.5109
  119OSM    O1412488   3.176   3.430   5.949  0.4258 -0.0879  0.2736
  119OSM    O1112489   2.991   3.553   6.067 -0.3643  0.3410 -0.1541
  119OSM    O1212490   2.933   3.363   5.914 -0.1077 -0.1843  0.2299
  119OSM    C1S12491   2.998   3.564   6.210 -1.4152 -0.4703 -0.5472
  119OSM    H1S12492   3.100   3.539   6.249 -1.9912  0.5285  1.7236
  119OSM    H1T12493   2.924   3.494   6.254 -0.2473 -0.1795  1.9689
  119OSM     NF12494   2.967   3.724   6.406 -0.3180 -0.2862  0.1358
  119OSM    HNF12495   2.879   3.722   6.451 -0.5013  0.7188 -0.1616
  119OSM    C2S12496   2.969   3.711   6.260  0.2224  0.3990 -0.7130
  119OSM    H2S12497   3.043   3.776   6.208 -1.5193  3.0039 -0.0161
  119OSM    C3S12498   2.833   3.759   6.197  0.1199 -0.1029  0.6454
  119OSM    H3S12499   2.752   3.687   6.221  0.0983 -0.3275 -0.0852
  119OSM     O312500   2.830   3.763   6.056 -1.0828  0.2175  0.0697
  119OSM    HO312501   2.890   3.698   6.019 -1.4706  0.6157 -1.2785
  119OSM    C4S12502   2.791   3.893   6.253 -0.4652  0.1225  0.2673
  119OSM    H4S12503   2.871   3.968   6.242 -2.7741  2.4059 -1.3174
  119OSM    C5S12504   2.680   3.934   6.313  0.5895 -0.1893 -0.5584
  119OSM    H5S12505   2.603   3.857   6.331  0.5411  0.5626  2.7290
  119OSM    C6S12506   2.640   4.066   6.370 -0.6925 -0.6415  0.0472
  119OSM    H6S12507   2.568   4.038   6.450  0.2725 -2.0989  0.4283
  119OSM    H6T12508   2.587   4.113   6.284 -0.7983 -2.2684 -0.8134
  119OSM    C7S12509   2.747   4.163   6.429  0.0287  0.1377  0.0670
  119OSM    H7S12510   2.805   4.194   6.339  0.4715 -1.8489 -0.3690
  119OSM    H7T12511   2.819   4.100   6.485  2.7594  2.0716 -1.1570
  119OSM    C8S12512   2.690   4.281   6.508 -0.1363 -0.6264 -0.6135
  119OSM    H8S12513   2.628   4.358   6.459  1.5667  0.3624 -1.2515
  119OSM    H8T12514   2.779   4.333   6.549  0.4329 -1.5587 -0.6428
  119OSM    C9S12515   2.608   4.229   6.633 -0.0724  0.7392 -0.3279
  119OSM    H9S12516   2.682   4.167   6.688  0.5255  1.9724  0.2720
  119OSM    H9T12517   2.513   4.183   6.597  0.7905  0.9857 -2.9652
  119OSM   C10S12518   2.547   4.339   6.723 -0.4910  0.1937  0.3708
  119OSM   H10S12519   2.461   4.392   6.675  0.0778  0.0876 -0.7831
  119OSM   H10T12520   2.635   4.403   6.743 -1.1475  1.5558 -0.9572
  119OSM   C11S12521   2.500   4.266   6.855 -1.0004  0.2087  0.6140
  119OSM   H11S12522   2.584   4.195   6.871  1.4863  3.2980  1.8693
  119OSM   H11T12523   2.405   4.211   6.835 -0.4816 -0.1417 -0.9371
  119OSM   C12S12524   2.480   4.356   6.977 -0.2008  0.1725  0.4119
  119OSM   H12S12525   2.397   4.429   6.961 -1.2599 -0.4394  2.8809
  119OSM   H12T12526   2.574   4.412   6.993  1.6515 -2.8585  0.5725
  119OSM   C13S12527   2.438   4.288   7.107 -0.2233  0.1915  0.0798
  119OSM   H13S12528   2.515   4.213   7.136 -1.2864 -2.0229 -2.6239
  119OSM   H13T12529   2.340   4.239   7.093 -0.2233 -0.2065  1.4891
  119OSM   C14S12530   2.424   4.382   7.219  0.5116 -0.3698  0.0181
  119OSM   H14S12531   2.346   4.457   7.194  0.4069  0.4241  2.5464
  119OSM   H14T12532   2.518   4.439   7.231 -0.3991  1.3512 -0.7581
  119OSM   C15S12533   2.394   4.310   7.353  0.6052 -0.0706  0.0578
  119OSM   H15S12534   2.486   4.268   7.400  1.4416  0.4675 -1.0519
  119OSM   H15T12535   2.326   4.225   7.331 -1.4027  1.2963  0.8883
  119OSM   C16S12536   2.333   4.413   7.449  0.1293  0.6371  0.4970
  119OSM   H16S12537   2.262   4.470   7.385  0.8629  0.2193 -0.6990
  119OSM   H16T12538   2.407   4.481   7.497  1.7959 -0.0705 -1.0022
  119OSM   C17S12539   2.273   4.330   7.566 -0.4112 -0.4046  0.2403
  119OSM   H17S12540   2.355   4.273   7.613  3.0277  4.0179 -0.0238
  119OSM   H17T12541   2.194   4.265   7.521 -1.3243 -0.1102  1.3938
  119OSM   C18S12542   2.207   4.421   7.664 -0.9642 -0.1250 -0.1142
  119OSM   H18S12543   2.289   4.486   7.703  0.9244 -2.5372  0.0671
  119OSM   H18T12544   2.163   4.381   7.758 -1.0188  0.0823 -0.0502
  119OSM   H18U12545   2.137   4.492   7.615 -0.6107 -0.7764 -1.6009
  119OSM    C1F12546   3.068   3.715   6.493 -0.5842 -1.1202  0.0661
  119OSM     OF12547   3.180   3.667   6.464  0.0048 -0.4323 -0.4897
  119OSM    C2F12548   3.030   3.759   6.632  0.2108 -0.1834  0.4170
  119OSM    H2F12549   3.084   3.690   6.700  1.2941  0.7475  0.5042
  119OSM    H2G12550   2.921   3.740   6.641  0.2603 -0.0136  1.4831
  119OSM    C3F12551   3.073   3.901   6.665 -0.1030  0.3472 -0.0012
  119OSM    H3F12552   3.038   3.982   6.598 -1.2038 -0.8271 -0.8672
  119OSM    H3G12553   3.184   3.899   6.671 -0.0977 -1.5027 -0.5091
  119OSM    C4F12554   3.023   3.942   6.806  0.2726  0.0490  0.7454
  119OSM    H4F12555   3.090   3.906   6.887  2.0575 -0.4842 -0.9250
  119OSM    H4G12556   2.926   3.893   6.830  0.2894 -1.1622 -1.4880
  119OSM    C5F12557   3.001   4.096   6.815 -0.0572 -0.1046  1.1127
  119OSM    H5F12558   2.915   4.112   6.748 -1.0015  1.3472  2.6220
  119OSM    H5G12559   3.092   4.140   6.768 -0.8753 -0.9842 -1.3599
  119OSM    C6F12560   2.964   4.143   6.959 -0.4004 -0.3372  0.2025
  119OSM    H6F12561   2.907   4.238   6.945 -1.0307 -1.1378 -2.9474
  119OSM    H6G12562   3.062   4.164   7.007  0.3437 -0.4014 -1.2470
  119OSM    C7F12563   2.875   4.053   7.038 -0.5024 -0.1382  0.3264
  119OSM    H7F12564   2.930   3.963   7.074  3.7584  1.9444 -0.6820
  119OSM    H7G12565   2.800   4.015   6.965 -0.4796  0.7953 -0.1960
  119OSM    C8F12566   2.814   4.122   7.163  0.4948  0.2168  0.2023
  119OSM    H8F12567   2.769   4.217   7.128 -0.1562 -0.1367  0.0796
  119OSM    H8G12568   2.899   4.153   7.228  0.1628  0.5353  0.4821
  119OSM    C9F12569   2.711   4.026   7.224 -0.0746  0.3905 -0.0230
  119OSM    H9F12570   2.632   3.996   7.153  0.1623  0.1528 -0.1887
  119OSM   C10F12571   2.718   3.977   7.352  0.7487  0.1567 -0.1446
  119OSM   H10F12572   2.643   3.904   7.388  2.0743 -1.5714 -0.8041
  119OSM   C11F12573   2.822   3.994   7.457  0.8323 -0.8324 -0.7239
  119OSM   H11F12574   2.901   4.068   7.431 -0.7266  0.2704 -2.3716
  119OSM   H11G12575   2.872   3.901   7.493  1.0379  0.0702  1.3960
  119OSM   C12F12576   2.750   4.037   7.584 -0.1944  0.0094  0.2586
  119OSM   H12F12577   2.689   3.952   7.619 -0.1148  1.2989  3.6986
  119OSM   H12G12578   2.694   4.130   7.559 -3.0839 -1.4327  1.1718
  119OSM   C13F12579   2.850   4.081   7.694  0.1386  0.3119 -0.5098
  119OSM   H13F12580   2.902   4.176   7.667  0.6846  0.5216  1.2395
  119OSM   H13G12581   2.924   4.000   7.708  1.8794  1.9543 -0.0079
  119OSM   C14F12582   2.789   4.098   7.834 -0.1738  0.3646 -0.1041
  119OSM   H14F12583   2.777   4.003   7.889 -0.2556  0.2387 -0.3398
  119OSM   H14G12584   2.696   4.159   7.835 -0.2848  0.2060  3.1309
  119OSM   C15F12585   2.863   4.189   7.934  0.3966  0.5409 -0.7767
  119OSM   H15F12586   2.893   4.291   7.901 -0.8438  1.7136  1.5325
  119OSM   H15G12587   2.958   4.145   7.972  0.7708  1.7472 -0.2772
  119OSM   C16F12588   2.783   4.202   8.064 -0.5247  0.8990 -0.1635
  119OSM   H16F12589   2.735   4.113   8.109  0.8970 -0.3987 -1.1171
  119OSM   H16G12590   2.693   4.261   8.038 -0.9727 -1.0350 -3.2549
  119OSM   C17F12591   2.862   4.272   8.185 -0.0639  0.5621  0.5760
  119OSM   H17F12592   2.964   4.230   8.195 -0.9250 -2.1347 -1.0650
  119OSM   H17G12593   2.804   4.232   8.272  1.0928 -0.1229  1.0349
  119OSM   C18F12594   2.854   4.421   8.176  0.1691 -0.3297  0.3508
  119OSM   H18F12595   2.888   4.465   8.080  0.8263  0.7548  1.0589
  119OSM   H18G12596   2.907   4.469   8.262 -0.1807  0.0964  0.3342
  119OSM   H18H12597   2.749   4.455   8.183  0.4429  0.5781  0.2221
  120OSM      N12598   0.332   1.260   6.374 -0.5106 -0.5297  0.1271
  120OSM    C1512599   0.402   1.232   6.499  0.6984 -0.3305 -0.0620
  120OSM   H15A12600   0.336   1.174   6.563 -0.6329 -1.0967 -2.0592
  120OSM   H15B12601   0.424   1.326   6.546  1.5847 -1.7159  2.4143
  120OSM   H15C12602   0.490   1.170   6.490  1.5630  1.0946 -1.5593
  120OSM    C1412603   0.233   1.372   6.397 -0.0081 -0.1604  0.3836
  120OSM   H14A12604   0.159   1.346   6.471 -2.8496  1.3835 -1.8275
  120OSM   H14B12605   0.181   1.387   6.303  0.8299 -1.1455 -0.2521
  120OSM   H14C12606   0.277   1.468   6.421 -0.0786  0.2215 -0.9453
  120OSM    C1312607   0.430   1.319   6.281  0.1870  0.6603  0.4898
  120OSM   H13A12608   0.489   1.242   6.233 -1.8295 -1.0222  0.6646
  120OSM   H13B12609   0.498   1.382   6.336  2.1091 -0.4243 -0.5759
  120OSM   H13C12610   0.382   1.364   6.196 -1.0460  0.9658  1.3425
  120OSM    C1212611   0.267   1.138   6.321  0.0459  0.9119 -0.0166
  120OSM   H12A12612   0.341   1.061   6.312  0.8835  1.6851  0.1504
  120OSM   H12B12613   0.236   1.161   6.220 -2.0424  1.9993  0.8279
  120OSM    C1112614   0.150   1.076   6.412 -0.1005 -0.7145  0.8338
  120OSM   H11A12615   0.097   1.013   6.338  1.7103  1.4353 -2.4169
  120OSM   H11B12616   0.079   1.154   6.446 -0.6325 -0.9575  0.2943
  120OSM      P12617   0.243   0.849   6.493 -0.0920  0.0310 -0.4557
  120OSM    O1312618   0.121   0.769   6.472 -0.3300 -0.3041  0.2183
  120OSM    O1412619   0.350   0.846   6.391 -0.3012 -0.1754 -0.3556
  120OSM    O1112620   0.295   0.799   6.630  0.1045  0.2699 -0.2049
  120OSM    O1212621   0.208   1.000   6.527  0.5097  0.3253  0.6051
  120OSM    C1S12622   0.393   0.873   6.708 -0.4554 -0.6270  0.0408
  120OSM    H1S12623   0.424   0.974   6.672 -0.0058 -0.4899  0.8108
  120OSM    H1T12624   0.481   0.806   6.709 -1.0635 -1.4469  3.0216
  120OSM     NF12625   0.492   0.908   6.928  0.2365 -0.7468 -0.5154
  120OSM    HNF12626   0.541   0.833   6.970  1.7664  0.3491 -0.2920
  120OSM    C2S12627   0.369   0.876   6.862  0.0655  0.1629 -0.2782
  120OSM    H2S12628   0.294   0.955   6.881  0.5581  0.0426  2.2548
  120OSM    C3S12629   0.320   0.738   6.916 -0.6785  1.3107 -0.2150
  120OSM    H3S12630   0.401   0.662   6.919 -1.0335  0.8886 -1.1148
  120OSM     O312631   0.210   0.668   6.850  0.0274  0.2914  0.0539
  120OSM    HO312632   0.209   0.685   6.756 -2.1514  0.0160 -0.0152
  120OSM    C4S12633   0.285   0.758   7.069  0.5578  0.4529 -0.6398
  120OSM    H4S12634   0.195   0.816   7.095  0.5863 -0.0817  0.7328
  120OSM    C5S12635   0.354   0.703   7.171 -1.0206  0.8001 -0.4068
  120OSM    H5S12636   0.449   0.650   7.160 -0.1814  2.3982 -0.9721
  120OSM    C6S12637   0.317   0.725   7.309  0.6621  0.4023 -0.0968
  120OSM    H6S12638   0.247   0.810   7.318 -0.0044  0.0640 -2.0354
  120OSM    H6T12639   0.400   0.763   7.373 -1.5557  0.4540  2.8820
  120OSM    C7S12640   0.270   0.589   7.364  0.2992 -0.4118 -0.9468
  120OSM    H7S12641   0.362   0.527   7.366 -0.0472 -0.9266 -0.8191
  120OSM    H7T12642   0.196   0.528   7.307  2.6182 -1.8206 -2.5376
  120OSM    C8S12643   0.216   0.595   7.512  0.0674 -0.0763 -0.1479
  120OSM    H8S12644   0.292   0.637   7.581 -0.5378 -1.5449  1.4501
  120OSM    H8T12645   0.198   0.487   7.532 -0.8895  0.2923  1.0764
  120OSM    C9S12646   0.079   0.664   7.516 -0.3273 -0.0973  0.1850
  120OSM    H9S12647   0.020   0.610   7.439  1.3227 -3.3670  1.1106
  120OSM    H9T12648   0.092   0.771   7.490  0.4098 -0.4352 -0.8751
  120OSM   C10S12649   0.003   0.659   7.646 -0.6803 -0.4552  0.4120
  120OSM   H10S12650  -0.058   0.567   7.651 -1.7161  0.2362  0.7154
  120OSM   H10T12651  -0.071   0.742   7.651 -0.0585  0.0313  2.3121
  120OSM   C11S12652   0.100   0.670   7.774 -0.3905 -0.1036  0.0697
  120OSM   H11S12653   0.151   0.769   7.771  0.0798 -0.3008  1.2897
  120OSM   H11T12654   0.181   0.594   7.773  0.1022  0.4097 -0.9011
  120OSM   C12S12655   0.016   0.658   7.904  0.3496  0.4276 -0.1077
  120OSM   H12S12656   0.001   0.550   7.926  1.1124  0.7722  2.2357
  120OSM   H12T12657  -0.080   0.710   7.884 -0.0758 -0.8499 -1.4822
  120OSM   C13S12658   0.073   0.725   8.031  0.1961  0.3858  0.1872
  120OSM   H13S12659   0.080   0.835   8.018 -1.1662  0.3941 -0.5391
  120OSM   H13T12660   0.179   0.691   8.043  0.1068 -0.2256 -0.7240
  120OSM   C14S12661  -0.004   0.697   8.159 -0.0646 -0.4287  0.3223
  120OSM   H14S12662  -0.046   0.594   8.159 -1.8578  0.2762  0.0385
  120OSM   H14T12663  -0.094   0.762   8.153  0.3062  0.2533  1.8685
  120OSM   C15S12664   0.086   0.721   8.284 -0.0806  0.2976  0.6010
  120OSM   H15S12665   0.125   0.825   8.280 -2.5483  1.2675  0.6775
  120OSM   H15T12666   0.179   0.662   8.275  0.8992  1.8738  0.3024
  120OSM   C16S12667   0.011   0.696   8.412 -0.1055 -0.7780 -1.0400
  120OSM   H16S12668   0.088   0.685   8.491 -1.1972  1.4614  0.3647
  120OSM   H16T12669  -0.038   0.596   8.404 -0.5089 -0.6970  0.3123
  120OSM   C17S12670  -0.101   0.797   8.445 -0.2467  0.5535 -0.9036
  120OSM   H17S12671  -0.192   0.773   8.386 -0.0355 -1.1054 -0.5776
  120OSM   H17T12672  -0.065   0.899   8.420  0.7924 -0.0873 -2.0234
  120OSM   C18S12673  -0.148   0.771   8.592 -0.2485  0.3519 -0.6508
  120OSM   H18S12674  -0.146   0.661   8.606 -0.9097  0.6195  1.8709
  120OSM   H18T12675  -0.255   0.802   8.599 -0.3708  0.5407 -2.9174
  120OSM   H18U12676  -0.087   0.820   8.671  0.5453 -1.9953  0.2395
  120OSM    C1F12677   0.542   1.036   6.935 -0.3373  0.3128  0.8794
  120OSM     OF12678   0.514   1.131   6.860 -0.6894  1.1056  0.0845
  120OSM    C2F12679   0.653   1.066   7.032  0.5384  0.5436 -0.2117
  120OSM    H2F12680   0.728   1.133   6.984  2.5021  1.0321  3.3408
  120OSM    H2G12681   0.711   0.980   7.072  1.9473  1.4979 -0.1780
  120OSM    C3F12682   0.596   1.131   7.158  0.4257  0.3393  0.1280
  120OSM    H3F12683   0.501   1.084   7.191 -0.4347  2.2047  0.3742
  120OSM    H3G12684   0.585   1.242   7.151 -1.1724  0.2663  1.1784
  120OSM    C4F12685   0.699   1.114   7.268  0.0433 -0.0836  0.4139
  120OSM    H4F12686   0.799   1.159   7.247 -1.5038  1.0233 -5.4784
  120OSM    H4G12687   0.724   1.008   7.290 -1.6825 -0.3881  0.9648
  120OSM    C5F12688   0.645   1.184   7.396 -0.7181  0.2353 -0.6403
  120OSM    H5F12689   0.542   1.147   7.414 -0.3648  0.5314  2.3239
  120OSM    H5G12690   0.626   1.290   7.371 -1.8949  1.1294  3.5992
  120OSM    C6F12691   0.726   1.152   7.516 -0.2656  0.7239 -0.1394
  120OSM    H6F12692   0.837   1.155   7.502 -0.3226 -0.8583 -1.0309
  120OSM    H6G12693   0.708   1.054   7.566 -0.7060  1.1319  0.5066
  120OSM    C7F12694   0.692   1.248   7.635 -0.1484 -0.1448  0.2048
  120OSM    H7F12695   0.586   1.269   7.611 -0.0897 -1.7867 -1.5540
  120OSM    H7G12696   0.744   1.344   7.613 -0.2426  0.2422  1.6254
  120OSM    C8F12697   0.731   1.191   7.772 -0.1727 -0.0397 -0.7530
  120OSM    H8F12698   0.834   1.152   7.761 -0.4635 -1.4367  1.3019
  120OSM    H8G12699   0.667   1.101   7.784  0.8333 -0.6119  0.4331
  120OSM    C9F12700   0.717   1.304   7.875  0.2804  0.1467  0.5035
  120OSM    H9F12701   0.650   1.389   7.853  2.4293  1.5908 -0.6307
  120OSM   C10F12702   0.779   1.301   7.992 -0.0269  0.0164  0.4173
  120OSM   H10F12703   0.773   1.387   8.060 -1.0739  0.7222 -0.5556
  120OSM   C11F12704   0.868   1.196   8.049  0.3775  0.0466 -0.6530
  120OSM   H11F12705   0.969   1.240   8.065  0.7183 -0.8885 -0.2491
  120OSM   H11G12706   0.883   1.106   7.986  0.9739 -0.4461  0.1811
  120OSM   C12F12707   0.800   1.142   8.176 -0.0492 -0.2961  0.4209
  120OSM   H12F12708   0.858   1.058   8.219  0.1600 -0.7514 -0.7234
  120OSM   H12G12709   0.699   1.098   8.162 -0.2450  0.3041 -0.0750
  120OSM   C13F12710   0.802   1.243   8.290  0.5363 -0.0061 -0.0839
  120OSM   H13F12711   0.735   1.327   8.260 -0.6951 -0.4389  1.3676
  120OSM   H13G12712   0.906   1.278   8.305  0.1850 -0.4696  3.8531
  120OSM   C14F12713   0.754   1.189   8.423  0.3833 -0.1242 -0.3934
  120OSM   H14F12714   0.817   1.101   8.450 -0.9125 -0.9697 -0.0552
  120OSM   H14G12715   0.659   1.144   8.388  0.7308 -1.5987  0.4850
  120OSM   C15F12716   0.733   1.294   8.521 -0.6325  0.2284  0.4746
  120OSM   H15F12717   0.703   1.392   8.478  1.4156  1.4878  1.8538
  120OSM   H15G12718   0.836   1.310   8.558 -0.4020  1.8794 -0.8225
  120OSM   C16F12719   0.629   1.265   8.639 -0.0320 -0.2524  0.2723
  120OSM   H16F12720   0.529   1.282   8.594  0.6028 -1.4626 -1.6777
  120OSM   H16G12721   0.647   1.341   8.718  1.9258  0.0128 -0.4014
  120OSM   C17F12722   0.651   1.128   8.700 -0.1040  0.1820  0.0682
  120OSM   H17F12723   0.750   1.147   8.747  0.5072 -0.2761 -1.0263
  120OSM   H17G12724   0.665   1.047   8.626 -0.1548 -0.8658  1.1811
  120OSM   C18F12725   0.533   1.085   8.797  0.7568 -0.0761 -0.1044
  120OSM   H18F12726   0.529   1.170   8.868  1.2164  0.6097 -0.8926
  120OSM   H18G12727   0.555   0.988   8.848  1.3446  0.3999  0.5566
  120OSM   H18H12728   0.433   1.085   8.750  1.3537 -0.5639 -1.3943
  121OSM      N12729   2.242   2.998   5.838 -0.3414 -0.5552 -0.4701
  121OSM    C1512730   2.352   2.971   5.736 -1.5452 -0.5398  0.5851
  121OSM   H15A12731   2.318   2.968   5.634 -1.7494 -0.3540  0.6474
  121OSM   H15B12732   2.397   2.874   5.754 -0.9501 -0.0610  1.7519
  121OSM   H15C12733   2.422   3.052   5.753 -3.4320  1.5644 -1.3477
  121OSM    C1412734   2.187   3.128   5.811 -0.0642 -0.4430 -0.2631
  121OSM   H14A12735   2.104   3.149   5.877  0.5007 -4.4049  1.8535
  121OSM   H14B12736   2.147   3.144   5.711 -2.1165  0.6051  0.6870
  121OSM   H14C12737   2.261   3.200   5.843 -1.8922  0.8696  1.1046
  121OSM    C1312738   2.135   2.893   5.815 -0.2678 -0.7733  0.1180
  121OSM   H13A12739   2.109   2.877   5.711  1.5445 -1.2792 -0.2949
  121OSM   H13B12740   2.048   2.914   5.874 -1.7871  0.4717 -2.4963
  121OSM   H13C12741   2.161   2.798   5.860  0.9938 -0.7400 -0.4930
  121OSM    C1212742   2.299   2.984   5.977 -0.3570  0.0828 -0.3992
  121OSM   H12A12743   2.335   2.883   5.989 -1.2397  0.1458  3.6910
  121OSM   H12B12744   2.226   3.002   6.054 -1.2852  2.0172 -1.6879
  121OSM    C1112745   2.422   3.073   6.007  0.9742  0.1629 -0.6980
  121OSM   H11A12746   2.509   3.057   5.939  1.3014  1.5133 -0.5998
  121OSM   H11B12747   2.464   3.045   6.106  1.7463  0.0134 -1.0599
  121OSM      P12748   2.315   3.289   6.113  0.0816 -0.0596  0.0304
  121OSM    O1312749   2.364   3.429   6.125  0.5436  0.1923  0.1447
  121OSM    O1412750   2.170   3.274   6.085 -0.1842 -0.1542  0.2079
  121OSM    O1112751   2.342   3.207   6.247  0.4219 -0.0114 -0.3317
  121OSM    O1212752   2.389   3.212   6.000  0.1083  0.0726 -0.1742
  121OSM    C1S12753   2.464   3.190   6.315 -0.0022  0.1919 -0.2106
  121OSM    H1S12754   2.543   3.243   6.257 -0.1448  0.6770  0.0318
  121OSM    H1T12755   2.491   3.082   6.321  1.1940  0.4644 -0.4280
  121OSM     NF12756   2.592   3.214   6.534  0.7709 -0.0789  0.5557
  121OSM    HNF12757   2.591   3.152   6.612 -2.1757 -0.1035  0.5433
  121OSM    C2S12758   2.459   3.240   6.465  0.2975 -0.1853 -0.7238
  121OSM    H2S12759   2.449   3.351   6.461  1.4655 -0.0822 -0.7973
  121OSM    C3S12760   2.337   3.172   6.533  0.3156 -0.9114  0.1527
  121OSM    H3S12761   2.363   3.064   6.533  1.0579 -0.7340  0.4295
  121OSM     O312762   2.207   3.188   6.475  0.3316 -0.2172 -0.5759
  121OSM    HO312763   2.241   3.225   6.393  2.4918 -0.3081  0.2485
  121OSM    C4S12764   2.339   3.201   6.682  0.5340  0.5257  0.1469
  121OSM    H4S12765   2.411   3.140   6.738 -0.4163 -0.5445  0.2006
  121OSM    C5S12766   2.256   3.282   6.751  0.0278 -1.0106  0.1757
  121OSM    H5S12767   2.190   3.347   6.692  0.7744  0.4508  0.9436
  121OSM    C6S12768   2.257   3.291   6.903 -0.1747  0.0810 -0.4557
  121OSM    H6S12769   2.239   3.188   6.940  2.8770  0.6576  2.8558
  121OSM    H6T12770   2.174   3.358   6.936  0.4848  1.0609 -0.7724
  121OSM    C7S12771   2.388   3.342   6.976  0.1388  0.4212 -0.6569
  121OSM    H7S12772   2.434   3.433   6.932 -0.0167  0.7539 -0.1322
  121OSM    H7T12773   2.461   3.258   6.971 -0.9349 -0.4321 -2.6050
  121OSM    C8S12774   2.369   3.373   7.127  0.1095 -0.4749  0.7312
  121OSM    H8S12775   2.292   3.451   7.141 -0.1119 -0.4986 -0.3184
  121OSM    H8T12776   2.468   3.395   7.173  1.4958  0.5986 -2.6173
  121OSM    C9S12777   2.310   3.255   7.204 -0.1948  0.2721  0.6807
  121OSM    H9S12778   2.380   3.168   7.195 -0.5321  0.2408 -1.9010
  121OSM    H9T12779   2.213   3.219   7.164 -1.1844  2.3347  1.1768
  121OSM   C10S12780   2.286   3.286   7.347 -0.8072  0.3341 -0.4862
  121OSM   H10S12781   2.200   3.356   7.359 -0.6289  0.7577 -1.5747
  121OSM   H10T12782   2.375   3.335   7.393 -0.3282 -0.5806 -0.4371
  121OSM   C11S12783   2.261   3.161   7.430  0.7792  0.1332 -0.3210
  121OSM   H11S12784   2.329   3.080   7.396 -0.5153 -1.2299  0.2689
  121OSM   H11T12785   2.161   3.115   7.413  1.3927 -1.5561  0.4325
  121OSM   C12S12786   2.272   3.197   7.577  0.2627 -0.3716  0.4050
  121OSM   H12S12787   2.198   3.278   7.596 -0.1861 -0.0780 -2.4142
  121OSM   H12T12788   2.375   3.225   7.607  0.4043 -0.0982 -0.3195
  121OSM   C13S12789   2.235   3.077   7.666 -0.0508  0.3067 -0.4924
  121OSM   H13S12790   2.305   2.992   7.656 -1.4062 -1.3430  2.8868
  121OSM   H13T12791   2.136   3.040   7.631 -0.1858 -0.3511  0.5613
  121OSM   C14S12792   2.231   3.117   7.816 -0.0503  0.4958 -0.3081
  121OSM   H14S12793   2.158   3.198   7.839 -0.3497  0.1084  0.1124
  121OSM   H14T12794   2.327   3.163   7.849 -0.2734 -0.2000  1.3839
  121OSM   C15S12795   2.196   2.999   7.915 -0.3940 -0.3398  0.1245
  121OSM   H15S12796   2.255   2.909   7.886  0.2935 -0.6610  2.3916
  121OSM   H15T12797   2.087   2.983   7.903 -0.6787 -0.1167  2.1109
  121OSM   C16S12798   2.241   3.058   8.048 -0.3463 -0.0235  0.8114
  121OSM   H16S12799   2.195   3.159   8.050  0.1539  0.2376 -0.3129
  121OSM   H16T12800   2.350   3.078   8.058 -0.3698 -0.1126  1.2411
  121OSM   C17S12801   2.187   2.974   8.172  0.3397  0.2394  0.2537
  121OSM   H17S12802   2.248   2.883   8.193 -1.0316 -0.9315 -0.7177
  121OSM   H17T12803   2.094   2.938   8.123 -0.0727  0.3597  0.9409
  121OSM   C18S12804   2.168   3.063   8.297  0.3298  0.5362  0.4655
  121OSM   H18S12805   2.118   3.012   8.383  0.4239  0.4198  0.4501
  121OSM   H18T12806   2.109   3.152   8.266 -0.6608 -0.2720  0.0005
  121OSM   H18U12807   2.268   3.095   8.333  2.0673 -2.7942 -1.2432
  121OSM    C1F12808   2.698   3.272   6.485 -0.4500  0.0676 -0.1349
  121OSM     OF12809   2.694   3.361   6.407 -0.1927 -0.4719  0.4793
  121OSM    C2F12810   2.828   3.226   6.541  0.8079 -0.3105  0.7966
  121OSM    H2F12811   2.888   3.206   6.449  0.4204 -1.9916  0.8820
  121OSM    H2G12812   2.822   3.128   6.593  2.4729 -2.1268 -2.2604
  121OSM    C3F12813   2.898   3.336   6.625 -0.0221 -0.1076  0.2042
  121OSM    H3F12814   2.878   3.432   6.572  0.7385 -0.8657 -1.4991
  121OSM    H3G12815   3.008   3.320   6.626  0.0524  0.4232  1.1893
  121OSM    C4F12816   2.854   3.344   6.776 -0.4808 -0.2087 -0.9800
  121OSM    H4F12817   2.901   3.264   6.837 -2.5951 -2.1234 -1.7814
  121OSM    H4G12818   2.744   3.347   6.786 -0.4203  0.3970 -0.4795
  121OSM    C5F12819   2.900   3.476   6.837 -0.1959 -0.0525 -0.1030
  121OSM    H5F12820   2.843   3.561   6.795 -0.3761  0.4783  1.1970
  121OSM    H5G12821   3.009   3.486   6.820 -0.0811  1.1632  1.2440
  121OSM    C6F12822   2.868   3.488   6.993  0.2889  0.0172  0.5196
  121OSM    H6F12823   2.919   3.406   7.048  0.3499 -1.5295 -1.7477
  121OSM    H6G12824   2.760   3.466   7.008  0.0300  0.2954 -0.8740
  121OSM    C7F12825   2.909   3.622   7.048  0.3151  0.3443  0.1416
  121OSM    H7F12826   2.841   3.700   7.008  0.3654 -1.0042 -2.6518
  121OSM    H7G12827   3.014   3.645   7.017 -0.7423  3.5601 -1.2256
  121OSM    C8F12828   2.896   3.613   7.202 -0.1655 -0.1109  0.3334
  121OSM    H8F12829   2.915   3.708   7.257 -1.5665  1.2912 -1.5062
  121OSM    H8G12830   2.973   3.538   7.229  1.7032  0.7696 -2.3199
  121OSM    C9F12831   2.756   3.569   7.241  0.2470  0.0188  0.5350
  121OSM    H9F12832   2.693   3.564   7.150  2.1265 -2.0266 -0.6850
  121OSM   C10F12833   2.697   3.544   7.359  0.0946  0.7351 -0.4765
  121OSM   H10F12834   2.600   3.494   7.354  0.9052 -0.7921 -1.3908
  121OSM   C11F12835   2.773   3.556   7.491 -0.3220 -0.3418  0.4619
  121OSM   H11F12836   2.761   3.663   7.517 -1.8947 -0.7622  1.5534
  121OSM   H11G12837   2.881   3.544   7.469 -0.7517 -1.1187 -1.3304
  121OSM   C12F12838   2.731   3.466   7.601  1.0254  0.7587 -0.3655
  121OSM   H12F12839   2.814   3.460   7.675  2.8844  0.4794 -2.4471
  121OSM   H12G12840   2.703   3.361   7.582 -0.0116  1.0512 -0.4674
  121OSM   C13F12841   2.628   3.531   7.687 -0.0056  0.3285  0.5178
  121OSM   H13F12842   2.541   3.530   7.618 -0.0265  0.8529  0.5400
  121OSM   H13G12843   2.661   3.626   7.734  2.3331 -0.5157  0.6608
  121OSM   C14F12844   2.584   3.433   7.804  0.4722 -0.2040  0.1539
  121OSM   H14F12845   2.589   3.328   7.767  0.7931  0.5321 -1.9323
  121OSM   H14G12846   2.478   3.457   7.827  1.3111  2.1353  1.7314
  121OSM   C15F12847   2.672   3.457   7.929 -0.8437 -0.6727 -0.8576
  121OSM   H15F12848   2.653   3.559   7.969  0.1676 -0.0927 -1.8215
  121OSM   H15G12849   2.774   3.454   7.886 -0.6745 -0.2464 -0.4903
  121OSM   C16F12850   2.662   3.346   8.041 -1.4492 -0.2185 -0.1133
  121OSM   H16F12851   2.728   3.368   8.128 -1.1458 -0.2506 -0.3317
  121OSM   H16G12852   2.701   3.254   7.992 -0.2379  1.0335 -1.6135
  121OSM   C17F12853   2.522   3.306   8.091 -0.0668  0.1307 -0.0565
  121OSM   H17F12854   2.542   3.217   8.154  1.5242 -1.1690 -2.3113
  121OSM   H17G12855   2.455   3.277   8.006  2.1615 -0.3772 -1.6722
  121OSM   C18F12856   2.461   3.419   8.176  0.0523 -0.2290  0.0664
  121OSM   H18F12857   2.532   3.427   8.261 -1.2340  1.1975  1.0421
  121OSM   H18G12858   2.367   3.380   8.221 -0.9731 -0.4920 -2.2370
  121OSM   H18H12859   2.441   3.519   8.132  2.3034  1.5269  2.8513
  122OSM      N12860   1.500   5.715   5.871 -0.2363 -0.3149  0.0228
  122OSM    C1512861   1.641   5.692   5.903  0.4742  0.4444 -1.0713
  122OSM   H15A12862   1.659   5.749   5.993  0.6043  2.8270 -2.5778
  122OSM   H15B12863   1.708   5.729   5.827 -0.0871  1.3790 -1.1211
  122OSM   H15C12864   1.659   5.586   5.919  0.4694  0.5058 -0.6496
  122OSM    C1412865   1.484   5.856   5.817 -0.5960  0.1227  0.3641
  122OSM   H14A12866   1.551   5.877   5.735 -1.3332 -0.9063 -0.5206
  122OSM   H14B12867   1.510   5.925   5.895  4.4070 -0.8380 -0.3155
  122OSM   H14C12868   1.384   5.880   5.784 -0.4526 -0.1737 -0.2923
  122OSM    C1312869   1.469   5.630   5.753 -0.8989 -0.1148 -0.3003
  122OSM   H13A12870   1.526   5.663   5.668 -0.3115 -2.1377 -0.6954
  122OSM   H13B12871   1.367   5.632   5.718 -1.1820 -0.5611  0.4706
  122OSM   H13C12872   1.495   5.528   5.774 -1.4994 -0.0461  0.8300
  122OSM    C1212873   1.407   5.688   5.988  0.4716 -0.1664  0.3586
  122OSM   H12A12874   1.308   5.720   5.958  0.0242 -0.2483  1.7297
  122OSM   H12B12875   1.435   5.749   6.073  0.9421  1.6972 -1.0760
  122OSM    C1112876   1.384   5.545   6.040  0.0089  0.6074  0.5774
  122OSM   H11A12877   1.331   5.557   6.137 -0.0586 -0.4312  0.6801
  122OSM   H11B12878   1.480   5.494   6.062  0.2556  0.3836 -0.9214
  122OSM      P12879   1.280   5.317   5.967 -0.2243 -0.1593  1.2216
  122OSM    O1312880   1.168   5.278   5.879 -0.3374 -0.2211  0.1472
  122OSM    O1412881   1.410   5.244   5.947  0.2447 -0.3718  0.3968
  122OSM    O1112882   1.230   5.300   6.117 -0.2618  0.5000  0.1519
  122OSM    O1212883   1.302   5.471   5.942 -0.0160  0.0334 -0.3182
  122OSM    C1S12884   1.315   5.253   6.217  0.4645 -0.0512 -0.6411
  122OSM    H1S12885   1.411   5.309   6.218  0.1654  0.4724  1.7761
  122OSM    H1T12886   1.348   5.148   6.203  2.4302  0.3040  0.9751
  122OSM     NF12887   1.346   5.246   6.466  0.1924  0.2087  0.9790
  122OSM    HNF12888   1.318   5.173   6.528 -3.4038  1.7446  1.2995
  122OSM    C2S12889   1.250   5.273   6.357  0.3727  0.3969 -0.8629
  122OSM    H2S12890   1.223   5.381   6.362  1.2551  0.6963 -2.2245
  122OSM    C3S12891   1.116   5.189   6.376  0.2544 -0.1435 -0.1292
  122OSM    H3S12892   1.139   5.080   6.378  0.9632  0.0078  0.1179
  122OSM     O312893   1.026   5.212   6.271  0.2199 -0.5410  0.5563
  122OSM    HO312894   1.083   5.272   6.223  1.8028 -2.5237 -0.0913
  122OSM    C4S12895   1.049   5.222   6.508 -0.1065 -0.1431 -0.3969
  122OSM    H4S12896   0.985   5.312   6.510 -1.5060 -1.1375  3.1079
  122OSM    C5S12897   1.032   5.135   6.612  0.5726 -0.0759  0.4064
  122OSM    H5S12898   1.061   5.030   6.596 -1.4551 -0.5154 -0.4541
  122OSM    C6S12899   0.971   5.165   6.744 -0.7535  0.1003 -0.0633
  122OSM    H6S12900   0.888   5.092   6.752 -0.1953 -0.2701  2.9313
  122OSM    H6T12901   0.930   5.269   6.742  1.7782  1.2156  2.2466
  122OSM    C7S12902   1.065   5.154   6.864 -0.8763 -0.0746 -0.3228
  122OSM    H7S12903   1.133   5.241   6.872  0.0517 -0.7135 -1.2310
  122OSM    H7T12904   1.125   5.061   6.862  3.0330  2.3269  1.0230
  122OSM    C8S12905   0.988   5.140   6.993  0.7003  0.3067 -0.7890
  122OSM    H8S12906   0.928   5.050   6.973  1.2142  0.2383 -2.0477
  122OSM    H8T12907   0.921   5.225   7.020  1.5340  0.3414  1.2837
  122OSM    C9S12908   1.076   5.109   7.119 -0.1188 -0.3328  0.1747
  122OSM    H9S12909   1.133   5.203   7.137  0.2966 -0.5339 -0.0674
  122OSM    H9T12910   1.146   5.026   7.096  0.6728 -0.1225  1.7453
  122OSM   C10S12911   0.987   5.060   7.240 -0.4171  0.3213 -0.7396
  122OSM   H10S12912   0.943   4.959   7.225  1.8097 -0.5947 -1.2911
  122OSM   H10T12913   0.902   5.132   7.242  0.0781  0.8962 -0.5359
  122OSM   C11S12914   1.071   5.070   7.364 -0.1943 -0.3935 -0.0959
  122OSM   H11S12915   1.083   5.179   7.382  0.6391 -0.6381  0.9001
  122OSM   H11T12916   1.169   5.022   7.345  0.6057  1.3357 -0.4193
  122OSM   C12S12917   1.014   5.008   7.493 -0.5885 -0.2086  0.4688
  122OSM   H12S12918   0.986   4.903   7.474  1.9078 -0.8953  0.4811
  122OSM   H12T12919   0.930   5.071   7.532 -0.6927  0.0634 -0.1949
  122OSM   C13S12920   1.116   4.989   7.606  0.4323  0.2919 -0.3647
  122OSM   H13S12921   1.148   5.090   7.639 -0.4785  0.1367  1.0788
  122OSM   H13T12922   1.212   4.950   7.567  2.4880  1.8216  2.9149
  122OSM   C14S12923   1.059   4.916   7.730 -1.0623 -0.4331  0.1778
  122OSM   H14S12924   1.033   4.811   7.703 -0.6248 -0.0784 -1.7183
  122OSM   H14T12925   0.968   4.976   7.753 -1.0550 -1.0398  1.8710
  122OSM   C15S12926   1.148   4.922   7.856  0.7506 -0.2439 -0.7490
  122OSM   H15S12927   1.160   5.030   7.877 -1.0424  0.0403 -1.0559
  122OSM   H15T12928   1.243   4.890   7.808  0.3721 -0.7019 -1.2029
  122OSM   C16S12929   1.108   4.826   7.967  0.2839 -0.3496 -0.3129
  122OSM   H16S12930   1.029   4.759   7.927 -0.3276  0.1795 -0.0165
  122OSM   H16T12931   1.050   4.885   8.041  1.8785  0.1228  0.5677
  122OSM   C17S12932   1.236   4.768   8.028 -0.9236 -0.1471 -0.1880
  122OSM   H17S12933   1.309   4.849   8.048 -1.2699  0.0831  0.1456
  122OSM   H17T12934   1.288   4.710   7.948 -0.4776 -1.6333  1.1605
  122OSM   C18S12935   1.209   4.674   8.150 -0.3057  0.1169  0.3365
  122OSM   H18S12936   1.223   4.564   8.138 -1.1519  0.0023  0.3247
  122OSM   H18T12937   1.104   4.693   8.183  0.0231  1.3402  0.6984
  122OSM   H18U12938   1.275   4.703   8.235 -0.1287  1.4533 -0.2520
  122OSM    C1F12939   1.445   5.334   6.495 -0.1670 -0.0197  0.3085
  122OSM     OF12940   1.457   5.439   6.430  0.1527 -0.2283 -0.4756
  122OSM    C2F12941   1.519   5.313   6.616 -0.0037  0.4838  0.3482
  122OSM    H2F12942   1.507   5.205   6.640  2.9277  0.4361  1.7395
  122OSM    H2G12943   1.482   5.385   6.692 -1.2259  1.3554 -1.0329
  122OSM    C3F12944   1.671   5.349   6.599 -0.3081 -0.9069  0.0921
  122OSM    H3F12945   1.676   5.459   6.587 -2.2355 -0.7122  1.0027
  122OSM    H3G12946   1.707   5.297   6.507 -0.2725 -0.8611  0.0799
  122OSM    C4F12947   1.771   5.325   6.714 -0.2427 -0.2977 -0.1828
  122OSM    H4F12948   1.750   5.394   6.798  4.0549  2.7218 -1.4147
  122OSM    H4G12949   1.874   5.353   6.681  0.0983 -0.8547  0.3909
  122OSM    C5F12950   1.757   5.187   6.784 -0.5559 -0.4598  1.3382
  122OSM    H5F12951   1.720   5.121   6.702  0.2574  1.5278 -0.6485
  122OSM    H5G12952   1.682   5.185   6.866 -3.0096 -2.2222 -0.8480
  122OSM    C6F12953   1.895   5.145   6.844 -0.2598 -0.5993 -0.0549
  122OSM    H6F12954   1.937   5.231   6.901 -2.7184  0.4935  0.1771
  122OSM    H6G12955   1.964   5.109   6.764 -0.5123 -0.8520 -0.1583
  122OSM    C7F12956   1.882   5.038   6.955  0.7741 -0.2312 -0.1136
  122OSM    H7F12957   1.826   4.950   6.917 -2.0711  2.0940 -1.4855
  122OSM    H7G12958   1.822   5.087   7.035  2.5566  3.0569 -0.7071
  122OSM    C8F12959   2.008   5.005   7.018  0.4547 -0.1636  0.0245
  122OSM    H8F12960   2.062   5.098   7.046  2.1469 -0.2297 -2.7939
  122OSM    H8G12961   2.081   4.965   6.945 -2.8846 -1.1769 -2.8887
  122OSM    C9F12962   1.999   4.922   7.149 -0.2941  0.3519 -0.0474
  122OSM    H9F12963   2.043   4.822   7.138  0.2264  0.7065 -1.2681
  122OSM   C10F12964   1.949   4.961   7.266 -0.1041 -0.6760 -0.3352
  122OSM   H10F12965   1.957   4.894   7.353  0.6292 -0.7933 -0.4824
  122OSM   C11F12966   1.897   5.099   7.298  0.1274 -0.4086 -0.2233
  122OSM   H11F12967   1.792   5.074   7.326  0.3473 -0.2195  0.7583
  122OSM   H11G12968   1.892   5.166   7.209  0.8519  1.8390  1.3955
  122OSM   C12F12969   1.969   5.171   7.410  0.5339 -0.2394 -0.2012
  122OSM   H12F12970   1.924   5.272   7.414 -1.6802 -1.2045 -0.1793
  122OSM   H12G12971   2.079   5.178   7.392  1.2813 -1.1355  3.7044
  122OSM   C13F12972   1.971   5.096   7.549 -0.3565  0.6251 -0.1328
  122OSM   H13F12973   2.004   4.991   7.532 -1.2660  0.2920  0.1125
  122OSM   H13G12974   1.868   5.079   7.587 -0.2796  0.6904  0.1058
  122OSM   C14F12975   2.040   5.180   7.659 -0.0921  0.1422  0.1589
  122OSM   H14F12976   1.996   5.282   7.646 -1.4572 -0.3942  0.5034
  122OSM   H14G12977   2.148   5.196   7.636 -0.2985 -0.0340 -0.9447
  122OSM   C15F12978   2.018   5.144   7.798  0.6779  0.2053 -0.1855
  122OSM   H15F12979   2.073   5.050   7.821  0.2185 -0.2687 -1.0067
  122OSM   H15G12980   1.915   5.124   7.833  0.5478 -1.3299 -1.3748
  122OSM   C16F12981   2.076   5.250   7.902  0.0922  0.7788  0.0334
  122OSM   H16F12982   2.031   5.345   7.868 -2.2282  0.3071  1.6232
  122OSM   H16G12983   2.186   5.248   7.919 -0.3408 -0.6831  3.0826
  122OSM   C17F12984   2.038   5.215   8.052 -0.0530 -0.8440  0.7190
  122OSM   H17F12985   2.105   5.130   8.076  1.5049  0.9417  2.8058
  122OSM   H17G12986   1.930   5.186   8.048 -0.3746  0.4315 -0.4257
  122OSM   C18F12987   2.054   5.321   8.160  0.0779 -0.4360 -0.3525
  122OSM   H18F12988   1.974   5.398   8.169  1.3864  0.7706  1.5462
  122OSM   H18G12989   2.153   5.371   8.163 -0.9702  1.9173 -2.6048
  122OSM   H18H12990   2.045   5.266   8.256  2.1633 -1.3500 -0.6664
  123OSM      N12991   6.562   0.882   6.504 -0.7732 -0.0203 -0.4238
  123OSM    C1512992   6.615   0.919   6.370  0.0319  0.1503 -0.7052
  123OSM   H15A12993   6.565   0.861   6.294  0.3617 -1.0851  0.0056
  123OSM   H15B12994   6.718   0.888   6.365  0.1192  0.1768  0.6675
  123OSM   H15C12995   6.600   1.023   6.345 -1.7790  0.2452  0.6523
  123OSM    C1412996   6.622   0.982   6.606 -0.2869  0.0279  0.1101
  123OSM   H14A12997   6.583   0.962   6.705 -2.0270  2.2889 -0.0941
  123OSM   H14B12998   6.595   1.084   6.588 -0.8571 -0.1745 -0.1940
  123OSM   H14C12999   6.729   0.966   6.609  0.0537  1.4601 -2.7921
  123OSM    C1313000   6.417   0.898   6.510 -0.0159  0.0991  0.1277
  123OSM   H13A13001   6.371   0.851   6.596  0.8198 -3.1893 -1.1298
  123OSM   H13B13002   6.385   0.840   6.424  2.8845 -0.4243 -0.6436
  123OSM   H13C13003   6.393   1.002   6.495  1.1120  0.3278 -0.0924
  123OSM    C1213004   6.601   0.738   6.549  0.2166 -0.2892  0.5605
  123OSM   H12A13005   6.708   0.732   6.548  0.2045 -0.4645  0.2750
  123OSM   H12B13006   6.564   0.667   6.476  0.7614 -0.9238  0.8932
  123OSM    C1113007   6.547   0.681   6.683  0.4407  0.5582  0.6494
  123OSM   H11A13008   6.579   0.759   6.755  0.7790 -0.5912  1.7752
  123OSM   H11B13009   6.594   0.581   6.695 -0.8655 -0.0945  0.3642
  123OSM      P13010   6.318   0.562   6.610  0.2028 -0.1380  0.4479
  123OSM    O1313011   6.193   0.631   6.565 -0.1039  1.2419 -0.0790
  123OSM    O1413012   6.401   0.508   6.503  0.2445 -0.4252 -0.1721
  123OSM    O1113013   6.291   0.447   6.722 -0.3804 -0.4169  0.8225
  123OSM    O1213014   6.406   0.669   6.685  0.0148  0.1513  0.0408
  123OSM    C1S13015   6.223   0.498   6.838  0.2778 -0.8820 -0.2127
  123OSM    H1S13016   6.252   0.602   6.866 -2.9885 -0.1412  0.7148
  123OSM    H1T13017   6.257   0.436   6.923 -3.0550 -0.6834  1.3459
  123OSM     NF13018   6.036   0.511   6.968 -0.2928 -0.3301 -0.4891
  123OSM    HNF13019   6.053   0.444   7.040  0.8823 -1.1062 -1.4787
  123OSM    C2S13020   6.069   0.473   6.832  0.5033 -0.4372  0.6133
  123OSM    H2S13021   6.024   0.542   6.757  1.0967 -0.6308  0.0779
  123OSM    C3S13022   6.046   0.324   6.791  0.3073  0.1963  0.2473
  123OSM    H3S13023   6.113   0.265   6.856  0.2525  1.0634  1.0997
  123OSM     O313024   6.093   0.287   6.657  0.0181 -0.5165  0.1570
  123OSM    HO313025   6.163   0.352   6.650 -0.5660 -0.0697 -1.8700
  123OSM    C4S13026   5.902   0.289   6.811 -0.0571 -0.0024 -0.5066
  123OSM    H4S13027   5.838   0.298   6.722 -0.4612 -1.0588 -0.3399
  123OSM    C5S13028   5.836   0.270   6.923  1.2321  0.1009  0.0063
  123OSM    H5S13029   5.893   0.286   7.016  1.8357 -1.9605  0.0283
  123OSM    C6S13030   5.689   0.248   6.930  0.8525 -0.5688  0.1570
  123OSM    H6S13031   5.673   0.168   7.005 -0.4846 -0.4406  0.0333
  123OSM    H6T13032   5.638   0.213   6.837  0.2921  0.7751 -0.0452
  123OSM    C7S13033   5.602   0.372   6.980 -0.0963  0.5319  0.3050
  123OSM    H7S13034   5.498   0.334   6.974 -0.0692  0.6199 -0.9389
  123OSM    H7T13035   5.609   0.448   6.899 -0.2460 -0.1722 -0.3678
  123OSM    C8S13036   5.636   0.426   7.110  0.4062 -0.4294 -0.0865
  123OSM    H8S13037   5.568   0.511   7.132  1.2682  1.0330 -2.8524
  123OSM    H8T13038   5.736   0.473   7.106 -0.6013  1.6610 -1.6589
  123OSM    C9S13039   5.626   0.329   7.230  0.0182  0.4364  0.0448
  123OSM    H9S13040   5.713   0.262   7.215  2.0516  2.9480  0.2392
  123OSM    H9T13041   5.537   0.263   7.219  1.3153 -1.4794  0.7487
  123OSM   C10S13042   5.650   0.393   7.366  0.0756 -0.1824  0.4412
  123OSM   H10S13043   5.623   0.500   7.354  2.2242  0.8384  3.9391
  123OSM   H10T13044   5.759   0.393   7.384  0.2353 -2.7337 -0.3249
  123OSM   C11S13045   5.574   0.326   7.485  0.0642  0.3621 -0.5833
  123OSM   H11S13046   5.600   0.218   7.481  0.4606  0.4230  0.3012
  123OSM   H11T13047   5.464   0.328   7.470 -0.2031  0.8410  1.3681
  123OSM   C12S13048   5.616   0.379   7.621 -0.1155  0.2320  0.1303
  123OSM   H12S13049   5.597   0.488   7.620 -0.7731  0.1164 -0.1970
  123OSM   H12T13050   5.726   0.368   7.629  0.0583  0.3121 -1.8744
  123OSM   C13S13051   5.565   0.292   7.735 -0.1323  0.3250  0.1643
  123OSM   H13S13052   5.630   0.202   7.739  1.4621  1.3030 -2.3593
  123OSM   H13T13053   5.464   0.257   7.706  0.7557 -2.2892  0.0422
  123OSM   C14S13054   5.577   0.369   7.864 -0.3661  0.9464 -0.2932
  123OSM   H14S13055   5.594   0.478   7.848 -0.4951  0.8077 -1.3761
  123OSM   H14T13056   5.656   0.333   7.934 -3.7025  1.1454  3.8134
  123OSM   C15S13057   5.456   0.347   7.951 -0.8109 -0.5672  0.3460
  123OSM   H15S13058   5.440   0.240   7.975 -0.3413 -0.6718  0.1908
  123OSM   H15T13059   5.361   0.375   7.900 -2.3874 -1.9037  2.4491
  123OSM   C16S13060   5.461   0.425   8.081  0.4192  0.6728 -0.1802
  123OSM   H16S13061   5.429   0.526   8.048  2.5881  1.5487  0.2723
  123OSM   H16T13062   5.562   0.429   8.128  0.6164  2.1659 -0.7029
  123OSM   C17S13063   5.361   0.383   8.185  0.2198 -0.6218 -0.0319
  123OSM   H17S13064   5.352   0.274   8.204 -1.7171  0.0656  3.4228
  123OSM   H17T13065   5.258   0.410   8.151  1.1944  1.5067 -1.3778
  123OSM   C18S13066   5.386   0.453   8.315 -0.0468  0.0093  0.5631
  123OSM   H18S13067   5.389   0.564   8.308 -0.1198  0.1270  2.1810
  123OSM   H18T13068   5.474   0.416   8.372  1.5261 -1.0357 -2.4511
  123OSM   H18U13069   5.307   0.422   8.386 -0.6895 -0.2634 -0.2745
  123OSM    C1F13070   6.019   0.644   7.001  0.3221  0.0227 -0.0806
  123OSM     OF13071   5.995   0.716   6.908  0.0442  0.3165  0.6519
  123OSM    C2F13072   6.038   0.689   7.143  1.0485 -0.9286 -0.1345
  123OSM    H2F13073   6.147   0.677   7.163  0.9157 -1.2874  0.3861
  123OSM    H2G13074   5.990   0.619   7.214 -2.9100  1.3652 -0.3728
  123OSM    C3F13075   5.991   0.835   7.163  0.2755  0.4616  0.7581
  123OSM    H3F13076   5.891   0.859   7.122  1.5093  3.5782 -0.6090
  123OSM    H3G13077   6.066   0.899   7.110  0.0980 -0.4098 -0.5605
  123OSM    C4F13078   5.990   0.877   7.309  0.6424 -0.0252  0.2352
  123OSM    H4F13079   5.969   0.986   7.318 -0.4655 -0.2336  0.2327
  123OSM    H4G13080   6.090   0.862   7.354 -0.5301 -3.3155  1.8625
  123OSM    C5F13081   5.885   0.800   7.391 -0.4563  0.2207 -0.0613
  123OSM    H5F13082   5.899   0.690   7.385 -0.9632 -0.0051  2.1928
  123OSM    H5G13083   5.788   0.818   7.340 -0.7707  0.1354  0.4908
  123OSM    C6F13084   5.870   0.836   7.543 -0.2170  0.8510  0.6768
  123OSM    H6F13085   5.848   0.945   7.538  0.1316  0.9163  0.6037
  123OSM    H6G13086   5.968   0.822   7.592 -0.3120 -3.8152 -0.2065
  123OSM    C7F13087   5.771   0.750   7.611  0.0202 -0.4017 -0.6105
  123OSM    H7F13088   5.780   0.647   7.568  2.5805 -0.1788 -0.6849
  123OSM    H7G13089   5.669   0.787   7.584 -0.3543 -0.4945  0.6700
  123OSM    C8F13090   5.777   0.761   7.767  0.4347  0.4322  0.5816
  123OSM    H8F13091   5.689   0.708   7.810 -0.2829  1.0054 -0.1790
  123OSM    H8G13092   5.761   0.869   7.786  1.5854  0.8312 -0.6343
  123OSM    C9F13093   5.906   0.717   7.842 -0.4557 -0.8485 -0.1588
  123OSM    H9F13094   6.003   0.713   7.789 -0.0142 -1.3173  0.6704
  123OSM   C10F13095   5.916   0.664   7.969 -0.1680 -0.7616 -0.3014
  123OSM   H10F13096   6.017   0.639   8.004 -0.2187  1.2887  1.4104
  123OSM   C11F13097   5.811   0.637   8.077  0.4252  0.5366 -0.0159
  123OSM   H11F13098   5.787   0.529   8.068  2.5176  0.0259  0.1218
  123OSM   H11G13099   5.727   0.707   8.061  1.2167  1.2306 -1.1889
  123OSM   C12F13100   5.857   0.644   8.218 -0.6130 -0.6294 -1.1798
  123OSM   H12F13101   5.880   0.751   8.235 -1.3735 -0.6641  0.0886
  123OSM   H12G13102   5.938   0.568   8.226 -1.8978 -1.7048  2.1284
  123OSM   C13F13103   5.746   0.601   8.309 -0.6473  0.3448 -0.3046
  123OSM   H13F13104   5.735   0.492   8.288  1.8084 -0.4711  2.3381
  123OSM   H13G13105   5.656   0.655   8.273 -1.8832 -1.3637  0.1196
  123OSM   C14F13106   5.764   0.621   8.458 -0.4791 -0.0111  0.0397
  123OSM   H14F13107   5.812   0.718   8.480  1.0064 -0.5212 -0.9337
  123OSM   H14G13108   5.840   0.548   8.494 -1.2443 -1.5012 -1.2863
  123OSM   C15F13109   5.636   0.593   8.534 -0.0296 -0.2931 -0.2352
  123OSM   H15F13110   5.611   0.485   8.519  1.3265 -0.7743  0.9256
  123OSM   H15G13111   5.555   0.657   8.493  1.1244  1.2316 -0.1477
  123OSM   C16F13112   5.643   0.622   8.686 -0.0516  0.5379 -0.1687
  123OSM   H16F13113   5.680   0.725   8.701 -0.0304  0.1354  2.7195
  123OSM   H16G13114   5.714   0.548   8.728  0.5209  1.7286  0.9995
  123OSM   C17F13115   5.504   0.620   8.750 -0.3161  0.6073  0.4305
  123OSM   H17F13116   5.447   0.715   8.748  0.4180  1.0446  0.3405
  123OSM   H17G13117   5.526   0.610   8.858  1.0093  2.5617  0.3676
  123OSM   C18F13118   5.413   0.502   8.710 -0.1204  0.1285 -0.2568
  123OSM   H18F13119   5.467   0.406   8.724  0.8839  0.6051 -0.7789
  123OSM   H18G13120   5.358   0.498   8.613  0.0587 -2.2901 -0.2728
  123OSM   H18H13121   5.333   0.502   8.787  0.5268 -0.9594  0.4241
  124OSM      N13122   0.128   3.581   5.946  0.4463 -0.3319  0.0325
  124OSM    C1513123   0.141   3.731   5.923 -0.2649  0.1074  0.4816
  124OSM   H15A13124   0.080   3.758   5.839 -1.5687  0.3778  1.5046
  124OSM   H15B13125   0.245   3.761   5.914 -0.5485  2.0227  2.8009
  124OSM   H15C13126   0.103   3.791   6.005 -4.1182 -0.0691 -1.0836
  124OSM    C1413127   0.120   3.557   6.094  0.5743  0.8342  0.1768
  124OSM   H14A13128   0.209   3.574   6.151  0.8680 -0.5356  0.1425
  124OSM   H14B13129   0.087   3.454   6.096  0.9488  0.7034 -0.3191
  124OSM   H14C13130   0.031   3.607   6.129 -0.5935  0.8627 -2.6155
  124OSM    C1313131   0.004   3.545   5.871  0.2681  0.7338  0.2828
  124OSM   H13A13132  -0.076   3.606   5.909 -1.3293  1.3240 -3.7371
  124OSM   H13B13133  -0.022   3.440   5.874  2.5255  0.1709  1.4259
  124OSM   H13C13134   0.007   3.565   5.765 -1.9427 -0.2445 -0.0086
  124OSM    C1213135   0.249   3.504   5.897  0.2946  0.0711 -0.1497
  124OSM   H12A13136   0.236   3.507   5.790 -1.6113 -2.1585 -0.0234
  124OSM   H12B13137   0.227   3.400   5.915  3.1833 -0.1707  2.2450
  124OSM    C1113138   0.384   3.544   5.957  0.1537 -0.0339 -0.1669
  124OSM   H11A13139   0.397   3.655   5.961  2.8483 -0.3190  0.0061
  124OSM   H11B13140   0.467   3.505   5.895  0.9438 -1.7170  1.8818
  124OSM      P13141   0.427   3.335   6.105 -0.3836 -0.0984  0.4484
  124OSM    O1313142   0.315   3.248   6.054  0.3519  0.1999 -0.6179
  124OSM    O1413143   0.556   3.302   6.045  0.4071 -0.5305  0.2615
  124OSM    O1113144   0.431   3.310   6.265 -0.3054  0.0056 -0.0952
  124OSM    O1213145   0.400   3.496   6.094  0.4081  0.3681 -0.0782
  124OSM    C1S13146   0.534   3.380   6.334 -0.3838  0.4970  0.7508
  124OSM    H1S13147   0.528   3.489   6.313  1.3990  0.1574 -1.7574
  124OSM    H1T13148   0.634   3.337   6.311 -1.2435 -1.6890  1.0660
  124OSM     NF13149   0.584   3.464   6.570  0.4744  0.2680  0.0529
  124OSM    HNF13150   0.680   3.438   6.583  0.9480  0.9098 -1.9405
  124OSM    C2S13151   0.516   3.363   6.490  0.2614 -0.5466 -0.0636
  124OSM    H2S13152   0.407   3.360   6.511  0.0121 -0.1966 -1.3118
  124OSM    C3S13153   0.567   3.220   6.526 -0.3795  0.5139  0.0827
  124OSM    H3S13154   0.674   3.211   6.498 -0.0527  1.2339  1.0984
  124OSM     O313155   0.489   3.123   6.454  0.3877 -0.3212  0.4478
  124OSM    HO313156   0.482   3.166   6.368 -0.7854 -1.3573  0.0052
  124OSM    C4S13157   0.542   3.194   6.674 -0.1079 -0.0353 -0.3317
  124OSM    H4S13158   0.436   3.219   6.695  0.4082  0.3842  1.9520
  124OSM    C5S13159   0.638   3.152   6.757 -0.2738 -0.3691 -0.9849
  124OSM    H5S13160   0.736   3.120   6.718 -0.2073 -3.6464  1.6138
  124OSM    C6S13161   0.611   3.128   6.903 -0.0678 -0.5514 -0.2307
  124OSM    H6S13162   0.699   3.140   6.969 -0.3078  0.4715 -0.0776
  124OSM    H6T13163   0.577   3.023   6.915 -1.5741 -0.0162  0.3449
  124OSM    C7S13164   0.510   3.230   6.961 -0.5871 -0.5356  0.2669
  124OSM    H7S13165   0.407   3.215   6.923 -0.0474 -1.7499 -0.7517
  124OSM    H7T13166   0.541   3.336   6.947 -1.0973 -0.5945 -1.3093
  124OSM    C8S13167   0.500   3.222   7.115 -0.1592 -0.1395  0.0770
  124OSM    H8S13168   0.598   3.240   7.164  0.5203  0.2636 -1.3852
  124OSM    H8T13169   0.480   3.117   7.146  2.4272 -0.3519  1.1833
  124OSM    C9S13170   0.394   3.320   7.166  0.2874 -0.1227  0.3528
  124OSM    H9S13171   0.305   3.319   7.099  2.7911 -0.1133 -3.0650
  124OSM    H9T13172   0.428   3.425   7.156 -1.1439  0.5817  2.4330
  124OSM   C10S13173   0.338   3.296   7.305  0.0066 -0.4967  0.7686
  124OSM   H10S13174   0.283   3.200   7.309 -0.8490 -0.0813 -0.7775
  124OSM   H10T13175   0.263   3.375   7.321 -0.4027 -0.0297 -2.9249
  124OSM   C11S13176   0.434   3.302   7.431 -0.8248  0.2095  0.3410
  124OSM   H11S13177   0.522   3.365   7.409 -1.8414  1.6029  0.1861
  124OSM   H11T13178   0.466   3.200   7.462 -2.0819 -0.2816  0.0880
  124OSM   C12S13179   0.359   3.367   7.547  0.2478 -0.2566  0.0468
  124OSM   H12S13180   0.281   3.290   7.569  1.8112 -1.3724  1.7662
  124OSM   H12T13181   0.303   3.460   7.520 -2.1380 -1.3263  1.1518
  124OSM   C13S13182   0.447   3.389   7.668 -0.5266 -0.0274 -0.3376
  124OSM   H13S13183   0.528   3.449   7.624  1.4817 -3.3993 -1.4130
  124OSM   H13T13184   0.502   3.294   7.682  0.3165  0.8141  2.2399
  124OSM   C14S13185   0.377   3.464   7.790 -1.1892  0.4028  0.3576
  124OSM   H14S13186   0.298   3.394   7.826 -0.9701 -0.6166 -1.0790
  124OSM   H14T13187   0.338   3.559   7.748  1.7455  1.2130 -0.7090
  124OSM   C15S13188   0.476   3.485   7.902  0.5171 -0.6141 -0.2087
  124OSM   H15S13189   0.436   3.558   7.975 -0.2813 -0.0372 -1.2079
  124OSM   H15T13190   0.566   3.539   7.865 -0.4084  0.5790 -0.7582
  124OSM   C16S13191   0.511   3.364   7.980  0.6727  0.0668  0.1228
  124OSM   H16S13192   0.593   3.388   8.051 -0.8735  3.0079  1.0054
  124OSM   H16T13193   0.551   3.285   7.913  2.4962  1.2386 -0.2159
  124OSM   C17S13194   0.398   3.299   8.071 -0.3081 -0.7286  0.0986
  124OSM   H17S13195   0.314   3.371   8.067  0.8059  0.5286 -1.4659
  124OSM   H17T13196   0.431   3.303   8.177  0.3216  0.1963 -0.1187
  124OSM   C18S13197   0.357   3.156   8.042  0.0340 -0.0975 -0.1681
  124OSM   H18S13198   0.435   3.077   8.038  1.9207  1.6836  0.1897
  124OSM   H18T13199   0.300   3.140   7.948  0.0290 -2.8282  0.2445
  124OSM   H18U13200   0.294   3.131   8.130 -1.2151  0.9936 -0.7372
  124OSM    C1F13201   0.543   3.592   6.562  0.2193 -0.2177  0.1581
  124OSM     OF13202   0.433   3.614   6.524  0.6209  0.2534 -0.1625
  124OSM    C2F13203   0.647   3.685   6.612  0.3447  0.6434 -0.4392
  124OSM    H2F13204   0.651   3.772   6.543  0.2534 -1.9610 -3.8920
  124OSM    H2G13205   0.745   3.634   6.605 -0.2212 -0.3431 -1.3206
  124OSM    C3F13206   0.611   3.741   6.758 -0.5537  0.2181 -0.7476
  124OSM    H3F13207   0.538   3.825   6.752 -0.8716  0.0514  0.4767
  124OSM    H3G13208   0.697   3.786   6.813 -2.1241  2.1857  0.1609
  124OSM    C4F13209   0.562   3.636   6.857  0.5837 -0.8370 -0.8166
  124OSM    H4F13210   0.641   3.565   6.888 -0.3156 -0.7057  1.8284
  124OSM    H4G13211   0.483   3.573   6.809 -1.0181 -1.3026  2.2919
  124OSM    C5F13212   0.494   3.694   6.984 -0.3775  0.3569  0.3843
  124OSM    H5F13213   0.408   3.632   7.018  1.2931 -1.6470  1.0238
  124OSM    H5G13214   0.448   3.794   6.963  0.2216  0.6605  0.5168
  124OSM    C6F13215   0.602   3.707   7.091  0.1434 -0.3233  0.2297
  124OSM    H6F13216   0.706   3.718   7.053  0.0321  1.9217  0.4906
  124OSM    H6G13217   0.608   3.615   7.153  0.2613  0.9326  2.1024
  124OSM    C7F13218   0.578   3.824   7.184  0.5779  0.8446  0.0206
  124OSM    H7F13219   0.566   3.910   7.114  0.5803 -0.7110 -1.9524
  124OSM    H7G13220   0.666   3.833   7.251 -0.0579 -1.5482  1.2305
  124OSM    C8F13221   0.438   3.830   7.257  0.4513 -0.8195  0.0290
  124OSM    H8F13222   0.358   3.820   7.181  0.1571 -0.1688  0.2502
  124OSM    H8G13223   0.427   3.930   7.304 -1.0918 -0.4456 -1.0939
  124OSM    C9F13224   0.423   3.718   7.362  0.2693  0.4055  0.1454
  124OSM    H9F13225   0.389   3.628   7.308 -0.8837 -0.1710  1.8139
  124OSM   C10F13226   0.453   3.724   7.492  0.0291  0.3607 -0.1016
  124OSM   H10F13227   0.436   3.640   7.560  0.5425  1.0576  0.8987
  124OSM   C11F13228   0.495   3.852   7.556  0.1190  0.3511 -0.3073
  124OSM   H11F13229   0.449   3.943   7.510 -1.9865 -1.1665 -1.2722
  124OSM   H11G13230   0.606   3.859   7.554  0.0510  1.4389 -1.2600
  124OSM   C12F13231   0.460   3.865   7.701  0.7495 -0.1493 -0.0344
  124OSM   H12F13232   0.500   3.963   7.732 -0.4942  1.4106 -3.1367
  124OSM   H12G13233   0.517   3.785   7.752 -0.8044 -1.4137 -0.2213
  124OSM   C13F13234   0.304   3.860   7.732  0.0849 -0.1888  0.4884
  124OSM   H13F13235   0.264   3.765   7.692  0.0294  1.2811 -3.1368
  124OSM   H13G13236   0.265   3.950   7.681  3.8382  2.0947  1.4329
  124OSM   C14F13237   0.259   3.875   7.884 -0.2200 -0.1866  0.6652
  124OSM   H14F13238   0.324   3.810   7.947  2.2297  2.6915  1.2266
  124OSM   H14G13239   0.151   3.851   7.895  0.0069 -0.5976  2.0870
  124OSM   C15F13240   0.278   4.020   7.917 -0.4787  0.1752  0.7360
  124OSM   H15F13241   0.198   4.075   7.862 -1.1733 -0.1878  1.3788
  124OSM   H15G13242   0.376   4.057   7.880  0.9545 -1.3218  2.9705
  124OSM   C16F13243   0.274   4.056   8.062  0.7273 -0.2850  0.1504
  124OSM   H16F13244   0.366   4.028   8.117  0.7724 -1.4008 -0.4864
  124OSM   H16G13245   0.196   3.993   8.109  0.4878 -1.1192 -1.3301
  124OSM   C17F13246   0.241   4.206   8.084 -0.3538  0.1692 -0.3029
  124OSM   H17F13247   0.171   4.230   8.001 -0.4788 -0.9743 -0.5379
  124OSM   H17G13248   0.330   4.270   8.069  0.8641 -1.8966 -2.1691
  124OSM   C18F13249   0.169   4.240   8.215  0.7225 -0.0590  0.3327
  124OSM   H18F13250   0.198   4.336   8.262 -0.3351  2.0505 -3.1934
  124OSM   H18G13251   0.170   4.154   8.286  1.4856 -0.7171 -0.4665
  124OSM   H18H13252   0.061   4.247   8.191  0.7938  1.3442  0.4029
  125OSM      N13253   3.317   2.974   6.125  0.4899  0.4473  0.1969
  125OSM    C1513254   3.177   3.025   6.106  0.4014  0.0622  0.2363
  125OSM   H15A13255   3.114   3.005   6.191 -1.3136 -2.4222 -1.5284
  125OSM   H15B13256   3.130   2.994   6.013  0.8056  0.4174 -0.0866
  125OSM   H15C13257   3.177   3.133   6.098 -0.9314  0.0316 -0.3738
  125OSM    C1413258   3.409   3.012   6.014 -0.7945  0.0718 -0.1150
  125OSM   H14A13259   3.497   2.951   5.999 -1.2172 -0.3384 -0.9447
  125OSM   H14B13260   3.445   3.114   6.019 -2.7026  0.7241  0.8059
  125OSM   H14C13261   3.350   2.990   5.926  0.6681  0.4766 -1.2209
  125OSM    C1313262   3.361   3.043   6.253 -0.0221 -0.2621  0.9776
  125OSM   H13A13263   3.459   3.009   6.285 -0.3716 -0.2576  2.0978
  125OSM   H13B13264   3.299   3.015   6.337 -0.0410  0.5697  1.2448
  125OSM   H13C13265   3.360   3.149   6.234  0.8392 -0.2398  1.0160
  125OSM    C1213266   3.318   2.824   6.150  0.2644  0.3460 -0.3973
  125OSM   H12A13267   3.264   2.798   6.239  2.9998  0.0338  1.2182
  125OSM   H12B13268   3.421   2.799   6.175 -0.3857 -0.8723  1.1315
  125OSM    C1113269   3.264   2.738   6.032 -0.1574  0.3619 -0.2494
  125OSM   H11A13270   3.282   2.630   6.051  0.2984  0.0782 -2.1159
  125OSM   H11B13271   3.320   2.757   5.938 -0.7450 -0.8618 -0.8653
  125OSM      P13272   3.021   2.683   6.117  0.1287  0.1037 -0.1691
  125OSM    O1313273   2.881   2.727   6.110  0.4854  0.0329 -0.3872
  125OSM    O1413274   3.040   2.539   6.096  0.0399  0.5445  0.3414
  125OSM    O1113275   3.070   2.716   6.266 -0.0615 -0.0355  0.1213
  125OSM    O1213276   3.123   2.757   6.015  0.3857 -0.1239  0.0372
  125OSM    C1S13277   2.998   2.668   6.377  0.1490  0.5931  0.0086
  125OSM    H1S13278   3.010   2.558   6.382 -1.2393  0.2330 -3.2503
  125OSM    H1T13279   2.890   2.684   6.358 -0.2813 -0.2319  1.7369
  125OSM     NF13280   2.958   2.658   6.614  0.9257 -0.3256 -0.5179
  125OSM    HNF13281   2.864   2.691   6.622  1.1625  0.5856 -1.4127
  125OSM    C2S13282   3.040   2.731   6.512  0.0740 -0.2083  0.2054
  125OSM    H2S13283   3.147   2.711   6.533 -0.0137 -1.8377 -0.8069
  125OSM    C3S13284   3.020   2.884   6.512 -0.4489  0.3326  0.3731
  125OSM    H3S13285   2.910   2.901   6.514 -0.1207  2.6130  0.6788
  125OSM     O313286   3.073   2.938   6.398 -0.0522  0.0619 -0.2603
  125OSM    HO313287   3.090   2.859   6.346  1.0457  0.2351 -0.1712
  125OSM    C4S13288   3.076   2.955   6.639 -0.1719  0.4386  0.1949
  125OSM    H4S13289   3.000   2.967   6.718  0.0293 -0.0082  0.4577
  125OSM    C5S13290   3.200   3.002   6.663 -0.5564  0.5383  0.1502
  125OSM    H5S13291   3.274   2.994   6.582 -0.3833 -1.0731  0.4509
  125OSM    C6S13292   3.245   3.080   6.789 -0.4255  0.2715  0.1754
  125OSM    H6S13293   3.247   3.188   6.763 -1.4060 -0.1163 -1.6291
  125OSM    H6T13294   3.349   3.053   6.818  0.3521  0.7658 -2.0129
  125OSM    C7S13295   3.154   3.079   6.911  0.0746  0.0877 -0.4216
  125OSM    H7S13296   3.159   2.974   6.947 -1.1574 -0.1490 -0.9045
  125OSM    H7T13297   3.049   3.106   6.886  1.4700  1.9832 -4.7992
  125OSM    C8S13298   3.200   3.163   7.030 -0.0655  0.0117 -0.7797
  125OSM    H8S13299   3.191   3.272   7.009 -4.7151  0.2703  1.9455
  125OSM    H8T13300   3.310   3.157   7.046  0.2850  2.5348 -1.8965
  125OSM    C9S13301   3.130   3.118   7.156 -0.1115  0.2455 -0.1161
  125OSM    H9S13302   3.160   3.019   7.197  0.4331  0.3659 -0.2138
  125OSM    H9T13303   3.020   3.120   7.147 -0.2720  0.2525  1.5551
  125OSM   C10S13304   3.174   3.218   7.266  0.4251 -0.0068 -0.1203
  125OSM   H10S13305   3.138   3.320   7.242  0.2689  0.1683  0.8339
  125OSM   H10T13306   3.283   3.230   7.279  0.2206  2.8373 -0.7773
  125OSM   C11S13307   3.107   3.166   7.394 -0.2152 -0.1550  0.6734
  125OSM   H11S13308   3.139   3.063   7.419  1.8082  0.0925 -0.7467
  125OSM   H11T13309   2.997   3.176   7.380 -0.2006  0.0346  0.6919
  125OSM   C12S13310   3.135   3.260   7.519 -0.0495 -0.0118 -0.2940
  125OSM   H12S13311   3.085   3.359   7.509 -0.4800  0.0543  2.1704
  125OSM   H12T13312   3.242   3.286   7.537 -0.3774  1.0353  0.1706
  125OSM   C13S13313   3.071   3.206   7.648  0.1565 -0.5861 -0.9449
  125OSM   H13S13314   3.099   3.103   7.677  1.6489  0.0892  0.1207
  125OSM   H13T13315   2.962   3.210   7.631  0.4245 -0.0373 -2.6104
  125OSM   C14S13316   3.096   3.295   7.773  0.6709 -0.0273 -0.9901
  125OSM   H14S13317   3.024   3.379   7.769  0.3543 -0.2889 -0.8432
  125OSM   H14T13318   3.197   3.339   7.782  0.7136 -0.5646  1.3314
  125OSM   C15S13319   3.081   3.226   7.910 -1.0158 -0.0131  0.1977
  125OSM   H15S13320   3.170   3.167   7.940 -0.8527  0.1562  0.0513
  125OSM   H15T13321   3.001   3.150   7.897 -3.2672  2.3005  0.2594
  125OSM   C16S13322   3.048   3.320   8.026  0.2240 -0.2724 -0.3782
  125OSM   H16S13323   2.957   3.381   8.007 -0.0032 -0.4894  0.0101
  125OSM   H16T13324   3.135   3.388   8.023 -1.7423  2.3921  0.9310
  125OSM   C17S13325   3.031   3.256   8.161  0.0800  0.1108  1.6578
  125OSM   H17S13326   3.114   3.182   8.158 -1.2317 -1.3618  0.3629
  125OSM   H17T13327   2.942   3.191   8.176  0.1869 -0.9270 -1.7186
  125OSM   C18S13328   3.046   3.348   8.278 -0.6575 -0.4387 -0.3109
  125OSM   H18S13329   3.047   3.286   8.370 -0.7819 -0.0330 -0.0360
  125OSM   H18T13330   2.960   3.417   8.288 -1.3067 -1.0289 -1.6780
  125OSM   H18U13331   3.138   3.411   8.281 -0.7367 -0.3566  0.4765
  125OSM    C1F13332   2.982   2.534   6.650  0.8998  0.1163  0.0260
  125OSM     OF13333   3.072   2.469   6.605  0.5390  0.1705  0.3881
  125OSM    C2F13334   2.884   2.479   6.747 -0.0231 -0.5406 -0.9129
  125OSM    H2F13335   2.827   2.390   6.713 -0.5608 -0.9770  1.0834
  125OSM    H2G13336   2.805   2.557   6.758  0.1962 -0.3419 -0.7345
  125OSM    C3F13337   2.960   2.451   6.877 -0.7896  0.6035  0.2248
  125OSM    H3F13338   3.007   2.544   6.918  0.6084 -0.3416  0.7990
  125OSM    H3G13339   3.043   2.379   6.862 -1.6091 -0.2823 -0.0314
  125OSM    C4F13340   2.879   2.388   6.997 -0.2205 -0.4601 -0.0417
  125OSM    H4F13341   2.861   2.279   6.989  1.8988 -0.9907  1.9426
  125OSM    H4G13342   2.778   2.433   7.007  1.0708  2.8504 -1.1868
  125OSM    C5F13343   2.954   2.404   7.125 -0.4288  0.5277  0.1817
  125OSM    H5F13344   2.992   2.508   7.129 -4.0096  1.8302  1.9836
  125OSM    H5G13345   3.047   2.343   7.124 -0.1702  0.8544  1.8769
  125OSM    C6F13346   2.876   2.355   7.255  0.2412 -0.2990  0.0238
  125OSM    H6F13347   2.826   2.258   7.235  1.5131 -0.2481 -3.8383
  125OSM    H6G13348   2.798   2.431   7.280 -0.2931 -0.9898  0.4791
  125OSM    C7F13349   2.954   2.366   7.389  0.3807 -0.7980 -0.3348
  125OSM    H7F13350   3.004   2.465   7.393 -0.9061 -0.1766  0.7862
  125OSM    H7G13351   3.040   2.301   7.359 -0.3018 -1.8425 -0.0704
  125OSM    C8F13352   2.888   2.322   7.514 -0.4202  0.5179 -0.6631
  125OSM    H8F13353   2.834   2.229   7.485 -0.8089  0.1164  1.2959
  125OSM    H8G13354   2.808   2.398   7.530  0.9485  2.1919 -1.6162
  125OSM    C9F13355   2.975   2.307   7.634  0.1645 -0.1918 -0.6006
  125OSM    H9F13356   3.000   2.402   7.683 -0.1876 -0.2682 -0.2747
  125OSM   C10F13357   3.028   2.200   7.690 -0.1310 -0.2219 -1.0950
  125OSM   H10F13358   3.092   2.218   7.778 -1.3426  2.7107 -0.7512
  125OSM   C11F13359   3.005   2.059   7.645  0.4090 -0.8079  0.1346
  125OSM   H11F13360   2.949   2.057   7.549 -0.1990 -1.2923  0.4971
  125OSM   H11G13361   2.947   2.013   7.728  1.4000  0.6941  1.6898
  125OSM   C12F13362   3.134   1.986   7.629 -0.1835 -0.4171 -0.2495
  125OSM   H12F13363   3.114   1.878   7.618 -0.6406 -0.5521  1.7142
  125OSM   H12G13364   3.187   2.000   7.726 -0.0853  0.6611 -0.4521
  125OSM   C13F13365   3.225   2.053   7.519 -0.2931  0.0618  0.0870
  125OSM   H13F13366   3.327   2.010   7.524  0.0825  0.8740 -0.5431
  125OSM   H13G13367   3.220   2.163   7.528 -1.3634 -0.0296  0.6994
  125OSM   C14F13368   3.182   2.019   7.374 -0.0510  0.7309  0.1019
  125OSM   H14F13369   3.087   2.072   7.348  0.8128  2.8211  1.0609
  125OSM   H14G13370   3.165   1.910   7.376 -0.3056  0.7288 -1.2238
  125OSM   C15F13371   3.290   2.052   7.274 -0.5858  0.1125  0.3331
  125OSM   H15F13372   3.393   2.021   7.302 -0.4082  1.6675  1.4412
  125OSM   H15G13373   3.297   2.163   7.268 -1.2166  0.1908  1.0076
  125OSM   C16F13374   3.253   1.994   7.133  0.2665 -0.3593 -0.4057
  125OSM   H16F13375   3.148   2.025   7.113 -0.1703 -1.2708  0.4171
  125OSM   H16G13376   3.250   1.883   7.131  0.0178 -0.3902  1.0156
  125OSM   C17F13377   3.335   2.059   7.013 -0.1426  0.5045  0.1606
  125OSM   H17F13378   3.312   2.019   6.912 -1.2389  0.5878  0.3665
  125OSM   H17G13379   3.441   2.031   7.028  0.1752  0.6749 -1.6365
  125OSM   C18F13380   3.323   2.210   6.999 -0.4953  0.0655 -0.4013
  125OSM   H18F13381   3.300   2.270   7.089 -0.0172 -1.8336  1.0157
  125OSM   H18G13382   3.242   2.239   6.929  2.2272  2.4863 -2.7157
  125OSM   H18H13383   3.414   2.262   6.960 -1.6675  2.3475 -0.1736
  126OSM      N13384   0.824   6.516   6.573 -1.0834 -0.0732  0.0443
  126OSM    C1513385   0.871   6.409   6.478 -0.2952 -0.4447 -0.2144
  126OSM   H15A13386   0.920   6.335   6.539  0.4400 -0.0984 -0.3782
  126OSM   H15B13387   0.941   6.439   6.402  2.7722 -0.8069  2.3618
  126OSM   H15C13388   0.786   6.379   6.420 -1.9667 -0.1036  1.9720
  126OSM    C1413389   0.947   6.549   6.652  0.3861 -0.4160  0.2695
  126OSM   H14A13390   0.931   6.618   6.734  1.0375  0.7867 -0.6054
  126OSM   H14B13391   1.023   6.594   6.590 -1.0036 -1.2827 -2.1709
  126OSM   H14C13392   0.990   6.460   6.694  2.0727  0.9903  1.5881
  126OSM    C1313393   0.794   6.637   6.483  0.1429  0.0552  0.8447
  126OSM   H13A13394   0.701   6.613   6.435  0.8714 -1.6307  0.2411
  126OSM   H13B13395   0.866   6.665   6.408 -2.1944  1.7001 -0.8610
  126OSM   H13C13396   0.772   6.720   6.549 -1.1624  2.5124 -2.5474
  126OSM    C1213397   0.702   6.467   6.654  0.4973  0.1168 -0.1384
  126OSM   H12A13398   0.684   6.530   6.740  1.0330 -1.3275  1.0543
  126OSM   H12B13399   0.723   6.369   6.694  0.6801  0.9660  1.8741
  126OSM    C1113400   0.565   6.434   6.577 -0.2134  0.0539 -0.2022
  126OSM   H11A13401   0.488   6.377   6.633 -1.9289  1.8321 -0.6946
  126OSM   H11B13402   0.585   6.370   6.489  2.7735  0.9526 -0.2313
  126OSM      P13403   0.432   6.656   6.630  0.5668 -0.0691 -0.7719
  126OSM    O1313404   0.485   6.793   6.608  0.0761 -0.2412 -0.2085
  126OSM    O1413405   0.283   6.639   6.600  0.2793 -1.1095 -0.3387
  126OSM    O1113406   0.451   6.605   6.778 -0.1963  0.3992 -0.4149
  126OSM    O1213407   0.509   6.557   6.538  0.0998 -0.3469  0.4781
  126OSM    C1S13408   0.356   6.529   6.849 -0.1372  0.4165 -0.0658
  126OSM    H1S13409   0.393   6.424   6.850 -1.5689 -0.1609 -2.6322
  126OSM    H1T13410   0.253   6.534   6.808 -0.6353 -1.5827  0.8640
  126OSM     NF13411   0.236   6.491   7.061  0.4764  0.4917 -0.0991
  126OSM    HNF13412   0.146   6.533   7.052 -0.5785 -1.5649  0.5642
  126OSM    C2S13413   0.340   6.571   7.000 -0.4627 -0.7084  0.7047
  126OSM    H2S13414   0.432   6.542   7.056 -0.8800 -2.1190  0.6822
  126OSM    C3S13415   0.318   6.721   7.021  0.4090  0.5028  0.3980
  126OSM    H3S13416   0.208   6.739   7.016  0.1397 -0.5104  2.0640
  126OSM     O313417   0.384   6.812   6.933  0.1861  0.0029  0.1566
  126OSM    HO313418   0.398   6.746   6.865 -0.5341  0.8053 -0.7831
  126OSM    C4S13419   0.345   6.755   7.165 -0.5316  0.2784  0.6271
  126OSM    H4S13420   0.446   6.794   7.183  0.1795 -0.3222 -1.8666
  126OSM    C5S13421   0.253   6.788   7.259  0.4255 -0.0629 -0.1511
  126OSM    H5S13422   0.146   6.804   7.243  0.3026 -2.4095 -1.8897
  126OSM    C6S13423   0.293   6.839   7.396  0.7059  0.3990  0.2075
  126OSM    H6S13424   0.229   6.926   7.422 -1.5933 -1.3197  0.4581
  126OSM    H6T13425   0.401   6.864   7.391  1.1559 -1.8141 -2.5326
  126OSM    C7S13426   0.270   6.731   7.496 -0.2131 -0.4575  0.3631
  126OSM    H7S13427   0.323   6.643   7.453 -1.6197 -0.5670 -1.2242
  126OSM    H7T13428   0.161   6.712   7.504 -0.5445  0.0576 -2.4726
  126OSM    C8S13429   0.340   6.764   7.630  0.3413  0.2007  0.2195
  126OSM    H8S13430   0.318   6.871   7.653  0.8378  0.1861  0.7780
  126OSM    H8T13431   0.447   6.770   7.602  0.4417  2.3329  0.9504
  126OSM    C9S13432   0.293   6.668   7.739  0.2485  0.0930 -0.4898
  126OSM    H9S13433   0.296   6.561   7.712 -0.7842 -0.4570  1.4656
  126OSM    H9T13434   0.188   6.681   7.772  1.0074  0.5471  1.8468
  126OSM   C10S13435   0.379   6.666   7.874  0.7399  1.0565 -0.0283
  126OSM   H10S13436   0.486   6.660   7.843  1.3868 -0.0968  2.3572
  126OSM   H10T13437   0.350   6.573   7.927  1.1606  1.6070  1.1854
  126OSM   C11S13438   0.351   6.781   7.970 -0.3815  0.7421  0.1745
  126OSM   H11S13439   0.254   6.783   8.024  0.6517  2.0591  2.0461
  126OSM   H11T13440   0.349   6.883   7.926 -1.4678  1.1500  1.1375
  126OSM   C12S13441   0.451   6.782   8.088  0.5383 -0.3729 -0.0539
  126OSM   H12S13442   0.552   6.807   8.049 -0.8811  3.1694 -1.7217
  126OSM   H12T13443   0.455   6.687   8.145  1.2256  1.4848  3.1690
  126OSM   C13S13444   0.413   6.891   8.190  0.0730 -0.5021 -0.5308
  126OSM   H13S13445   0.305   6.904   8.215  0.8764 -0.9781  3.4198
  126OSM   H13T13446   0.447   6.988   8.148  0.6656 -0.3151  0.3703
  126OSM   C14S13447   0.492   6.866   8.321 -0.2297 -0.2143  0.2539
  126OSM   H14S13448   0.455   6.771   8.367  0.8416 -0.8848 -0.2615
  126OSM   H14T13449   0.475   6.945   8.398  1.9768 -0.8971  1.4846
  126OSM   C15S13450   0.641   6.849   8.306 -0.4197 -0.7001 -0.1084
  126OSM   H15S13451   0.676   6.942   8.257  1.6066 -0.5006  1.6663
  126OSM   H15T13452   0.669   6.760   8.245  0.0084  0.1336 -1.1353
  126OSM   C16S13453   0.713   6.843   8.438  0.0272  0.2055 -0.6721
  126OSM   H16S13454   0.671   6.919   8.506 -0.1535 -3.7700  3.9574
  126OSM   H16T13455   0.821   6.862   8.423  0.0703  1.3472  0.9850
  126OSM   C17S13456   0.704   6.703   8.500  0.3329 -0.0686  0.2808
  126OSM   H17S13457   0.795   6.701   8.564  0.0469  2.4123  0.8035
  126OSM   H17T13458   0.726   6.631   8.418  1.0116  0.1134  0.3030
  126OSM   C18S13459   0.575   6.671   8.576  0.5995  0.1364 -0.0275
  126OSM   H18S13460   0.504   6.597   8.533 -0.9457  0.9794  1.0306
  126OSM   H18T13461   0.524   6.763   8.610  1.0506  0.0437  0.9218
  126OSM   H18U13462   0.610   6.626   8.672  2.9804  0.9878 -0.4685
  126OSM    C1F13463   0.248   6.358   7.088 -0.2579 -0.5294 -0.3590
  126OSM     OF13464   0.349   6.298   7.065 -0.1767 -0.3205 -0.0404
  126OSM    C2F13465   0.132   6.289   7.154  0.0651 -0.0378 -0.2557
  126OSM    H2F13466   0.127   6.187   7.109  1.0657  0.1857 -0.9104
  126OSM    H2G13467   0.037   6.345   7.146 -0.9469 -1.3557  2.1519
  126OSM    C3F13468   0.151   6.254   7.302  0.2579  0.1577  0.3251
  126OSM    H3F13469   0.247   6.204   7.329 -0.3457  0.0971  2.4420
  126OSM    H3G13470   0.066   6.193   7.338  1.2971 -2.1867 -1.1107
  126OSM    C4F13471   0.158   6.390   7.381 -0.1942 -0.0630  0.5750
  126OSM    H4F13472   0.091   6.464   7.333  0.3700  0.3123  0.3497
  126OSM    H4G13473   0.253   6.446   7.365 -0.2732 -0.9646 -3.5545
  126OSM    C5F13474   0.116   6.385   7.537  0.0306 -0.3723  0.2907
  126OSM    H5F13475   0.005   6.381   7.540 -0.0256  1.6534  1.3322
  126OSM    H5G13476   0.142   6.483   7.582  0.0576 -0.2420 -0.0060
  126OSM    C6F13477   0.182   6.273   7.622  0.6221  0.5280  0.0645
  126OSM    H6F13478   0.290   6.281   7.597  0.5141 -0.7458 -0.8514
  126OSM    H6G13479   0.145   6.176   7.583 -0.7751  0.3893  1.6796
  126OSM    C7F13480   0.139   6.290   7.768 -0.3592 -0.0354 -0.2676
  126OSM    H7F13481   0.034   6.322   7.782 -0.3596  0.2768 -0.9891
  126OSM    H7G13482   0.207   6.365   7.815  0.5000 -1.1986  0.3925
  126OSM    C8F13483   0.179   6.155   7.849  0.7001 -0.3418  0.6686
  126OSM    H8F13484   0.125   6.075   7.795  1.4836 -0.6194  0.2760
  126OSM    H8G13485   0.126   6.174   7.944 -1.2992  1.7382 -0.8076
  126OSM    C9F13486   0.324   6.129   7.867 -0.2025 -0.8714  0.6112
  126OSM    H9F13487   0.381   6.099   7.778  2.4197  2.2990  1.1394
  126OSM   C10F13488   0.380   6.135   7.993 -0.1124 -0.4074 -0.1520
  126OSM   H10F13489   0.487   6.115   8.008  0.2412 -0.7423 -2.8565
  126OSM   C11F13490   0.320   6.174   8.124  0.5908 -0.2599  0.1203
  126OSM   H11F13491   0.386   6.140   8.207  2.7403  2.3225 -0.4897
  126OSM   H11G13492   0.226   6.117   8.141 -0.8688  2.1693  0.3813
  126OSM   C12F13493   0.293   6.327   8.139  0.5223  0.2497 -0.3310
  126OSM   H12F13494   0.197   6.342   8.084  0.3405 -1.1166 -0.4142
  126OSM   H12G13495   0.374   6.391   8.097  0.8248  1.1942  1.6637
  126OSM   C13F13496   0.265   6.366   8.275 -0.1375  0.7750 -0.8208
  126OSM   H13F13497   0.349   6.359   8.348 -0.7120  0.2139 -0.2028
  126OSM   H13G13498   0.187   6.300   8.318  0.0037 -0.3535 -2.2900
  126OSM   C14F13499   0.219   6.507   8.279  0.1522  0.2379 -0.0539
  126OSM   H14F13500   0.130   6.517   8.213 -1.2929 -2.3241  1.4076
  126OSM   H14G13501   0.295   6.578   8.241 -0.4850  0.7684 -0.3496
  126OSM   C15F13502   0.192   6.555   8.422  0.6270 -0.1839  0.0771
  126OSM   H15F13503   0.263   6.528   8.503  1.7141 -1.7570 -1.3795
  126OSM   H15G13504   0.088   6.529   8.451 -0.4425  0.4655 -3.0147
  126OSM   C16F13505   0.180   6.708   8.415 -0.7931 -0.0906 -0.0310
  126OSM   H16F13506   0.087   6.725   8.356 -0.8705 -1.1689 -0.2147
  126OSM   H16G13507   0.261   6.750   8.352  0.1491 -2.1665 -0.2262
  126OSM   C17F13508   0.182   6.795   8.544  0.8046  0.0883 -0.1831
  126OSM   H17F13509   0.271   6.771   8.606 -0.3750 -0.8455  1.1714
  126OSM   H17G13510   0.093   6.767   8.604  0.8299  1.7630  0.6731
  126OSM   C18F13511   0.183   6.949   8.517 -0.6726  0.5889  0.4945
  126OSM   H18F13512   0.185   7.000   8.616 -1.5311 -0.2095  0.9318
  126OSM   H18G13513   0.088   6.973   8.465 -0.1009  0.7503 -0.4925
  126OSM   H18H13514   0.275   6.982   8.463  0.2205  2.2628  2.9650
  127OSM      N13515   5.366   0.180   6.157  0.0714  0.5722  0.4300
  127OSM    C1513516   5.220   0.218   6.131 -0.3523  1.0730  0.5695
  127OSM   H15A13517   5.200   0.277   6.043 -0.3700  0.3126  0.0601
  127OSM   H15B13518   5.182   0.271   6.218 -0.1182  2.2097 -0.0157
  127OSM   H15C13519   5.166   0.128   6.104  1.6155 -0.3906  1.3856
  127OSM    C1413520   5.367   0.060   6.245  0.6754  0.7903  0.5348
  127OSM   H14A13521   5.316   0.084   6.337  1.4518 -1.1777  1.5076
  127OSM   H14B13522   5.467   0.030   6.270 -0.4523 -0.5473  3.6289
  127OSM   H14C13523   5.325  -0.027   6.198 -1.1637  1.1931  1.3696
  127OSM    C1313524   5.420   0.140   6.025  0.1514 -0.2995  0.0753
  127OSM   H13A13525   5.521   0.102   6.021 -0.6482 -2.4033 -0.6643
  127OSM   H13B13526   5.424   0.219   5.952  0.8771 -0.9244 -0.5637
  127OSM   H13C13527   5.356   0.060   5.990 -2.5700  2.1393 -0.6873
  127OSM    C1213528   5.445   0.293   6.206 -0.1120  0.2450 -0.1285
  127OSM   H12A13529   5.443   0.364   6.125 -0.6974 -0.5496 -0.8230
  127OSM   H12B13530   5.551   0.277   6.215 -0.4593 -1.6812  0.7688
  127OSM    C1113531   5.404   0.355   6.346 -0.7120  0.5077 -0.0024
  127OSM   H11A13532   5.490   0.421   6.368 -0.5178  0.1453  0.3318
  127OSM   H11B13533   5.409   0.269   6.417  1.1782 -0.0420 -0.7778
  127OSM      P13534   5.253   0.572   6.311  0.1282  0.1553 -0.2205
  127OSM    O1313535   5.377   0.636   6.256 -0.0092 -0.5003 -0.5208
  127OSM    O1413536   5.143   0.573   6.220 -0.3770  0.3077 -0.0745
  127OSM    O1113537   5.203   0.638   6.439  0.3453 -0.0469  0.0758
  127OSM    O1213538   5.271   0.413   6.350  0.0788 -0.5399 -0.4732
  127OSM    C1S13539   5.174   0.568   6.556  0.0659  0.0680  0.8508
  127OSM    H1S13540   5.249   0.488   6.575  1.7972  0.9422 -2.0160
  127OSM    H1T13541   5.071   0.529   6.542  0.1193  0.0505  0.4944
  127OSM     NF13542   5.146   0.577   6.807  0.0274 -0.7615  0.6011
  127OSM    HNF13543   5.047   0.570   6.819  0.0113  0.1014  1.0479
  127OSM    C2S13544   5.177   0.661   6.687 -0.5550 -0.3885 -0.6895
  127OSM    H2S13545   5.282   0.696   6.699 -1.2266  1.0733  1.2594
  127OSM    C3S13546   5.081   0.783   6.677 -0.1638 -0.0547 -0.3532
  127OSM    H3S13547   4.987   0.737   6.639 -0.4339 -2.2070  2.7498
  127OSM     O313548   5.113   0.877   6.576 -0.2659  0.3165 -0.5637
  127OSM    HO313549   5.189   0.840   6.531  0.1199 -0.8581  1.0084
  127OSM    C4S13550   5.070   0.850   6.812  0.0932 -0.6118 -0.2021
  127OSM    H4S13551   4.997   0.815   6.887  0.3410 -1.0465 -0.1619
  127OSM    C5S13552   5.152   0.948   6.853  0.7961 -0.2919  0.0443
  127OSM    H5S13553   5.231   0.980   6.784  2.1482 -1.6365  0.9113
  127OSM    C6S13554   5.148   1.021   6.981 -0.3568  0.1697 -0.3136
  127OSM    H6S13555   5.127   1.128   6.960 -1.1611 -0.1000 -0.9055
  127OSM    H6T13556   5.253   1.022   7.017  0.0930 -0.2726 -1.5709
  127OSM    C7S13557   5.066   0.980   7.103 -0.3320  0.6303 -0.6234
  127OSM    H7S13558   5.098   0.877   7.130  0.1402  1.0182  0.3500
  127OSM    H7T13559   4.957   0.980   7.081  0.0566  0.0810 -2.5777
  127OSM    C8S13560   5.084   1.063   7.231 -0.0118 -0.3365 -0.8977
  127OSM    H8S13561   5.063   1.168   7.204 -1.3350 -0.4923 -0.5293
  127OSM    H8T13562   5.193   1.062   7.247  0.2800 -1.9580 -2.7164
  127OSM    C9S13563   5.007   1.029   7.351  0.0173  0.1439 -1.0242
  127OSM    H9S13564   5.043   0.932   7.392 -2.7059 -1.5632 -2.5946
  127OSM    H9T13565   4.904   0.997   7.325  0.9121 -3.3198 -0.4884
  127OSM   C10S13566   5.024   1.133   7.465  0.1473 -0.2961  0.0425
  127OSM   H10S13567   4.969   1.226   7.441 -1.3805 -1.0975  0.3971
  127OSM   H10T13568   5.130   1.163   7.476 -0.0911  0.5979 -0.0364
  127OSM   C11S13569   4.962   1.096   7.601  0.0959  0.0287  0.6175
  127OSM   H11S13570   4.882   1.023   7.577 -1.8041  2.5022 -0.8114
  127OSM   H11T13571   4.906   1.183   7.642 -1.1916  0.5565 -2.1453
  127OSM   C12S13572   5.052   1.026   7.695 -0.3561  0.8039 -0.1518
  127OSM   H12S13573   5.006   0.991   7.790 -0.1331  2.8567  0.7455
  127OSM   H12T13574   5.114   1.109   7.734  0.1922  0.5325 -0.4421
  127OSM   C13S13575   5.145   0.922   7.633  0.1187  0.0532  0.5472
  127OSM   H13S13576   5.212   0.957   7.552  0.0534 -0.3657  0.3099
  127OSM   H13T13577   5.075   0.846   7.591 -0.7828  0.2051  1.7382
  127OSM   C14S13578   5.244   0.852   7.719  0.0371  0.1979 -0.4577
  127OSM   H14S13579   5.304   0.785   7.654 -0.0063  0.8976 -1.2398
  127OSM   H14T13580   5.182   0.792   7.789 -0.5786  1.4854  0.1179
  127OSM   C15S13581   5.332   0.943   7.810  0.5118 -0.1173 -0.7470
  127OSM   H15S13582   5.267   1.012   7.867  2.9845  2.3209 -0.7811
  127OSM   H15T13583   5.391   1.017   7.753 -2.0312  2.5569 -0.0184
  127OSM   C16S13584   5.411   0.869   7.921 -0.0074 -0.0198 -0.1118
  127OSM   H16S13585   5.487   0.804   7.873 -1.2618 -0.0217 -2.1189
  127OSM   H16T13586   5.328   0.806   7.959 -0.6488  1.1732  0.4748
  127OSM   C17S13587   5.479   0.952   8.026  0.1142  0.8192 -0.1626
  127OSM   H17S13588   5.520   0.878   8.098 -1.5428  0.0063 -0.0357
  127OSM   H17T13589   5.403   1.013   8.080  1.3149  2.2014 -0.0018
  127OSM   C18S13590   5.580   1.058   7.970 -0.7234  0.9801  0.6338
  127OSM   H18S13591   5.638   1.100   8.055 -1.4207  0.8902  1.1543
  127OSM   H18T13592   5.522   1.141   7.924 -0.1069  0.7853 -0.5082
  127OSM   H18U13593   5.652   1.009   7.901 -1.0275  1.2948  0.0824
  127OSM    C1F13594   5.225   0.489   6.856 -1.1160  0.7267 -0.0553
  127OSM     OF13595   5.331   0.458   6.800  0.0219  0.5692  0.7782
  127OSM    C2F13596   5.182   0.422   6.983 -0.2871 -0.5115  0.0881
  127OSM    H2F13597   5.246   0.333   7.003 -0.2606  0.1485  3.2191
  127OSM    H2G13598   5.079   0.382   6.972 -0.5504  0.2994 -0.4878
  127OSM    C3F13599   5.203   0.498   7.111  0.7828 -1.0194 -0.0310
  127OSM    H3F13600   5.146   0.591   7.090  1.4987 -1.3665 -4.0871
  127OSM    H3G13601   5.306   0.538   7.124  0.8988 -1.5913  0.8124
  127OSM    C4F13602   5.168   0.415   7.229 -0.4489 -0.7739  0.5370
  127OSM    H4F13603   5.222   0.318   7.235 -2.3082 -1.8227  0.7106
  127OSM    H4G13604   5.060   0.396   7.213 -0.6648  0.8882 -0.0909
  127OSM    C5F13605   5.187   0.507   7.347 -0.4085 -0.0911 -0.4977
  127OSM    H5F13606   5.140   0.608   7.346 -2.4815 -0.9830  1.5510
  127OSM    H5G13607   5.293   0.520   7.377 -0.3043 -0.0091 -0.8954
  127OSM    C6F13608   5.118   0.433   7.462 -0.3836 -0.1785 -0.5400
  127OSM    H6F13609   5.152   0.328   7.453  0.8028  0.3236 -2.2142
  127OSM    H6G13610   5.008   0.446   7.461 -0.7208 -2.5548  1.4205
  127OSM    C7F13611   5.164   0.493   7.598  0.3968 -0.1122  0.0971
  127OSM    H7F13612   5.131   0.599   7.603  1.5045  0.2051  0.9649
  127OSM    H7G13613   5.275   0.490   7.606  0.5348  1.3063 -0.9935
  127OSM    C8F13614   5.100   0.418   7.719  0.0549  0.5287  0.3780
  127OSM    H8F13615   4.991   0.419   7.702 -0.0045 -2.9326  0.3665
  127OSM    H8G13616   5.123   0.476   7.811  0.4400 -1.7864  1.7771
  127OSM    C9F13617   5.158   0.281   7.746 -0.0488  0.4487 -0.0053
  127OSM    H9F13618   5.233   0.255   7.670 -0.2441  0.1744 -0.1037
  127OSM   C10F13619   5.120   0.202   7.846  0.7318  1.0408  0.0076
  127OSM   H10F13620   5.182   0.115   7.873 -0.8305 -0.7547 -2.0029
  127OSM   C11F13621   5.009   0.226   7.950 -0.3154  0.2539  0.1793
  127OSM   H11F13622   4.918   0.172   7.916 -0.2614 -0.3356  0.9623
  127OSM   H11G13623   4.980   0.333   7.957  1.8168  1.0445 -2.1842
  127OSM   C12F13624   5.037   0.181   8.096 -0.4556 -0.4166  0.5026
  127OSM   H12F13625   5.100   0.258   8.145 -0.3808 -1.4692  2.0789
  127OSM   H12G13626   5.085   0.082   8.086  0.7528  0.2762 -0.7488
  127OSM   C13F13627   4.900   0.160   8.169  0.7956 -0.7524  0.3874
  127OSM   H13F13628   4.933   0.107   8.260  0.3522  1.1512  1.6807
  127OSM   H13G13629   4.842   0.097   8.099  0.7104  0.7583 -0.9439
  127OSM   C14F13630   4.821   0.289   8.194  0.2188  0.2818 -0.1736
  127OSM   H14F13631   4.790   0.344   8.102 -0.3311  2.3238  1.2095
  127OSM   H14G13632   4.886   0.360   8.249 -2.3647  2.3234  0.3089
  127OSM   C15F13633   4.688   0.279   8.266  0.7615 -0.8965 -0.2015
  127OSM   H15F13634   4.661   0.379   8.306 -0.5641 -1.3350  0.0146
  127OSM   H15G13635   4.700   0.205   8.348  0.4062  0.9278  1.5450
  127OSM   C16F13636   4.580   0.234   8.170  0.6886  0.0625 -0.0758
  127OSM   H16F13637   4.625   0.147   8.118  0.3089  1.4938 -2.8586
  127OSM   H16G13638   4.571   0.308   8.088  0.7406 -1.6174 -1.6420
  127OSM   C17F13639   4.440   0.203   8.238  0.1818 -0.1707 -0.0275
  127OSM   H17F13640   4.453   0.134   8.325  4.5154 -0.5235 -0.8290
  127OSM   H17G13641   4.376   0.151   8.163  0.4562 -1.6324  0.7132
  127OSM   C18F13642   4.373   0.330   8.283 -1.0318 -0.0450 -0.1129
  127OSM   H18F13643   4.428   0.370   8.371 -0.3097 -0.3647 -0.4107
  127OSM   H18G13644   4.269   0.301   8.307 -0.7495 -2.2210 -1.3967
  127OSM   H18H13645   4.363   0.403   8.199 -0.0608  0.9694  0.6318
  128OSM      N13646   5.733   3.922   5.877 -0.1207  0.1565  0.0720
  128OSM    C1513647   5.820   4.042   5.910  0.8092  0.0122  0.4190
  128OSM   H15A13648   5.922   4.013   5.930  0.6982 -0.1013  0.8287
  128OSM   H15B13649   5.785   4.094   5.998 -0.4864 -1.0264  0.5416
  128OSM   H15C13650   5.819   4.113   5.829 -0.5423  0.8776  1.1804
  128OSM    C1413651   5.788   3.859   5.753 -0.4720  0.3772  0.2698
  128OSM   H14A13652   5.798   3.922   5.666 -0.4516 -0.9167 -0.6697
  128OSM   H14B13653   5.724   3.778   5.722  0.7343 -1.4224  2.3266
  128OSM   H14C13654   5.888   3.823   5.768 -1.2327 -1.4617  0.9910
  128OSM    C1313655   5.740   3.825   5.990 -0.1931 -0.9314  0.2048
  128OSM   H13A13656   5.672   3.741   5.984 -1.5144 -0.0466  2.3363
  128OSM   H13B13657   5.721   3.875   6.083 -2.1950  0.9888 -1.2032
  128OSM   H13C13658   5.838   3.780   6.003  0.5431  0.4027 -0.5963
  128OSM    C1213659   5.583   3.958   5.852  0.4025  0.1241  0.1346
  128OSM   H12A13660   5.536   3.872   5.807  0.4048  0.4522 -0.5004
  128OSM   H12B13661   5.581   4.040   5.782  1.9000 -0.5056 -0.6743
  128OSM    C1113662   5.497   3.988   5.978 -0.1123 -0.7103  0.3124
  128OSM   H11A13663   5.497   3.897   6.042 -0.4007  0.7963  2.5386
  128OSM   H11B13664   5.391   4.007   5.953 -0.0260 -0.7532 -0.0861
  128OSM      P13665   5.515   4.245   6.049 -0.4876  0.2365  0.2734
  128OSM    O1313666   5.630   4.325   6.105  0.4504 -0.7070 -0.2086
  128OSM    O1413667   5.473   4.271   5.913 -0.2266 -0.9047 -0.6107
  128OSM    O1113668   5.390   4.272   6.138 -0.3069 -0.1809  0.8573
  128OSM    O1213669   5.549   4.093   6.057 -0.2073  0.3938  0.3141
  128OSM    C1S13670   5.358   4.214   6.257  0.6751  0.4944 -1.5331
  128OSM    H1S13671   5.394   4.109   6.251 -0.4654 -0.2082  2.7099
  128OSM    H1T13672   5.247   4.213   6.264  0.7485 -2.7900  0.3510
  128OSM     NF13673   5.374   4.207   6.499 -0.7338  0.3189 -0.4826
  128OSM    HNF13674   5.304   4.243   6.560  0.5562  3.1734 -0.6360
  128OSM    C2S13675   5.403   4.291   6.386  0.1982  0.0150  1.1455
  128OSM    H2S13676   5.514   4.294   6.377  0.1605 -3.4931 -1.7920
  128OSM    C3S13677   5.348   4.431   6.388  0.4973  0.7440  0.8444
  128OSM    H3S13678   5.239   4.431   6.368  0.9726 -1.3923 -2.2355
  128OSM     O313679   5.412   4.505   6.280  0.0970 -0.2379 -0.0698
  128OSM    HO313680   5.433   4.427   6.228 -0.1752  0.4971 -1.3039
  128OSM    C4S13681   5.376   4.506   6.513 -0.7364 -0.2867  0.1838
  128OSM    H4S13682   5.479   4.481   6.543  0.2127  0.2824 -2.4953
  128OSM    C5S13683   5.297   4.594   6.579  0.0184  1.2980  1.0792
  128OSM    H5S13684   5.199   4.608   6.532  0.3684 -0.9415 -0.4323
  128OSM    C6S13685   5.321   4.672   6.705 -0.4744  0.0008  0.9323
  128OSM    H6S13686   5.254   4.645   6.790 -0.2243  1.1141  1.5062
  128OSM    H6T13687   5.301   4.780   6.686 -3.2147 -0.3908  1.2946
  128OSM    C7S13688   5.460   4.647   6.778 -0.3745  0.0291 -0.3297
  128OSM    H7S13689   5.538   4.666   6.701 -0.1114  0.3270  0.0103
  128OSM    H7T13690   5.467   4.540   6.807 -0.1404  0.3944  0.9596
  128OSM    C8S13691   5.481   4.741   6.896  0.0670  0.0895  0.0121
  128OSM    H8S13692   5.462   4.844   6.858 -1.7283 -0.4032 -0.4746
  128OSM    H8T13693   5.589   4.737   6.920 -0.4693  0.4526  2.6305
  128OSM    C9S13694   5.398   4.715   7.027  0.0548  0.3164  0.0769
  128OSM    H9S13695   5.389   4.607   7.052  0.5045  0.4408  0.7738
  128OSM    H9T13696   5.295   4.756   7.031  0.2385  0.6468  1.5099
  128OSM   C10S13697   5.481   4.772   7.145  0.3870 -0.0895  0.4168
  128OSM   H10S13698   5.478   4.883   7.148 -1.1612 -0.0676 -1.4014
  128OSM   H10T13699   5.582   4.740   7.111  0.8344 -1.3312  2.8032
  128OSM   C11S13700   5.457   4.712   7.283  1.2402  0.0737 -0.2833
  128OSM   H11S13701   5.521   4.760   7.361 -2.5188  1.1969  2.2357
  128OSM   H11T13702   5.482   4.604   7.286 -2.7654 -0.9041  1.9200
  128OSM   C12S13703   5.314   4.714   7.342 -0.1985 -0.4218  0.5826
  128OSM   H12S13704   5.250   4.663   7.267 -0.8148 -1.5109  1.8238
  128OSM   H12T13705   5.274   4.817   7.350 -0.0902 -0.3238 -0.1229
  128OSM   C13S13706   5.305   4.635   7.477 -0.3387  0.7191  0.3468
  128OSM   H13S13707   5.394   4.569   7.487 -0.6558  0.1854 -0.3642
  128OSM   H13T13708   5.223   4.561   7.475  0.2336  0.0983 -0.2546
  128OSM   C14S13709   5.286   4.724   7.594 -0.3929 -0.3352 -0.2832
  128OSM   H14S13710   5.177   4.743   7.595 -0.2068  0.7290  0.1746
  128OSM   H14T13711   5.341   4.818   7.573 -0.2853  0.3734  2.9586
  128OSM   C15S13712   5.349   4.667   7.725  0.5212 -0.2341  0.5409
  128OSM   H15S13713   5.460   4.662   7.722  0.4198 -2.0083 -3.6971
  128OSM   H15T13714   5.325   4.558   7.729  3.3404 -0.9059  0.2209
  128OSM   C16S13715   5.309   4.738   7.855  0.0262  0.2838  0.2779
  128OSM   H16S13716   5.303   4.847   7.832 -3.3883  0.2322  0.5888
  128OSM   H16T13717   5.395   4.724   7.923  0.0221  1.1810  0.4793
  128OSM   C17S13718   5.180   4.690   7.913 -0.1310 -0.0466  0.0562
  128OSM   H17S13719   5.190   4.582   7.937  3.7166  0.5260  1.5629
  128OSM   H17T13720   5.103   4.699   7.834 -0.3121 -1.8941  0.0006
  128OSM   C18S13721   5.138   4.754   8.045 -0.7194 -0.5428 -0.4447
  128OSM   H18S13722   5.042   4.708   8.078 -0.9616  0.0212 -0.3602
  128OSM   H18T13723   5.117   4.862   8.040 -0.9245 -0.4790  1.3635
  128OSM   H18U13724   5.220   4.734   8.118 -1.0267  1.0866  0.3704
  128OSM    C1F13725   5.442   4.098   6.530 -0.3292 -0.4586  0.4775
  128OSM     OF13726   5.559   4.068   6.487 -0.2713 -0.4078 -0.3913
  128OSM    C2F13727   5.371   3.997   6.613 -0.2715 -0.1162  0.0122
  128OSM    H2F13728   5.336   3.910   6.554  0.6333 -1.0248  0.7757
  128OSM    H2G13729   5.280   4.032   6.666 -0.4013  2.1892 -1.6589
  128OSM    C3F13730   5.468   3.947   6.723 -0.0838 -0.2061 -0.0555
  128OSM    H3F13731   5.554   3.886   6.688 -0.1150  0.3646 -1.1356
  128OSM    H3G13732   5.414   3.872   6.786  1.0421 -1.1143 -0.1497
  128OSM    C4F13733   5.520   4.063   6.820  0.5976  0.6552 -0.3569
  128OSM    H4F13734   5.565   4.144   6.758 -2.9633  1.9168 -1.4073
  128OSM    H4G13735   5.592   4.017   6.891 -0.5974 -1.1097 -0.2562
  128OSM    C5F13736   5.410   4.121   6.902  0.3650  0.2249  0.1760
  128OSM    H5F13737   5.332   4.046   6.924 -1.8337  2.2878 -0.3724
  128OSM    H5G13738   5.372   4.218   6.862  0.8366 -0.4638 -1.9861
  128OSM    C6F13739   5.466   4.170   7.040  0.1112 -0.4342 -0.2324
  128OSM    H6F13740   5.555   4.232   7.016 -0.7046  0.2196 -1.6399
  128OSM    H6G13741   5.497   4.080   7.097  1.0976  0.2201  0.2716
  128OSM    C7F13742   5.371   4.262   7.113 -0.0098  0.0677 -0.1949
  128OSM    H7F13743   5.268   4.222   7.118 -0.6820  1.9192  1.4453
  128OSM    H7G13744   5.352   4.360   7.064  1.0773  0.5962  0.4120
  128OSM    C8F13745   5.420   4.286   7.257  0.3250 -0.0850 -0.2333
  128OSM    H8F13746   5.365   4.362   7.317 -0.8613 -1.8360  0.9524
  128OSM    H8G13747   5.528   4.306   7.238  0.0549 -1.2592 -3.3052
  128OSM    C9F13748   5.415   4.152   7.336 -0.2117  0.0219  0.4897
  128OSM    H9F13749   5.508   4.094   7.342 -0.4866 -0.3108  1.6057
  128OSM   C10F13750   5.320   4.104   7.420 -0.4508  0.2171  0.0808
  128OSM   H10F13751   5.326   4.002   7.462 -0.2135  0.4037  0.5001
  128OSM   C11F13752   5.197   4.180   7.452  0.1205 -0.5318  0.5341
  128OSM   H11F13753   5.120   4.102   7.469  1.6439 -2.2839 -0.5185
  128OSM   H11G13754   5.163   4.253   7.375  0.3226  0.8148  1.7058
  128OSM   C12F13755   5.215   4.274   7.575  0.1977  0.4721  0.4878
  128OSM   H12F13756   5.114   4.302   7.612 -0.4659  0.7062 -1.4004
  128OSM   H12G13757   5.284   4.358   7.552  4.0549 -2.7559 -0.3691
  128OSM   C13F13758   5.282   4.208   7.693 -0.1360 -0.6744  0.7143
  128OSM   H13F13759   5.390   4.229   7.678 -0.1959 -2.5679 -2.8322
  128OSM   H13G13760   5.250   4.102   7.694 -2.7590  0.0742 -0.6336
  128OSM   C14F13761   5.239   4.288   7.823 -0.1062  0.1468 -0.1210
  128OSM   H14F13762   5.129   4.278   7.822 -0.3097  2.1034 -0.0143
  128OSM   H14G13763   5.266   4.396   7.826  0.4015 -0.0115  3.0760
  128OSM   C15F13764   5.303   4.229   7.950  0.5339 -0.0717 -0.5476
  128OSM   H15F13765   5.409   4.199   7.936  0.2688 -1.8864  1.1636
  128OSM   H15G13766   5.256   4.129   7.959  1.4373 -0.3175  1.7908
  128OSM   C16F13767   5.291   4.312   8.079 -0.5246 -0.6155 -0.4463
  128OSM   H16F13768   5.233   4.401   8.046  2.2992  0.9796 -1.2065
  128OSM   H16G13769   5.389   4.361   8.094 -0.4338 -0.9944  0.2033
  128OSM   C17F13770   5.249   4.236   8.207  0.1270  0.4939 -0.3333
  128OSM   H17F13771   5.298   4.289   8.292  0.1820 -0.5649  0.3040
  128OSM   H17G13772   5.313   4.145   8.209  1.9400  1.6792 -2.3268
  128OSM   C18F13773   5.100   4.203   8.219 -0.2840  0.2431 -0.4319
  128OSM   H18F13774   5.082   4.119   8.290  1.1473  0.9741  0.8432
  128OSM   H18G13775   5.062   4.186   8.116 -1.0345  2.0465 -0.4814
  128OSM   H18H13776   5.052   4.293   8.263  1.6961  0.9933  0.2674
  129OSM      N13777   2.767   6.392   6.116 -0.2746  0.4657 -0.6569
  129OSM    C1513778   2.659   6.303   6.065 -0.7628  0.7361  0.5535
  129OSM   H15A13779   2.566   6.320   6.117 -0.6864  1.3639  0.4903
  129OSM   H15B13780   2.693   6.203   6.088 -1.0152  0.5449  0.1086
  129OSM   H15C13781   2.643   6.313   5.959  0.3813  1.4951  0.4378
  129OSM    C1413782   2.729   6.537   6.086 -0.5790  0.1692  0.2622
  129OSM   H14A13783   2.719   6.539   5.979  1.0149 -0.9958  0.0575
  129OSM   H14B13784   2.805   6.604   6.123 -0.4173  0.3760 -0.4385
  129OSM   H14C13785   2.637   6.564   6.136 -1.2401  1.7915 -1.7953
  129OSM    C1313786   2.776   6.372   6.263  0.4598 -0.4917 -0.4069
  129OSM   H13A13787   2.801   6.269   6.286  2.0962 -0.2168 -0.8730
  129OSM   H13B13788   2.692   6.406   6.321 -0.8070 -4.7110  0.4182
  129OSM   H13C13789   2.860   6.429   6.299 -0.2556 -0.1189  0.7110
  129OSM    C1213790   2.902   6.360   6.059  0.7081  0.8964  0.1706
  129OSM   H12A13791   2.894   6.359   5.951  2.1036  1.3015  0.0567
  129OSM   H12B13792   2.942   6.265   6.091 -1.2964  0.3057  1.0298
  129OSM    C1113793   3.006   6.471   6.085  0.5697  0.6996  1.0364
  129OSM   H11A13794   2.984   6.563   6.026 -0.4606 -0.7976 -0.9890
  129OSM   H11B13795   3.099   6.430   6.041 -1.2596 -0.0372 -2.3204
  129OSM      P13796   3.071   6.641   6.254  0.8111 -0.1026 -0.5253
  129OSM    O1313797   3.169   6.689   6.150 -0.5187  0.0580 -0.0486
  129OSM    O1413798   2.951   6.726   6.264 -0.0510  0.0283 -0.0908
  129OSM    O1113799   3.140   6.643   6.392  0.5153  0.3086  0.2166
  129OSM    O1213800   3.021   6.491   6.225 -0.4426 -0.2179 -0.4815
  129OSM    C1S13801   3.177   6.514   6.459  0.0997 -0.1251 -0.6687
  129OSM    H1S13802   3.270   6.476   6.412  1.6254  1.5134  0.9579
  129OSM    H1T13803   3.107   6.429   6.442 -0.3426  0.3334 -1.1461
  129OSM     NF13804   3.238   6.394   6.677 -0.1359  0.0950 -0.4112
  129OSM    HNF13805   3.170   6.342   6.728  1.0511 -0.0531  1.0391
  129OSM    C2S13806   3.200   6.524   6.616 -0.5587 -0.7506  1.2488
  129OSM    H2S13807   3.275   6.603   6.635 -0.0697 -1.3248  1.7408
  129OSM    C3S13808   3.077   6.587   6.679  0.6518  0.0694 -0.2357
  129OSM    H3S13809   2.989   6.519   6.673  1.6722 -1.2550 -0.2637
  129OSM     O313810   3.029   6.709   6.621 -0.2646 -0.5714 -0.0933
  129OSM    HO313811   3.086   6.725   6.546  0.3458  1.5122  0.7734
  129OSM    C4S13812   3.100   6.618   6.827  0.3741  0.5308  0.3640
  129OSM    H4S13813   3.176   6.696   6.843  1.3198 -0.4409  0.6244
  129OSM    C5S13814   3.040   6.556   6.936  0.1217 -0.6429 -0.1585
  129OSM    H5S13815   2.958   6.486   6.914  0.6007 -1.2409 -0.0663
  129OSM    C6S13816   3.061   6.576   7.086 -0.5723  0.1405  0.0775
  129OSM    H6S13817   3.134   6.496   7.112 -1.7476 -0.1602  2.5990
  129OSM    H6T13818   2.963   6.566   7.136  0.1211 -1.8706  1.0830
  129OSM    C7S13819   3.120   6.717   7.125 -0.2346 -0.4737  0.6629
  129OSM    H7S13820   3.043   6.792   7.097 -2.3201 -2.4455  0.9769
  129OSM    H7T13821   3.216   6.730   7.071 -0.4737  2.0980  0.8035
  129OSM    C8S13822   3.159   6.733   7.272  0.7209 -0.1611  0.4707
  129OSM    H8S13823   3.242   6.807   7.279  0.3487  0.4859 -1.6166
  129OSM    H8T13824   3.199   6.641   7.318 -1.7861 -0.5722  1.8905
  129OSM    C9S13825   3.039   6.774   7.364 -0.1653  0.1123  0.2022
  129OSM    H9S13826   2.954   6.708   7.335 -0.3711  1.3504 -2.0861
  129OSM    H9T13827   3.006   6.873   7.327  0.6473  0.2617 -0.1287
  129OSM   C10S13828   3.068   6.784   7.517  0.4897  0.1071 -0.2016
  129OSM   H10S13829   2.975   6.817   7.569 -0.9108 -2.4752 -0.9591
  129OSM   H10T13830   3.136   6.870   7.533  0.2237  0.1772  0.5512
  129OSM   C11S13831   3.135   6.668   7.578 -0.0821  0.3336  0.3224
  129OSM   H11S13832   3.222   6.642   7.514 -0.9332 -1.9188  0.0261
  129OSM   H11T13833   3.075   6.575   7.576  3.2122 -1.8759  0.0177
  129OSM   C12S13834   3.201   6.706   7.718  0.2132 -0.2590 -0.2704
  129OSM   H12S13835   3.266   6.795   7.702  0.3603 -0.7320 -2.4971
  129OSM   H12T13836   3.255   6.623   7.767 -1.5570 -1.1132  0.2882
  129OSM   C13S13837   3.106   6.752   7.827  0.2179 -0.4075 -0.0728
  129OSM   H13S13838   3.038   6.664   7.835  0.7894 -0.9924 -1.5358
  129OSM   H13T13839   3.052   6.841   7.790  0.1483 -1.0492 -1.5459
  129OSM   C14S13840   3.166   6.789   7.965  0.3816 -0.0747  0.2367
  129OSM   H14S13841   3.239   6.873   7.970  1.4539 -1.0437  1.2326
  129OSM   H14T13842   3.228   6.706   8.004  1.1894  1.4715  2.3873
  129OSM   C15S13843   3.066   6.831   8.073  0.1369  0.0793  0.4103
  129OSM   H15S13844   3.005   6.740   8.091 -1.2046 -0.0271 -4.0304
  129OSM   H15T13845   2.993   6.907   8.037 -0.1216  1.0807  2.9392
  129OSM   C16S13846   3.134   6.891   8.197 -0.5768 -0.1983  0.3376
  129OSM   H16S13847   3.196   6.983   8.187  0.6193 -0.8603  1.5664
  129OSM   H16T13848   3.206   6.810   8.218  0.3287  0.8342  1.2641
  129OSM   C17S13849   3.049   6.907   8.322  0.0889 -0.3087  0.5986
  129OSM   H17S13850   2.980   6.820   8.331  0.2350 -0.3393  1.3985
  129OSM   H17T13851   2.992   7.002   8.313  0.7115  0.0570  0.5637
  129OSM   C18S13852   3.144   6.913   8.448  0.1619 -0.2072  0.7897
  129OSM   H18S13853   3.095   6.908   8.547  1.1159 -1.1052  1.2227
  129OSM   H18T13854   3.208   7.004   8.443 -0.2104  0.1043  1.5652
  129OSM   H18U13855   3.217   6.830   8.449  0.7689  0.2848 -1.0654
  129OSM    C1F13856   3.357   6.335   6.657  0.3304 -0.2746 -1.0707
  129OSM     OF13857   3.443   6.392   6.593 -0.1035 -0.7592  0.0849
  129OSM    C2F13858   3.373   6.201   6.721  1.0813  0.5670 -0.2432
  129OSM    H2F13859   3.444   6.136   6.666  0.5507  0.5526 -0.9254
  129OSM    H2G13860   3.272   6.155   6.714  1.2185  0.2206  0.0707
  129OSM    C3F13861   3.418   6.189   6.867  0.0189  0.1898  0.0006
  129OSM    H3F13862   3.522   6.229   6.869  0.1551 -0.0807 -1.1032
  129OSM    H3G13863   3.417   6.078   6.877 -0.5331  0.2817  1.0188
  129OSM    C4F13864   3.336   6.255   6.976  0.3840 -0.1767 -0.1423
  129OSM    H4F13865   3.231   6.230   6.947  0.2397 -0.5485  0.6860
  129OSM    H4G13866   3.335   6.366   6.973 -0.0599 -0.1491  0.9572
  129OSM    C5F13867   3.381   6.207   7.114  0.3364  0.8265  0.0065
  129OSM    H5F13868   3.490   6.222   7.128  0.4028 -0.1920  0.6835
  129OSM    H5G13869   3.372   6.097   7.128 -0.5564  1.1642  2.3249
  129OSM    C6F13870   3.302   6.288   7.219 -0.0224 -0.4929 -0.6022
  129OSM    H6F13871   3.194   6.276   7.197 -0.0193 -0.5225 -0.6021
  129OSM    H6G13872   3.320   6.397   7.209 -2.7996  0.2460  1.5610
  129OSM    C7F13873   3.348   6.247   7.361 -0.1308  0.7115  0.0892
  129OSM    H7F13874   3.457   6.266   7.370 -0.0563 -0.6423  2.4377
  129OSM    H7G13875   3.339   6.136   7.362 -1.4925  0.7946 -1.4910
  129OSM    C8F13876   3.285   6.340   7.469 -0.2188  0.1809 -0.0800
  129OSM    H8F13877   3.176   6.321   7.476 -0.0184 -1.6086 -1.3788
  129OSM    H8G13878   3.294   6.444   7.432  0.1421 -0.5799 -2.2113
  129OSM    C9F13879   3.354   6.331   7.599 -0.4031 -0.3482 -0.5672
  129OSM    H9F13880   3.463   6.322   7.590 -0.3219 -2.1481  1.7602
  129OSM   C10F13881   3.290   6.327   7.722 -0.8487  0.5833 -0.1991
  129OSM   H10F13882   3.356   6.317   7.810  0.0823  0.1117 -0.9446
  129OSM   C11F13883   3.146   6.330   7.764 -0.3403  0.0559  0.7148
  129OSM   H11F13884   3.093   6.262   7.694  2.7599  0.9308 -2.5804
  129OSM   H11G13885   3.113   6.433   7.741  2.1345  0.9253  0.9542
  129OSM   C12F13886   3.124   6.284   7.910  0.0296  0.5506 -0.5803
  129OSM   H12F13887   3.182   6.192   7.932 -1.1709 -0.4604 -1.5783
  129OSM   H12G13888   3.016   6.258   7.920  0.1251  0.2479 -0.3358
  129OSM   C13F13889   3.144   6.387   8.021 -0.5166  0.0722  0.1691
  129OSM   H13F13890   3.075   6.472   7.999 -0.9448 -0.7318 -1.7281
  129OSM   H13G13891   3.248   6.423   8.031 -1.1233  0.9772  4.1889
  129OSM   C14F13892   3.102   6.336   8.158  0.7632  0.2698 -0.5348
  129OSM   H14F13893   3.160   6.247   8.189  1.2838  0.7163 -0.2020
  129OSM   H14G13894   2.996   6.305   8.158  0.5628  0.8552  1.3305
  129OSM   C15F13895   3.135   6.449   8.260 -0.3185  0.3204 -0.2072
  129OSM   H15F13896   3.121   6.547   8.211 -1.0048  0.4102  0.1693
  129OSM   H15G13897   3.241   6.443   8.293 -0.8678  2.5716  2.1073
  129OSM   C16F13898   3.046   6.433   8.389 -0.1013  0.7144 -0.3158
  129OSM   H16F13899   3.065   6.334   8.437  0.7769  1.0968  0.1534
  129OSM   H16G13900   2.942   6.443   8.354 -0.1076 -1.7093 -1.1148
  129OSM   C17F13901   3.083   6.544   8.487  0.0313 -0.3383 -0.1946
  129OSM   H17F13902   3.104   6.633   8.424 -1.1863 -1.1651 -1.8148
  129OSM   H17G13903   3.178   6.510   8.533  0.1419  1.1518  0.7087
  129OSM   C18F13904   2.979   6.577   8.590  0.3846  0.3881 -0.6835
  129OSM   H18F13905   2.874   6.603   8.562  0.9645  5.4588  1.2648
  129OSM   H18G13906   3.013   6.660   8.655 -0.9402  1.4446 -1.3186
  129OSM   H18H13907   2.958   6.490   8.655 -0.2084  0.3801 -0.8771
  130OSM      N13908   3.780   3.557   6.099 -0.5717  0.8897 -0.1202
  130OSM    C1513909   3.705   3.429   6.127  0.2195 -0.0224  0.6635
  130OSM   H15A13910   3.688   3.377   6.034 -0.0889  2.1738 -0.5332
  130OSM   H15B13911   3.608   3.439   6.173  0.4472  0.5567  1.0212
  130OSM   H15C13912   3.754   3.361   6.195 -1.7809 -1.6227  0.5311
  130OSM    C1413913   3.911   3.522   6.039  0.0013 -0.5042 -0.4478
  130OSM   H14A13914   3.977   3.465   6.102  0.3996  0.5823  0.1362
  130OSM   H14B13915   3.955   3.612   5.998 -1.5732  1.4221  2.0002
  130OSM   H14C13916   3.894   3.453   5.958  0.2361 -0.2437 -0.7245
  130OSM    C1313917   3.696   3.624   5.996  0.2810  0.2532 -0.2517
  130OSM   H13A13918   3.736   3.724   5.990 -1.3892  0.8620 -1.7281
  130OSM   H13B13919   3.593   3.632   6.026 -0.0684  0.7611 -1.5237
  130OSM   H13C13920   3.699   3.590   5.893  2.1961 -2.2539  0.6001
  130OSM    C1213921   3.798   3.643   6.220 -0.1792 -0.1913 -0.1365
  130OSM   H12A13922   3.830   3.583   6.304  0.6044  0.7604  0.2492
  130OSM   H12B13923   3.699   3.677   6.248 -0.7911 -2.3454  0.4895
  130OSM    C1113924   3.902   3.755   6.209 -0.5215  0.5627  0.2283
  130OSM   H11A13925   4.001   3.708   6.188 -1.2617 -0.4848 -0.9360
  130OSM   H11B13926   3.903   3.795   6.313 -0.2863  1.9013 -0.2793
  130OSM      P13927   3.905   3.996   6.110 -0.1811 -0.5184 -0.3344
  130OSM    O1313928   4.043   4.016   6.056 -0.3246  0.0397  0.3753
  130OSM    O1413929   3.803   4.081   6.048 -0.1139 -0.2242 -0.3241
  130OSM    O1113930   3.905   4.035   6.259  0.2054 -0.2498 -0.2336
  130OSM    O1213931   3.872   3.840   6.101 -0.2766  0.2196  0.2081
  130OSM    C1S13932   3.791   4.035   6.343  0.7766  0.3059 -0.1481
  130OSM    H1S13933   3.737   3.940   6.325  1.4850 -0.0799 -0.2108
  130OSM    H1T13934   3.723   4.116   6.307 -2.4295 -2.0252  0.4120
  130OSM     NF13935   3.709   4.016   6.578  0.9161  1.0258 -0.1782
  130OSM    HNF13936   3.640   4.083   6.603 -0.4930 -0.4151 -0.1047
  130OSM    C2S13937   3.817   4.066   6.492  0.5422  0.3377  0.0466
  130OSM    H2S13938   3.911   4.015   6.523 -1.1967 -0.5010  4.2024
  130OSM    C3S13939   3.851   4.215   6.520  0.0788  0.0059 -0.3460
  130OSM    H3S13940   3.761   4.277   6.501 -0.6015 -0.9059 -0.1622
  130OSM     O313941   3.954   4.268   6.431  0.2278  0.0391  0.0573
  130OSM    HO313942   3.961   4.201   6.363 -1.0137  0.7676 -0.8077
  130OSM    C4S13943   3.904   4.235   6.666 -0.2480  0.3962 -0.5387
  130OSM    H4S13944   3.833   4.300   6.719  0.1226 -0.0048  0.4660
  130OSM    C5S13945   4.019   4.187   6.721  0.2959  0.6183  0.4310
  130OSM    H5S13946   4.072   4.113   6.658  0.4319  0.2679  0.9537
  130OSM    C6S13947   4.073   4.201   6.858 -0.4814  0.0777  1.0935
  130OSM    H6S13948   4.161   4.266   6.840 -1.9978  1.9209  0.0833
  130OSM    H6T13949   4.108   4.102   6.895 -0.0506  0.5320  1.9044
  130OSM    C7S13950   3.975   4.255   6.962 -0.2677  0.3955 -0.0178
  130OSM    H7S13951   3.887   4.186   6.957 -0.4640  0.6870 -0.6818
  130OSM    H7T13952   3.927   4.348   6.925 -3.7383 -1.7847 -1.3786
  130OSM    C8S13953   4.033   4.246   7.106  0.6871 -1.1550  0.2417
  130OSM    H8S13954   4.109   4.326   7.115 -0.3795 -0.1401  0.3983
  130OSM    H8T13955   4.087   4.150   7.121 -0.4349 -1.7152  0.7753
  130OSM    C9S13956   3.928   4.268   7.220 -0.4214  0.3983 -0.5527
  130OSM    H9S13957   3.855   4.185   7.211 -2.3260  1.6818  2.1172
  130OSM    H9T13958   3.871   4.364   7.218 -1.1229  0.0327  0.9470
  130OSM   C10S13959   3.995   4.256   7.356 -0.9864 -0.2448 -0.2725
  130OSM   H10S13960   4.061   4.345   7.365 -0.9804 -0.1041 -1.6365
  130OSM   H10T13961   4.056   4.164   7.350  0.8905  0.8210  1.4895
  130OSM   C11S13962   3.898   4.243   7.480 -0.2885  0.9542  0.2139
  130OSM   H11S13963   3.820   4.164   7.489 -0.0382  0.5391 -1.1779
  130OSM   H11T13964   3.835   4.334   7.478 -1.5027  0.1588  1.1594
  130OSM   C12S13965   3.981   4.228   7.613 -0.1526 -0.2747 -0.4526
  130OSM   H12S13966   4.053   4.310   7.635 -0.1499  0.3273 -2.5698
  130OSM   H12T13967   4.046   4.140   7.595 -1.1217 -1.4331  1.5978
  130OSM   C13S13968   3.909   4.194   7.741  0.4935  0.6548 -0.2042
  130OSM   H13S13969   3.966   4.161   7.830 -2.4124 -3.2946  0.3510
  130OSM   H13T13970   3.841   4.108   7.721 -0.2978  1.0197  0.8268
  130OSM   C14S13971   3.809   4.294   7.795 -0.1435 -0.3995 -0.2080
  130OSM   H14S13972   3.736   4.296   7.711  1.1728  1.4670 -1.3643
  130OSM   H14T13973   3.863   4.391   7.800 -3.0050  1.1433  2.2776
  130OSM   C15S13974   3.727   4.259   7.926 -0.1028  0.3876  0.0042
  130OSM   H15S13975   3.711   4.150   7.933  0.7506  0.2418 -0.2303
  130OSM   H15T13976   3.625   4.305   7.925  0.0805  0.8588  1.5136
  130OSM   C16S13977   3.784   4.311   8.058 -0.1991  0.4087 -0.0347
  130OSM   H16S13978   3.885   4.265   8.065 -0.2008  0.7608  2.5325
  130OSM   H16T13979   3.718   4.273   8.139  2.4864 -1.6676  1.2525
  130OSM   C17S13980   3.801   4.459   8.070  0.1802 -0.5704 -0.4567
  130OSM   H17S13981   3.884   4.511   8.018 -0.0779 -0.4838 -0.7830
  130OSM   H17T13982   3.822   4.484   8.177 -2.1538  0.1455 -0.1332
  130OSM   C18S13983   3.683   4.549   8.039  0.7011  1.1757 -0.0094
  130OSM   H18S13984   3.588   4.491   8.043  1.5014 -0.0564  1.4505
  130OSM   H18T13985   3.686   4.581   7.933 -0.3643 -0.1299 -0.4504
  130OSM   H18U13986   3.657   4.630   8.110 -0.3321 -0.5328  1.6166
  130OSM    C1F13987   3.671   3.886   6.588 -0.0162  0.4099  0.6125
  130OSM     OF13988   3.733   3.794   6.531  0.1453  0.2530 -0.0754
  130OSM    C2F13989   3.547   3.850   6.668  0.7639 -0.4696  0.2666
  130OSM    H2F13990   3.458   3.868   6.603  0.9969 -1.5395 -0.3507
  130OSM    H2G13991   3.535   3.921   6.753  1.3284  0.9270 -0.7907
  130OSM    C3F13992   3.557   3.700   6.714 -0.4327 -0.1110 -0.3038
  130OSM    H3F13993   3.655   3.678   6.761 -0.6090 -2.6184 -1.0228
  130OSM    H3G13994   3.551   3.629   6.628 -2.9032 -1.3615  0.8543
  130OSM    C4F13995   3.445   3.675   6.815 -0.0417  0.8352  0.5931
  130OSM    H4F13996   3.395   3.588   6.767 -0.0379 -0.3354  2.6458
  130OSM    H4G13997   3.375   3.762   6.815 -1.5893 -0.3620  2.1371
  130OSM    C5F13998   3.493   3.643   6.957  0.1556  0.9931  0.0429
  130OSM    H5F13999   3.563   3.726   6.981 -0.8334  1.1523  2.6071
  130OSM    H5G14000   3.552   3.549   6.954  0.3040  1.1205 -1.3108
  130OSM    C6F14001   3.390   3.654   7.068 -0.1664 -0.0593  0.8020
  130OSM    H6F14002   3.316   3.581   7.029  0.7880 -0.5249 -0.1704
  130OSM    H6G14003   3.340   3.752   7.079  0.8934  0.9663 -2.8152
  130OSM    C7F14004   3.449   3.617   7.202  0.1970  0.0378 -0.0016
  130OSM    H7F14005   3.518   3.697   7.235  0.4114 -1.1943  2.6940
  130OSM    H7G14006   3.518   3.530   7.205  0.0819 -0.1023 -1.0639
  130OSM    C8F14007   3.333   3.591   7.309 -0.6027  0.3075 -0.1748
  130OSM    H8F14008   3.387   3.555   7.399  0.1502 -1.3348 -1.2582
  130OSM    H8G14009   3.269   3.516   7.259 -1.0596 -0.7098  1.8872
  130OSM    C9F14010   3.254   3.711   7.339 -0.6144  0.7507  0.3008
  130OSM    H9F14011   3.217   3.759   7.247  1.1877 -0.9753 -1.3509
  130OSM   C10F14012   3.217   3.754   7.458 -0.0074  0.1817 -0.1314
  130OSM   H10F14013   3.146   3.838   7.461 -0.2224 -0.0187  0.6774
  130OSM   C11F14014   3.243   3.684   7.595  0.9455  0.0585  0.3906
  130OSM   H11F14015   3.332   3.734   7.640 -0.8859  3.4660  0.4202
  130OSM   H11G14016   3.263   3.575   7.593 -0.2132 -0.2152  2.3412
  130OSM   C12F14017   3.116   3.699   7.682  0.0036  0.3791  0.3857
  130OSM   H12F14018   3.050   3.609   7.680  0.2159  0.2335 -0.6150
  130OSM   H12G14019   3.053   3.782   7.644 -0.8293  0.6802  2.3623
  130OSM   C13F14020   3.142   3.748   7.825 -0.4384 -0.3331  0.0978
  130OSM   H13F14021   3.225   3.820   7.807 -0.1343 -0.8884 -0.7330
  130OSM   H13G14022   3.187   3.667   7.886  2.0561  1.4471  0.6965
  130OSM   C14F14023   3.025   3.802   7.911  0.0248  0.2897  0.4928
  130OSM   H14F14024   2.941   3.735   7.881 -1.3821  1.6124  1.4437
  130OSM   H14G14025   3.007   3.911   7.899 -1.5932  0.0610  0.7731
  130OSM   C15F14026   3.071   3.783   8.057  0.7879  0.4580 -0.8924
  130OSM   H15F14027   3.172   3.823   8.081  0.4403  0.1543  1.2540
  130OSM   H15G14028   3.067   3.674   8.076  1.3179  0.4721 -0.6932
  130OSM   C16F14029   2.969   3.841   8.155  0.2300 -0.4157  0.0998
  130OSM   H16F14030   2.875   3.782   8.143 -1.3808  2.5179 -2.6838
  130OSM   H16G14031   2.944   3.945   8.126  0.8068 -0.3796 -0.2747
  130OSM   C17F14032   3.009   3.836   8.301 -0.1093 -0.0111 -0.6844
  130OSM   H17F14033   3.109   3.882   8.314 -0.1869  0.1239 -0.5757
  130OSM   H17G14034   3.010   3.738   8.354 -1.7371 -0.7756 -2.0087
  130OSM   C18F14035   2.911   3.922   8.389 -0.9415 -0.0064  0.0849
  130OSM   H18F14036   2.932   4.030   8.380  1.3750 -0.4618 -0.3596
  130OSM   H18G14037   2.932   3.899   8.496 -0.8068  0.6736  0.2071
  130OSM   H18H14038   2.809   3.886   8.364 -0.4919  1.2147 -3.8467
  131OSM      N14039   4.042   1.198   6.161 -0.1888 -0.4011 -0.0495
  131OSM    C1514040   3.942   1.233   6.269  0.4430  0.1869  0.3365
  131OSM   H15A14041   3.940   1.150   6.339 -0.7999  0.3009  0.4498
  131OSM   H15B14042   3.843   1.259   6.235  0.1850  1.1102  1.7397
  131OSM   H15C14043   3.974   1.324   6.318 -2.9793  2.8145 -2.1208
  131OSM    C1414044   4.168   1.132   6.218  0.1568 -0.0112 -0.9385
  131OSM   H14A14045   4.219   1.202   6.281 -1.3897 -0.0514  0.3733
  131OSM   H14B14046   4.234   1.098   6.139  0.2564 -0.9494 -0.4684
  131OSM   H14C14047   4.139   1.046   6.277 -0.3243  1.4786  1.0067
  131OSM    C1314048   3.985   1.112   6.055 -0.9868  0.1587  0.0794
  131OSM   H13A14049   3.996   1.011   6.090  0.9315  0.9858  2.0188
  131OSM   H13B14050   4.035   1.120   5.960 -1.6317 -0.6037 -0.3271
  131OSM   H13C14051   3.879   1.129   6.039 -0.6870  2.4596  0.3780
  131OSM    C1214052   4.092   1.339   6.095  0.0900 -0.5476  0.0569
  131OSM   H12A14053   4.007   1.403   6.073 -0.1850 -0.7176  0.6213
  131OSM   H12B14054   4.141   1.322   6.000 -2.3992 -2.3024 -0.9945
  131OSM    C1114055   4.197   1.412   6.183 -0.5268 -0.0771  0.3211
  131OSM   H11A14056   4.154   1.417   6.285  0.7548 -1.3469  0.9321
  131OSM   H11B14057   4.203   1.514   6.139  1.9598 -0.6091 -0.6235
  131OSM      P14058   4.435   1.351   6.285 -0.1061  0.4388 -0.2654
  131OSM    O1314059   4.526   1.242   6.245 -0.7473  0.4034  0.3176
  131OSM    O1414060   4.494   1.485   6.301  0.4552  0.1258  0.0399
  131OSM    O1114061   4.347   1.311   6.411 -0.3303 -0.8097 -0.1262
  131OSM    O1214062   4.325   1.361   6.171  0.5812 -0.3303 -0.3558
  131OSM    C1S14063   4.418   1.275   6.531 -0.3291  0.0811 -0.4118
  131OSM    H1S14064   4.518   1.321   6.544  0.4880 -1.2047 -1.9216
  131OSM    H1T14065   4.438   1.166   6.524  0.7209  0.2911 -0.6723
  131OSM     NF14066   4.413   1.284   6.781 -0.4569 -0.4295  0.2355
  131OSM    HNF14067   4.395   1.202   6.835 -1.6070  0.1900  0.8016
  131OSM    C2S14068   4.333   1.301   6.656  0.0625  0.0207 -0.0926
  131OSM    H2S14069   4.304   1.409   6.657  0.9081  0.2656 -0.9798
  131OSM    C3S14070   4.202   1.214   6.646  0.2809 -0.0416  0.4654
  131OSM    H3S14071   4.224   1.107   6.664  0.2809  0.2105  1.9802
  131OSM     O314072   4.125   1.228   6.519  0.6726 -0.2592 -0.1411
  131OSM    HO314073   4.190   1.270   6.462 -1.9521 -0.2143 -3.2458
  131OSM    C4S14074   4.113   1.257   6.767  0.1962  0.5122 -0.2573
  131OSM    H4S14075   4.064   1.356   6.762 -0.6400  0.2641  2.2632
  131OSM    C5S14076   4.065   1.180   6.869 -0.8229 -0.8301 -0.0339
  131OSM    H5S14077   4.093   1.074   6.868 -1.6626 -1.0752  1.1169
  131OSM    C6S14078   3.980   1.221   6.987  0.1267  0.1957 -0.3798
  131OSM    H6S14079   3.975   1.330   7.008  1.0336  0.0869  0.4399
  131OSM    H6T14080   4.023   1.187   7.084  1.8501  2.4351 -0.3036
  131OSM    C7S14081   3.843   1.154   6.961 -0.5325  0.6289 -1.0416
  131OSM    H7S14082   3.853   1.045   6.942 -1.4223  0.4833 -0.7001
  131OSM    H7T14083   3.798   1.195   6.869 -2.3524  0.9935 -0.0040
  131OSM    C8S14084   3.733   1.166   7.071  0.3282  0.3311 -0.3224
  131OSM    H8S14085   3.654   1.102   7.026  1.2628  0.7486 -2.6084
  131OSM    H8T14086   3.685   1.267   7.078  0.7761  0.3595  4.2747
  131OSM    C9S14087   3.776   1.132   7.213  0.1301  0.0074  0.4316
  131OSM    H9S14088   3.841   1.219   7.238 -0.3101 -0.2743  2.6339
  131OSM    H9T14089   3.832   1.037   7.222 -0.6345 -0.4548  0.3251
  131OSM   C10S14090   3.662   1.140   7.312 -0.0311 -0.0362  0.2089
  131OSM   H10S14091   3.581   1.076   7.271 -0.4301 -0.1365  1.1313
  131OSM   H10T14092   3.620   1.242   7.326  2.7984  1.0209  1.3852
  131OSM   C11S14093   3.697   1.076   7.447  0.1871  0.3516  0.1785
  131OSM   H11S14094   3.778   1.138   7.492  0.5765  0.9732 -1.3387
  131OSM   H11T14095   3.741   0.974   7.440 -1.6259 -0.3876 -0.8211
  131OSM   C12S14096   3.574   1.072   7.542 -0.1609 -0.0774 -0.0526
  131OSM   H12S14097   3.520   0.980   7.512  0.1541  0.0220 -0.9668
  131OSM   H12T14098   3.514   1.165   7.528 -0.6897 -0.8987 -3.9533
  131OSM   C13S14099   3.620   1.080   7.685  0.2341 -0.1656  0.3996
  131OSM   H13S14100   3.694   1.162   7.701 -0.0040  0.6754 -2.4227
  131OSM   H13T14101   3.674   0.985   7.704  3.2992  1.3923 -0.0578
  131OSM   C14S14102   3.508   1.097   7.792 -0.8483 -0.1460  0.2151
  131OSM   H14S14103   3.428   1.028   7.759 -0.4930 -1.3969  1.8902
  131OSM   H14T14104   3.479   1.204   7.783  3.6170  1.1099 -0.2170
  131OSM   C15S14105   3.545   1.082   7.938 -0.0565 -0.0149 -0.1981
  131OSM   H15S14106   3.482   1.146   8.002  1.7035  3.2141 -1.5450
  131OSM   H15T14107   3.650   1.118   7.950  0.9157 -2.2348 -1.7273
  131OSM   C16S14108   3.535   0.938   7.989  0.4629  0.6488 -0.1202
  131OSM   H16S14109   3.619   0.883   7.942 -1.5072 -1.2129 -1.5888
  131OSM   H16T14110   3.434   0.897   7.966 -0.0851  0.4619  2.4145
  131OSM   C17S14111   3.551   0.918   8.143  0.4139 -0.2727  0.1175
  131OSM   H17S14112   3.506   0.821   8.173 -0.8028  0.5060  0.8286
  131OSM   H17T14113   3.488   0.995   8.192  1.4587  0.6465  0.0197
  131OSM   C18S14114   3.700   0.924   8.186 -0.3323  0.1892 -0.5981
  131OSM   H18S14115   3.765   0.870   8.115  1.4344  0.0303  1.0941
  131OSM   H18T14116   3.710   0.890   8.292  5.0034  0.9275 -0.7612
  131OSM   H18U14117   3.739   1.026   8.168  2.8495 -0.7104  0.9246
  131OSM    C1F14118   4.511   1.375   6.813  0.2347  0.1074 -0.4731
  131OSM     OF14119   4.513   1.482   6.756 -0.4660  0.0866  0.7416
  131OSM    C2F14120   4.603   1.330   6.921 -0.2781  0.4106 -0.0918
  131OSM    H2F14121   4.672   1.253   6.883  0.5166  0.3647  1.3934
  131OSM    H2G14122   4.537   1.296   7.004  0.3965 -1.1428 -0.1913
  131OSM    C3F14123   4.697   1.447   6.950  0.3475  0.1816  0.1621
  131OSM    H3F14124   4.647   1.546   6.956 -1.0125 -0.3365 -1.7969
  131OSM    H3G14125   4.759   1.452   6.858  0.8590  2.7762  0.6019
  131OSM    C4F14126   4.782   1.423   7.077  0.2037  0.3004 -0.6793
  131OSM    H4F14127   4.847   1.512   7.090  0.4549  0.0517 -0.2349
  131OSM    H4G14128   4.847   1.333   7.068 -2.3506 -1.7531  0.5462
  131OSM    C5F14129   4.712   1.416   7.212  0.4983 -0.1861 -0.0462
  131OSM    H5F14130   4.682   1.310   7.218  1.9540 -0.4702  2.8712
  131OSM    H5G14131   4.624   1.484   7.215  1.6087  1.2091  1.8043
  131OSM    C6F14132   4.806   1.437   7.337  0.9987  0.1251  0.5870
  131OSM    H6F14133   4.859   1.533   7.322  0.2292  0.0466 -3.0773
  131OSM    H6G14134   4.884   1.359   7.343  0.5578 -0.3351  0.3557
  131OSM    C7F14135   4.730   1.442   7.472  0.0730  0.5541 -0.9314
  131OSM    H7F14136   4.709   1.341   7.511 -1.6178  0.5513 -1.8173
  131OSM    H7G14137   4.635   1.500   7.464  0.6698  2.0155  2.0181
  131OSM    C8F14138   4.814   1.513   7.587  0.2197 -0.1112 -0.0367
  131OSM    H8F14139   4.841   1.614   7.552 -0.0142 -0.5144 -1.4254
  131OSM    H8G14140   4.914   1.466   7.599 -0.6177 -1.3510  2.5556
  131OSM    C9F14141   4.747   1.516   7.721 -0.1067  0.6650 -0.0201
  131OSM    H9F14142   4.655   1.577   7.719 -1.7904 -1.7885 -0.8274
  131OSM   C10F14143   4.772   1.457   7.845  0.7377 -0.2864 -0.0510
  131OSM   H10F14144   4.690   1.463   7.918 -1.5539  1.4649 -2.6882
  131OSM   C11F14145   4.880   1.364   7.875 -0.1516  0.1556 -0.4283
  131OSM   H11F14146   4.961   1.370   7.799  0.8820  0.8678  0.7256
  131OSM   H11G14147   4.843   1.260   7.860  1.0047 -0.1261 -1.4362
  131OSM   C12F14148   4.936   1.399   8.017  0.6313  0.0448  0.2273
  131OSM   H12F14149   4.850   1.404   8.087  0.9450 -1.6841  0.7638
  131OSM   H12G14150   4.996   1.492   8.020 -0.1750  0.5189  1.8303
  131OSM   C13F14151   5.025   1.283   8.073  0.6721 -0.3253  0.6367
  131OSM   H13F14152   5.105   1.283   7.996 -0.2315  2.3432 -0.3849
  131OSM   H13G14153   4.972   1.186   8.066  0.6072 -0.2633  0.2567
  131OSM   C14F14154   5.059   1.301   8.218 -0.1574  0.5683 -0.0966
  131OSM   H14F14155   5.109   1.211   8.261 -0.6291  0.0311 -0.6557
  131OSM   H14G14156   4.960   1.301   8.269  0.3192 -0.2224  0.8395
  131OSM   C15F14157   5.143   1.434   8.240  0.2206  0.6660  0.0043
  131OSM   H15F14158   5.072   1.519   8.238 -0.5314  0.0248 -1.6355
  131OSM   H15G14159   5.214   1.454   8.157 -1.0616  1.0728 -1.0054
  131OSM   C16F14160   5.217   1.435   8.370  0.8404  0.3789 -0.1593
  131OSM   H16F14161   5.297   1.512   8.370  0.1156  1.1295  0.0236
  131OSM   H16G14162   5.268   1.337   8.383  1.2053  0.1275 -3.0861
  131OSM   C17F14163   5.131   1.465   8.494  0.7114  0.1449 -0.5828
  131OSM   H17F14164   5.030   1.420   8.492  1.1411 -0.8153 -1.9432
  131OSM   H17G14165   5.129   1.576   8.491  0.7989  0.1912  0.7297
  131OSM   C18F14166   5.180   1.428   8.631 -0.2100  0.3405  0.4213
  131OSM   H18F14167   5.180   1.317   8.633 -2.0918  0.3413  2.2706
  131OSM   H18G14168   5.108   1.456   8.711  1.3842  2.3370  1.2184
  131OSM   H18H14169   5.281   1.470   8.652 -0.8081  1.8206  0.4057
  132OSM      N14170   6.317   4.499   6.248  0.4151  0.1736 -0.0975
  132OSM    C1514171   6.445   4.558   6.294 -0.3059 -0.3840  0.2079
  132OSM   H15A14172   6.472   4.648   6.241 -1.8466 -0.4202 -0.6506
  132OSM   H15B14173   6.527   4.488   6.288 -0.3354 -0.1671 -4.1230
  132OSM   H15C14174   6.441   4.600   6.394  0.8405 -0.7133  0.4023
  132OSM    C1414175   6.329   4.416   6.121 -0.3270 -0.3148 -0.6165
  132OSM   H14A14176   6.395   4.331   6.132  1.9758  1.3067 -1.4140
  132OSM   H14B14177   6.372   4.482   6.047 -0.2292 -0.6455 -0.8547
  132OSM   H14C14178   6.239   4.388   6.068 -0.8422 -1.1475  0.6721
  132OSM    C1314179   6.267   4.396   6.353  0.2550  0.4371  0.4890
  132OSM   H13A14180   6.237   4.450   6.442  0.0455 -0.3686  0.9045
  132OSM   H13B14181   6.344   4.326   6.381 -0.9219 -1.7496 -1.6066
  132OSM   H13C14182   6.190   4.326   6.323  0.6251  0.4495 -0.5187
  132OSM    C1214183   6.225   4.613   6.215 -0.6844 -0.1568 -0.5882
  132OSM   H12A14184   6.134   4.581   6.167 -1.0221  1.3229 -0.9760
  132OSM   H12B14185   6.275   4.672   6.140  1.5037 -1.2203 -0.0123
  132OSM    C1114186   6.168   4.701   6.336  0.4012 -0.1780  0.0517
  132OSM   H11A14187   6.111   4.633   6.403  0.0661 -0.5542 -0.6104
  132OSM   H11B14188   6.088   4.760   6.287  0.3294 -1.6668 -1.6692
  132OSM      P14189   6.337   4.896   6.335 -0.1800 -0.1135 -0.4758
  132OSM    O1314190   6.474   4.859   6.295 -0.6067  0.8765  0.1481
  132OSM    O1414191   6.246   4.956   6.234  0.3580  0.4637  0.3424
  132OSM    O1114192   6.349   4.999   6.456  0.1007  0.0541 -0.2853
  132OSM    O1214193   6.268   4.774   6.403 -0.6616  0.0556  0.0256
  132OSM    C1S14194   6.295   4.970   6.588 -0.4409  0.0615  0.5391
  132OSM    H1S14195   6.359   4.892   6.635  1.2422  1.8134  1.2154
  132OSM    H1T14196   6.188   4.942   6.580 -0.7916  0.7948  2.3752
  132OSM     NF14197   6.206   5.060   6.796  0.3400  0.3672  0.0104
  132OSM    HNF14198   6.107   5.055   6.788  0.6161 -1.1944 -2.9601
  132OSM    C2S14199   6.281   5.096   6.680 -0.2654  0.3208 -1.5587
  132OSM    H2S14200   6.388   5.110   6.706 -0.6395 -1.0702  0.8902
  132OSM    C3S14201   6.220   5.223   6.614  0.2123 -0.2715  0.7720
  132OSM    H3S14202   6.115   5.204   6.584  0.3590 -0.5380  0.4228
  132OSM     O314203   6.279   5.267   6.489  0.3447  0.1785  0.3805
  132OSM    HO314204   6.326   5.191   6.453 -0.3496 -0.6748  1.2246
  132OSM    C4S14205   6.225   5.343   6.703 -0.0123 -0.6788  0.9566
  132OSM    H4S14206   6.319   5.344   6.761  0.1100  2.0795  0.7742
  132OSM    C5S14207   6.120   5.428   6.737 -0.1927 -0.3376 -0.2485
  132OSM    H5S14208   6.021   5.424   6.690 -1.9060  2.2585  2.8775
  132OSM    C6S14209   6.134   5.537   6.842 -0.1521  0.3228  0.0888
  132OSM    H6S14210   6.036   5.568   6.883 -0.0155  2.3714 -1.0715
  132OSM    H6T14211   6.173   5.625   6.786 -1.5630 -0.1142 -1.6197
  132OSM    C7S14212   6.228   5.514   6.962 -0.1300 -0.1452  0.5414
  132OSM    H7S14213   6.232   5.604   7.027  3.5083 -1.8273  2.8503
  132OSM    H7T14214   6.333   5.496   6.929 -0.2138 -1.2416  0.8487
  132OSM    C8S14215   6.207   5.387   7.045 -0.2680  0.1883 -0.4420
  132OSM    H8S14216   6.236   5.299   6.984 -0.9565 -0.6455  0.4215
  132OSM    H8T14217   6.101   5.363   7.063  0.2447 -0.9225  1.2233
  132OSM    C9S14218   6.294   5.379   7.174 -0.3205 -0.2145 -0.1882
  132OSM    H9S14219   6.298   5.477   7.226  1.3758  0.3374 -1.3324
  132OSM    H9T14220   6.400   5.371   7.141 -0.4685 -0.3560 -0.6247
  132OSM   C10S14221   6.254   5.263   7.258 -0.4644 -0.5276  0.1960
  132OSM   H10S14222   6.280   5.165   7.214 -3.1113 -0.8677 -0.7113
  132OSM   H10T14223   6.145   5.259   7.281 -0.2691 -0.3633  1.2000
  132OSM   C11S14224   6.322   5.273   7.397  0.7486  0.1167 -0.2188
  132OSM   H11S14225   6.289   5.359   7.458  0.3264  0.5600 -1.0658
  132OSM   H11T14226   6.432   5.290   7.385  0.8830  1.2143  2.2474
  132OSM   C12S14227   6.308   5.143   7.482 -0.2630  0.8821 -0.5656
  132OSM   H12S14228   6.360   5.061   7.430  1.5538 -0.3985  3.1275
  132OSM   H12T14229   6.200   5.122   7.501  0.0260 -0.3781 -0.2886
  132OSM   C13S14230   6.380   5.155   7.618  0.4000  0.1149  0.3026
  132OSM   H13S14231   6.348   5.247   7.671  0.1049  0.5780 -0.6652
  132OSM   H13T14232   6.489   5.167   7.600  0.0970 -0.3238 -2.0880
  132OSM   C14S14233   6.356   5.029   7.707  0.0596 -0.2983  1.0847
  132OSM   H14S14234   6.367   4.947   7.634 -1.1106  0.8114 -0.3633
  132OSM   H14T14235   6.248   5.039   7.733 -0.0767 -1.3092  0.9142
  132OSM   C15S14236   6.451   5.033   7.828  0.2155 -0.2320 -0.3203
  132OSM   H15S14237   6.434   5.134   7.871  0.8406  0.3496 -1.4075
  132OSM   H15T14238   6.555   5.011   7.794  0.1381  0.4052 -0.9871
  132OSM   C16S14239   6.420   4.926   7.943 -0.5973  0.2258  0.1932
  132OSM   H16S14240   6.450   4.827   7.904  0.0983  0.4224  0.2174
  132OSM   H16T14241   6.311   4.936   7.962 -0.5468 -3.0617  2.4031
  132OSM   C17S14242   6.490   4.960   8.078  0.0549  0.1299  0.2976
  132OSM   H17S14243   6.500   5.071   8.087  0.4803  0.6138 -4.6413
  132OSM   H17T14244   6.597   4.933   8.086 -0.3676 -1.4503  0.6749
  132OSM   C18S14245   6.414   4.892   8.190 -0.8512 -0.3301 -0.0292
  132OSM   H18S14246   6.473   4.915   8.281 -1.0251  0.4071 -0.1026
  132OSM   H18T14247   6.411   4.781   8.185 -0.1434 -0.4712  2.1220
  132OSM   H18U14248   6.309   4.928   8.193 -1.2866 -1.5779 -0.0540
  132OSM    C1F14249   6.259   4.980   6.889 -0.3526  0.4813  1.0921
  132OSM     OF14250   6.375   4.939   6.890 -0.1512 -0.6170  0.2842
  132OSM    C2F14251   6.158   4.944   7.001 -0.2581  0.6607 -0.1481
  132OSM    H2F14252   6.061   4.912   6.957 -0.2891  2.0632 -1.1315
  132OSM    H2G14253   6.140   5.037   7.059 -3.0624  0.4986 -0.7218
  132OSM    C3F14254   6.201   4.824   7.094  0.3402 -0.2949 -0.0498
  132OSM    H3F14255   6.312   4.823   7.100  0.3591 -0.3329 -0.4028
  132OSM    H3G14256   6.168   4.724   7.058  0.1734 -0.1951 -0.1748
  132OSM    C4F14257   6.160   4.834   7.241  0.7534 -0.5883 -0.0961
  132OSM    H4F14258   6.194   4.924   7.297  0.4951 -1.5153  1.5863
  132OSM    H4G14259   6.198   4.748   7.300 -0.1586 -2.2651 -1.9219
  132OSM    C5F14260   6.005   4.845   7.262 -0.6916 -0.9436 -0.2735
  132OSM    H5F14261   5.954   4.750   7.235 -1.3405 -0.2819 -1.4336
  132OSM    H5G14262   5.965   4.924   7.194 -0.1087 -0.6795 -0.3130
  132OSM    C6F14263   5.948   4.893   7.402 -0.3643 -0.3133  0.1386
  132OSM    H6F14264   6.008   4.981   7.430 -0.8118  0.1430 -0.3258
  132OSM    H6G14265   5.953   4.823   7.488 -3.5161  1.4774  1.8705
  132OSM    C7F14266   5.800   4.935   7.391 -0.2421  0.2608 -0.2502
  132OSM    H7F14267   5.747   4.850   7.344 -1.0056  0.8090 -0.3945
  132OSM    H7G14268   5.783   5.021   7.322 -0.0264 -0.4528 -1.1978
  132OSM    C8F14269   5.736   4.963   7.530 -0.3948 -0.3746  0.0829
  132OSM    H8F14270   5.632   4.995   7.508  0.6714  2.1696 -1.4648
  132OSM    H8G14271   5.801   5.050   7.555  0.1917 -1.1391  1.2586
  132OSM    C9F14272   5.743   4.844   7.631  0.5108  0.6786  0.5026
  132OSM    H9F14273   5.670   4.766   7.605 -0.3454  1.5133  0.4150
  132OSM   C10F14274   5.809   4.845   7.742  0.9303 -0.0690 -0.3996
  132OSM   H10F14275   5.802   4.762   7.814 -2.8295 -2.0672 -2.8709
  132OSM   C11F14276   5.903   4.955   7.795  0.3353 -0.3816 -0.3768
  132OSM   H11F14277   5.950   5.014   7.713 -0.0106 -1.1048 -1.1111
  132OSM   H11G14278   5.982   4.912   7.860  0.3935 -1.2263 -0.9860
  132OSM   C12F14279   5.833   5.051   7.898 -0.4286 -0.4489 -0.4307
  132OSM   H12F14280   5.743   5.087   7.844 -1.8969 -0.5269  1.8893
  132OSM   H12G14281   5.900   5.138   7.913 -0.6091 -0.5876  1.2881
  132OSM   C13F14282   5.788   4.986   8.029  0.6932  0.1940 -0.5712
  132OSM   H13F14283   5.883   4.969   8.085  0.4126 -0.7018 -0.3515
  132OSM   H13G14284   5.734   4.890   8.012 -2.1563  1.5716  0.3283
  132OSM   C14F14285   5.691   5.073   8.109 -0.1411  0.1699 -0.4081
  132OSM   H14F14286   5.612   5.109   8.040  0.2462  2.2413  0.1957
  132OSM   H14G14287   5.745   5.167   8.132 -2.4420  2.2165 -3.1387
  132OSM   C15F14288   5.638   5.008   8.242  0.2739  0.4991  0.3033
  132OSM   H15F14289   5.565   5.084   8.278 -1.2782 -0.7184 -0.1756
  132OSM   H15G14290   5.725   4.990   8.308  0.7485 -1.6559 -0.8698
  132OSM   C16F14291   5.556   4.884   8.191  0.4098 -0.3412 -0.7508
  132OSM   H16F14292   5.623   4.806   8.148  0.4079 -0.2649 -0.8919
  132OSM   H16G14293   5.487   4.913   8.109  0.0654  0.4124 -0.2084
  132OSM   C17F14294   5.471   4.814   8.300  0.1739 -0.3492  0.8585
  132OSM   H17F14295   5.540   4.773   8.377  1.9049  0.5979 -0.1581
  132OSM   H17G14296   5.428   4.718   8.261  2.4899 -1.1078  0.0935
  132OSM   C18F14297   5.357   4.885   8.374 -0.0019  0.7316 -0.6962
  132OSM   H18F14298   5.396   4.970   8.434  1.6604 -0.6112  0.1723
  132OSM   H18G14299   5.316   4.816   8.450 -0.2233  0.1821 -1.3154
  132OSM   H18H14300   5.283   4.908   8.295 -0.7616 -2.0203 -0.8065
  133SAPE     N14301   0.929   3.656  11.048  0.5692  0.3775  0.7896
  133SAPE   HN114302   0.867   3.735  11.022  2.7455  2.3856  1.5084
  133SAPE   HN214303   0.939   3.618  10.951  3.0708 -1.4378  1.7093
  133SAPE   HN314304   0.877   3.588  11.107 -1.7613  1.3978 -0.0429
  133SAPE   C1214305   1.067   3.692  11.095 -0.7708  0.5866 -0.6985
  133SAPE  H12A14306   1.074   3.687  11.206  0.7927 -1.8065 -0.8719
  133SAPE  H12B14307   1.092   3.795  11.062  1.0870 -0.1418 -1.6207
  133SAPE   C1114308   1.166   3.601  11.025  0.6403  0.4040  0.4976
  133SAPE  H11A14309   1.149   3.494  11.050  0.7426  0.3864  0.4919
  133SAPE  H11B14310   1.266   3.626  11.068 -0.0836  2.9625  0.8063
  133SAPE     P14311   1.273   3.697  10.804 -0.0516  0.0649 -0.3994
  133SAPE   O1314312   1.242   3.841  10.818  0.2131 -0.3901  0.1590
  133SAPE   O1414313   1.409   3.650  10.840 -0.0339 -0.6032  0.2583
  133SAPE   O1214314   1.163   3.623  10.878 -0.0168  0.8150 -0.1968
  133SAPE   O1114315   1.241   3.661  10.654  0.2904 -0.3940  0.3572
  133SAPE    C114316   1.180   3.530  10.624 -0.1275  0.6750 -0.3565
  133SAPE    HA14317   1.179   3.459  10.710  0.3884 -0.7741 -1.5209
  133SAPE    HB14318   1.072   3.550  10.610 -1.2213 -2.8631  2.4103
  133SAPE    C214319   1.238   3.452  10.508  0.3132 -0.0287  0.4525
  133SAPE    HS14320   1.343   3.425  10.532  0.3187 -2.6192 -2.2544
  133SAPE   O2114321   1.239   3.532  10.386  0.4217  0.4518  0.3194
  133SAPE   C2114322   1.333   3.512  10.293 -0.0653  0.4419 -0.0715
  133SAPE   O2214323   1.424   3.428  10.305 -0.3270  0.2858 -0.1134
  133SAPE   C2214324   1.301   3.592  10.172 -1.0951 -0.5068  0.1320
  133SAPE   H2R14325   1.191   3.588  10.155 -1.1326  0.9289 -0.0422
  133SAPE   H2S14326   1.322   3.701  10.185  0.4421 -0.5878 -1.4675
  133SAPE    C314327   1.170   3.313  10.483  0.3153  0.1601 -0.1619
  133SAPE    HX14328   1.065   3.348  10.468  0.6395  1.6088  0.9157
  133SAPE    HY14329   1.164   3.261  10.581 -0.6370  1.2358  0.3671
  133SAPE   O3114330   1.222   3.232  10.377  0.1809 -0.0517  0.6191
  133SAPE   C3114331   1.332   3.160  10.409  0.9278 -0.1528 -0.0691
  133SAPE   O3214332   1.372   3.121  10.514  0.0253 -0.2874  0.1647
  133SAPE   C3214333   1.376   3.101  10.277 -0.0536 -0.4102  0.2647
  133SAPE   H2X14334   1.385   2.991  10.293 -0.5780 -0.5416 -0.3368
  133SAPE   H2Y14335   1.476   3.143  10.254 -0.3881  0.1199 -0.2421
  133SAPE   C2314336   1.376   3.546  10.042 -0.4654 -0.3511  0.1957
  133SAPE   H3R14337   1.379   3.435  10.046 -1.1709 -0.3253  1.7478
  133SAPE   H3S14338   1.483   3.572  10.052 -1.1590  2.3166  0.8601
  133SAPE   C2414339   1.319   3.587   9.911 -0.3005 -0.7261  0.5047
  133SAPE   H4R14340   1.208   3.590   9.917 -0.3411  0.7538 -0.5321
  133SAPE   H4S14341   1.360   3.521   9.832 -2.0588 -0.1152 -0.9727
  133SAPE   C2514342   1.365   3.731   9.869 -0.3575  0.3824 -0.5968
  133SAPE   H5R14343   1.367   3.803   9.952 -2.1713 -0.4521  0.1913
  133SAPE   C2614344   1.409   3.776   9.750  0.0692 -0.3030  0.0801
  133SAPE   H6R14345   1.471   3.867   9.750 -1.5116  0.8179 -2.1216
  133SAPE   C2714346   1.434   3.688   9.633 -0.6405 -0.3475  0.1292
  133SAPE   H7R14347   1.441   3.579   9.654 -1.0733 -0.4986 -0.4955
  133SAPE   H7S14348   1.533   3.710   9.588 -1.2536  0.2570 -0.9399
  133SAPE   C2814349   1.335   3.707   9.516  0.3500  0.8393  0.4606
  133SAPE   H8R14350   1.229   3.686   9.537  0.7682 -1.0010  0.8294
  133SAPE   C2914351   1.353   3.763   9.393  0.2606 -0.0835 -0.4532
  133SAPE   H9R14352   1.263   3.766   9.330 -1.0983 -1.0876  1.3937
  133SAPE  C21014353   1.472   3.821   9.323  0.8281  0.2149 -0.1577
  133SAPE  H10R14354   1.520   3.743   9.261 -1.1238 -1.2749  0.1534
  133SAPE  H10S14355   1.549   3.850   9.399  0.1309  3.0400 -0.4578
  133SAPE  C21114356   1.445   3.949   9.240 -0.3693  0.6370  0.2059
  133SAPE  H11R14357   1.378   4.016   9.295 -1.2196 -0.3080  0.3442
  133SAPE  C21214358   1.484   3.970   9.114  0.4620  0.0546 -0.2405
  133SAPE  H12R14359   1.468   4.072   9.075 -1.9164 -0.4274 -0.6075
  133SAPE  C21314360   1.564   3.872   9.022 -0.1917  0.2286  0.1671
  133SAPE  H13R14361   1.617   3.793   9.079  2.3939  0.6505 -1.5748
  133SAPE  H13S14362   1.652   3.934   8.994 -0.1620  1.3294  2.5809
  133SAPE  C21414363   1.482   3.821   8.899  0.2003  0.1697 -0.0684
  133SAPE  H14R14364   1.470   3.712   8.890 -0.1319  0.2289 -0.3939
  133SAPE  C21514365   1.463   3.899   8.791 -0.5610 -0.6597  0.4847
  133SAPE  H15R14366   1.414   3.852   8.704 -0.4264  0.4543 -0.2003
  133SAPE  C21614367   1.508   4.040   8.775 -0.2739  0.5696  1.0060
  133SAPE  H16R14368   1.602   4.058   8.718 -1.8713  2.4826 -1.1385
  133SAPE  H16S14369   1.527   4.091   8.872  3.0051 -1.6617  1.6139
  133SAPE  C21714370   1.409   4.128   8.691 -0.2347  0.5980 -0.4408
  133SAPE  H17R14371   1.308   4.124   8.738 -0.1671 -0.6173 -0.3871
  133SAPE  H17S14372   1.405   4.086   8.589  1.1349 -0.8651  0.0928
  133SAPE  C21814373   1.466   4.271   8.680  0.5173 -0.6086 -0.1165
  133SAPE  H18R14374   1.569   4.276   8.638 -0.2097  1.9985 -1.6641
  133SAPE  H18S14375   1.465   4.334   8.772 -1.2955  1.1782 -1.3228
  133SAPE  C21914376   1.380   4.355   8.579 -1.0313  0.1101  0.1542
  133SAPE  H19R14377   1.284   4.371   8.633 -0.5935 -0.2691  1.0561
  133SAPE  H19S14378   1.355   4.301   8.486 -3.2535  1.1074  0.1410
  133SAPE  C22014379   1.434   4.502   8.554 -0.3815  0.4248  0.7357
  133SAPE  H20R14380   1.542   4.504   8.528 -0.9253  1.1145 -1.5461
  133SAPE  H20S14381   1.425   4.569   8.642 -1.2297 -1.1484  1.8717
  133SAPE  H20T14382   1.380   4.546   8.467  0.6274 -0.8065 -0.5346
  133SAPE   C3314383   1.286   3.126  10.149  0.9966 -0.5799 -1.2339
  133SAPE   H3X14384   1.271   3.234  10.132  0.6521 -0.6587 -1.4427
  133SAPE   H3Y14385   1.190   3.072  10.166  0.3248  0.8730 -0.3285
  133SAPE   C3414386   1.369   3.080  10.032  0.2691  0.0797 -0.2650
  133SAPE   H4X14387   1.380   2.970  10.021 -0.5325  0.0782 -1.0658
  133SAPE   H4Y14388   1.473   3.117  10.047 -0.2482  0.9958  1.1397
  133SAPE   C3514389   1.324   3.132   9.891 -0.7421 -0.0970  0.2386
  133SAPE   H5X14390   1.291   3.237   9.897  0.3491  0.2005  1.0744
  133SAPE   H5Y14391   1.227   3.084   9.866 -0.1663 -0.1225 -2.0982
  133SAPE   C3614392   1.425   3.115   9.775 -0.2466 -0.5249  0.0033
  133SAPE   H6X14393   1.446   3.009   9.749  0.6030  0.0862 -1.8665
  133SAPE   H6Y14394   1.525   3.155   9.803 -0.5594 -0.6654  1.3646
  133SAPE   C3714395   1.380   3.193   9.651  0.1997  0.2559  0.0890
  133SAPE   H7X14396   1.356   3.295   9.687  0.1282  0.8264 -1.5446
  133SAPE   H7Y14397   1.285   3.145   9.618  0.0046  1.3056 -0.8853
  133SAPE   C3814398   1.481   3.189   9.534  0.5414 -0.3407 -0.2505
  133SAPE   H8X14399   1.510   3.083   9.519  0.7291 -0.6278  1.9671
  133SAPE   H8Y14400   1.569   3.253   9.555  0.0250  0.9745 -1.9800
  133SAPE   C3914401   1.440   3.233   9.392 -0.6064 -0.0448 -0.3747
  133SAPE   H9X14402   1.352   3.181   9.347  0.6403 -0.4881 -2.3646
  133SAPE   H9Y14403   1.524   3.202   9.325 -0.8120  0.9176 -1.0902
  133SAPE  C31014404   1.408   3.382   9.372  0.2498  0.3422  0.4789
  133SAPE  H10X14405   1.505   3.430   9.395  1.3218 -1.6983  0.3929
  133SAPE  H10Y14406   1.344   3.418   9.455 -0.0496  1.1418 -0.0992
  133SAPE  C31114407   1.362   3.413   9.232 -0.7149 -0.9287 -0.0698
  133SAPE  H11X14408   1.374   3.519   9.200  1.0784 -1.5499 -1.5631
  133SAPE  H11Y14409   1.256   3.385   9.212 -0.1291 -3.7522  0.5449
  133SAPE  C31214410   1.441   3.343   9.114 -0.1556 -0.5002 -0.5292
  133SAPE  H12X14411   1.549   3.334   9.140 -0.2807  0.4067  0.3603
  133SAPE  H12Y14412   1.436   3.416   9.031  1.0028 -0.2965 -0.4194
  133SAPE  C31314413   1.387   3.208   9.069  0.3026  0.7932  0.8588
  133SAPE  H13X14414   1.283   3.227   9.037  0.3825 -0.1978 -0.0107
  133SAPE  H13Y14415   1.396   3.137   9.155  2.9487  1.3107  1.0676
  133SAPE  C31414416   1.459   3.168   8.943 -0.1623  0.9378 -0.1585
  133SAPE  H14X14417   1.567   3.156   8.965 -0.1120 -1.3495 -1.5077
  133SAPE  H14Y14418   1.443   3.250   8.869 -0.1397 -0.1975 -1.4373
  133SAPE  C31514419   1.395   3.033   8.896 -0.2127  0.3371  0.1259
  133SAPE  H15X14420   1.298   3.051   8.846  0.7603 -4.1062 -3.7662
  133SAPE  H15Y14421   1.395   2.967   8.985  0.4309 -0.9173 -0.7855
  133SAPE  C31614422   1.488   2.975   8.787 -0.0303 -0.4752  0.6580
  133SAPE  H16X14423   1.567   2.921   8.844  3.9180  1.5118 -2.6515
  133SAPE  H16Y14424   1.540   3.061   8.740  1.5802 -0.8960  1.6578
  133SAPE  C31714425   1.403   2.898   8.683 -0.1622 -0.2278  0.1205
  133SAPE  H17X14426   1.464   2.854   8.601 -2.2559 -0.3598 -1.4120
  133SAPE  H17Y14427   1.328   2.967   8.641 -2.3709 -2.3790  0.4122
  133SAPE  C31814428   1.339   2.774   8.746 -0.2531 -0.7322  0.3345
  133SAPE  H18X14429   1.275   2.710   8.681 -0.8050 -2.3801  2.4502
  133SAPE  H18Y14430   1.269   2.799   8.828 -0.0571 -2.7136  1.1337
  133SAPE  H18Z14431   1.422   2.717   8.793  1.9672  2.5594  0.5562
  134SAPE     N14432   4.560   4.395  10.978 -0.2073 -0.0853 -0.1706
  134SAPE   HN114433   4.640   4.405  10.912  0.5930 -0.6542  0.7034
  134SAPE   HN214434   4.486   4.368  10.910 -0.2043  0.8376 -0.5492
  134SAPE   HN314435   4.553   4.493  11.012  1.2138 -0.1125  0.2581
  134SAPE   C1214436   4.606   4.301  11.085  0.6568 -0.4696  0.2399
  134SAPE  H12A14437   4.530   4.282  11.164  2.1027  0.1295  1.8172
  134SAPE  H12B14438   4.693   4.342  11.141  1.9981 -1.9078 -0.7401
  134SAPE   C1114439   4.658   4.172  11.019 -0.1471  0.3198 -0.1630
  134SAPE  H11A14440   4.687   4.104  11.102  1.5610  0.1929 -0.8405
  134SAPE  H11B14441   4.740   4.202  10.951  0.1264  0.9010  0.4199
  134SAPE     P14442   4.552   3.960  10.896  0.0697 -0.5897 -0.0039
  134SAPE   O1314443   4.566   3.882  11.020 -0.4482  0.2558  0.0029
  134SAPE   O1414444   4.422   3.949  10.825  0.6622  0.0587 -0.6287
  134SAPE   O1214445   4.555   4.114  10.933  0.5759  0.5058  0.0179
  134SAPE   O1114446   4.681   3.938  10.807  0.4295 -0.1171  0.5104
  134SAPE    C114447   4.736   4.027  10.704 -1.0917 -0.1417  0.0332
  134SAPE    HA14448   4.732   4.133  10.737 -3.1432  0.4346 -1.9432
  134SAPE    HB14449   4.846   4.011  10.700 -1.2161 -1.8205  2.2499
  134SAPE    C214450   4.676   3.986  10.564  0.4303 -0.4464  0.0535
  134SAPE    HS14451   4.711   4.031  10.469 -0.0357  0.8854  0.4943
  134SAPE   O2114452   4.534   3.991  10.563 -0.1874  0.4981 -0.5719
  134SAPE   C2114453   4.485   4.118  10.567  0.1354 -0.6249  0.1470
  134SAPE   O2214454   4.540   4.221  10.588  0.0891  0.2089 -0.0810
  134SAPE   C2214455   4.329   4.105  10.550  0.3222  0.0976  0.8450
  134SAPE   H2R14456   4.304   4.028  10.626  0.4855 -2.5941 -1.7392
  134SAPE   H2S14457   4.281   4.201  10.580  1.4183  0.8859  0.1090
  134SAPE    C314458   4.706   3.836  10.545 -0.3713 -0.2741 -0.6635
  134SAPE    HX14459   4.628   3.789  10.608 -1.1198  2.1800  0.3370
  134SAPE    HY14460   4.810   3.812  10.576  0.3229  2.3183 -0.7929
  134SAPE   O3114461   4.700   3.795  10.406 -0.3134  0.3479 -0.6605
  134SAPE   C3114462   4.614   3.695  10.373  0.4088  1.0762 -0.2503
  134SAPE   O3214463   4.549   3.626  10.452  0.4111 -0.8006 -1.0083
  134SAPE   C3214464   4.590   3.691  10.220  0.3648  0.2389 -0.1903
  134SAPE   H2X14465   4.677   3.643  10.170 -1.7493 -3.0653 -0.8465
  134SAPE   H2Y14466   4.572   3.792  10.177 -0.2743 -0.1575 -0.8599
  134SAPE   C2314467   4.300   4.042  10.410 -0.7656  0.8020  0.1631
  134SAPE   H3R14468   4.193   4.015  10.414  0.2180 -3.3573  0.3669
  134SAPE   H3S14469   4.360   3.949  10.398 -0.4589  0.7788  1.7293
  134SAPE   C2414470   4.321   4.141  10.288  0.8814  0.4922  0.8682
  134SAPE   H4R14471   4.271   4.079  10.210  0.5700 -1.3988  2.5250
  134SAPE   H4S14472   4.431   4.133  10.278  0.7180 -1.3369  0.1641
  134SAPE   C2514473   4.270   4.282  10.294 -0.3738 -0.4770 -0.1338
  134SAPE   H5R14474   4.297   4.334  10.387  0.3624 -1.5773  0.2846
  134SAPE   C2614475   4.198   4.346  10.196  0.0203 -0.0839  0.1406
  134SAPE   H6R14476   4.156   4.446  10.212 -1.6087 -0.7783  0.2640
  134SAPE   C2714477   4.164   4.285  10.067 -0.1038  0.6837 -0.3169
  134SAPE   H7R14478   4.082   4.211  10.082  1.5912 -0.7169  2.3888
  134SAPE   H7S14479   4.248   4.222  10.033 -2.5138 -0.8937 -3.6236
  134SAPE   C2814480   4.129   4.393   9.969  0.2939  0.0539 -0.0723
  134SAPE   H8R14481   4.115   4.494  10.011 -2.8202 -0.2159 -0.3412
  134SAPE   C2914482   4.087   4.373   9.840  0.5009  0.3845  0.4154
  134SAPE   H9R14483   4.055   4.463   9.786 -1.6879  0.3682  1.5847
  134SAPE  C21014484   4.076   4.234   9.770 -0.6815  0.5111 -0.3415
  134SAPE  H10R14485   4.078   4.147   9.838  0.6349 -0.9976 -2.2479
  134SAPE  H10S14486   4.170   4.229   9.711 -0.3927 -1.8075  0.2932
  134SAPE  C21114487   3.960   4.214   9.665  0.7267 -0.4322  0.2110
  134SAPE  H11R14488   3.862   4.176   9.698  0.1387  1.5383  0.8093
  134SAPE  C21214489   3.967   4.227   9.533  0.1886 -0.4769 -0.6813
  134SAPE  H12R14490   3.874   4.212   9.476 -0.2952  2.8303 -0.8285
  134SAPE  C21314491   4.095   4.255   9.452  0.0237 -0.6671  0.2944
  134SAPE  H13R14492   4.093   4.183   9.367  0.3045 -1.6944  1.1413
  134SAPE  H13S14493   4.186   4.228   9.508 -0.5594 -1.7613  0.7288
  134SAPE  C21414494   4.123   4.397   9.399 -0.9091 -0.2452  0.0263
  134SAPE  H14R14495   4.182   4.455   9.471 -0.7092  0.8563 -1.0076
  134SAPE  C21514496   4.080   4.451   9.278 -0.2130  0.0752 -0.4431
  134SAPE  H15R14497   4.104   4.556   9.258  0.0496  0.9958  4.2006
  134SAPE  C21614498   3.987   4.375   9.180 -0.2392 -0.4056 -0.6382
  134SAPE  H16R14499   3.909   4.445   9.143 -0.3834  0.1960  0.7543
  134SAPE  H16S14500   3.938   4.283   9.219  1.5777 -0.4242  1.7135
  134SAPE  C21714501   4.048   4.318   9.049  0.3548  0.1959  0.0366
  134SAPE  H17R14502   3.967   4.255   9.008 -1.0055  0.2862  2.4805
  134SAPE  H17S14503   4.126   4.241   9.067  0.5369  0.8586  2.2934
  134SAPE  C21814504   4.109   4.421   8.955 -0.4528  0.6059 -1.1563
  134SAPE  H18R14505   4.197   4.469   9.002 -0.5654 -2.9995  2.9988
  134SAPE  H18S14506   4.027   4.493   8.933 -1.2256 -0.8710 -3.2933
  134SAPE  C21914507   4.152   4.364   8.811 -0.6008 -0.5633 -0.5402
  134SAPE  H19R14508   4.090   4.277   8.779 -0.2526 -1.1294  0.3242
  134SAPE  H19S14509   4.254   4.320   8.806 -0.2275  0.4168 -1.7258
  134SAPE  C22014510   4.154   4.469   8.694 -0.6102 -0.2325  0.4180
  134SAPE  H20R14511   4.176   4.421   8.596  0.5198  2.0697 -0.4765
  134SAPE  H20S14512   4.243   4.534   8.703  0.2605 -1.2468 -0.7072
  134SAPE  H20T14513   4.059   4.524   8.683  0.2413  1.0132 -0.9017
  134SAPE   C3314514   4.469   3.599  10.188  0.1909  0.8536  0.0068
  134SAPE   H3X14515   4.497   3.507  10.242 -0.2409  1.1633  0.7548
  134SAPE   H3Y14516   4.458   3.585  10.078 -1.9991  2.9495 -0.0828
  134SAPE   C3414517   4.340   3.666  10.224  0.2638 -0.9973  0.0731
  134SAPE   H4X14518   4.347   3.704  10.329  3.3544 -0.9128 -0.1252
  134SAPE   H4Y14519   4.257   3.592  10.223 -0.3266 -0.3856  1.2082
  134SAPE   C3514520   4.306   3.779  10.129 -0.0702 -0.2779  0.4863
  134SAPE   H5X14521   4.395   3.836  10.096 -0.2365 -0.7100 -0.7344
  134SAPE   H5Y14522   4.234   3.840  10.187 -0.5922 -0.4483  0.0250
  134SAPE   C3614523   4.232   3.724  10.010  0.4705  0.4179  0.2225
  134SAPE   H6X14524   4.140   3.680  10.056  3.2084 -1.5725  4.1073
  134SAPE   H6Y14525   4.283   3.639   9.961 -2.6828 -0.4586 -1.6763
  134SAPE   C3714526   4.199   3.831   9.906 -0.2233 -0.2561 -0.5446
  134SAPE   H7X14527   4.295   3.887   9.898 -0.0484 -0.7309 -1.7567
  134SAPE   H7Y14528   4.126   3.901   9.952 -0.0803  0.5002 -1.4613
  134SAPE   C3814529   4.142   3.776   9.783 -0.8659  0.1230 -0.1607
  134SAPE   H8X14530   4.100   3.856   9.719 -4.2394  0.0498  1.8158
  134SAPE   H8Y14531   4.059   3.704   9.804 -2.0354  1.7289  0.8446
  134SAPE   C3914532   4.254   3.716   9.693  0.0680  0.3738 -0.4420
  134SAPE   H9X14533   4.205   3.652   9.617 -1.0812  0.9466 -0.2009
  134SAPE   H9Y14534   4.328   3.663   9.757 -2.0289 -1.1004  0.8244
  134SAPE  C31014535   4.343   3.820   9.620  0.4342  0.3963 -0.3151
  134SAPE  H10X14536   4.413   3.867   9.692  1.1845 -3.3518  1.4682
  134SAPE  H10Y14537   4.275   3.901   9.585  0.3800  0.7733  0.6452
  134SAPE  C31114538   4.408   3.767   9.498 -0.0119 -0.1874 -0.6413
  134SAPE  H11X14539   4.339   3.710   9.433  0.1408  0.7099 -1.6203
  134SAPE  H11Y14540   4.487   3.699   9.535 -0.2700  0.3466  0.9101
  134SAPE  C31214541   4.473   3.882   9.415  0.2023 -0.0629 -0.5874
  134SAPE  H12X14542   4.529   3.927   9.500 -1.0600 -1.8206  1.2124
  134SAPE  H12Y14543   4.389   3.946   9.380 -1.0097 -0.6787  1.1405
  134SAPE  C31314544   4.582   3.841   9.310  0.3459  0.5029  0.4867
  134SAPE  H13X14545   4.640   3.764   9.366 -3.8742 -2.8470  0.4621
  134SAPE  H13Y14546   4.650   3.926   9.288  0.8799 -0.0228  0.0873
  134SAPE  C31414547   4.510   3.801   9.184  0.5204 -0.4990  0.6530
  134SAPE  H14X14548   4.446   3.886   9.152  0.4359  0.3218  2.9528
  134SAPE  H14Y14549   4.448   3.711   9.202 -1.1514  0.3688 -0.6849
  134SAPE  C31514550   4.600   3.755   9.070  0.3706  0.2495  0.9968
  134SAPE  H15X14551   4.624   3.647   9.085 -1.8972 -0.2647  1.2100
  134SAPE  H15Y14552   4.697   3.807   9.058 -0.1454  1.3791  1.6724
  134SAPE  C31614553   4.523   3.768   8.938 -0.0747 -0.5026 -0.6175
  134SAPE  H16X14554   4.509   3.872   8.902 -3.4516 -1.6584 -3.0070
  134SAPE  H16Y14555   4.425   3.717   8.952 -1.0867  1.4500 -0.4951
  134SAPE  C31714556   4.584   3.697   8.819 -0.1445 -0.3830 -1.3816
  134SAPE  H17X14557   4.508   3.700   8.738  1.1698 -0.2136 -2.6158
  134SAPE  H17Y14558   4.595   3.590   8.846 -3.4486 -0.2942  0.6377
  134SAPE  C31814559   4.718   3.744   8.766 -0.4301  0.1106 -0.1089
  134SAPE  H18X14560   4.761   3.656   8.712 -0.9973  0.1567 -0.6296
  134SAPE  H18Y14561   4.784   3.760   8.855  0.1520 -0.7068 -0.3846
  134SAPE  H18Z14562   4.711   3.829   8.695  0.9038  0.4713  0.1605
  135SAPE     N14563   3.755   2.279  10.881  0.1650  0.3717  0.3594
  135SAPE   HN114564   3.802   2.286  10.789  1.5671  1.7093  1.1614
  135SAPE   HN214565   3.658   2.316  10.873 -0.5623 -0.6047  3.8342
  135SAPE   HN314566   3.804   2.324  10.960  1.4429 -0.0310 -0.1892
  135SAPE   C1214567   3.732   2.133  10.888 -0.0032 -0.3093  0.7350
  135SAPE  H12A14568   3.650   2.122  10.963  0.5986  1.9244  1.7534
  135SAPE  H12B14569   3.822   2.072  10.910  0.2108 -1.1299 -2.1905
  135SAPE   C1114570   3.669   2.087  10.758  0.7856 -0.4025  0.1312
  135SAPE  H11A14571   3.577   2.146  10.738 -0.3014 -2.2316 -0.4909
  135SAPE  H11B14572   3.632   1.983  10.775  1.6769 -0.4609  1.7555
  135SAPE     P14573   3.854   2.004  10.600  0.0716 -0.1006 -0.0193
  135SAPE   O1314574   3.932   2.060  10.487 -0.5800  0.0599 -0.7820
  135SAPE   O1414575   3.932   1.949  10.718 -0.2994 -0.5703 -0.4099
  135SAPE   O1214576   3.753   2.112  10.649  0.5817 -0.4330  0.2673
  135SAPE   O1114577   3.769   1.882  10.550 -0.6928  0.2760 -0.2072
  135SAPE    C114578   3.663   1.892  10.457 -0.5341 -0.1840 -0.0561
  135SAPE    HA14579   3.589   1.966  10.495 -2.0600 -1.2850 -0.8251
  135SAPE    HB14580   3.707   1.939  10.366  1.4850  0.4579  1.2227
  135SAPE    C214581   3.608   1.750  10.439  0.1761 -0.3262 -0.3201
  135SAPE    HS14582   3.599   1.702  10.539  1.9941  1.0192  0.5180
  135SAPE   O2114583   3.699   1.681  10.353 -0.1111 -0.3395 -0.4341
  135SAPE   C2114584   3.684   1.549  10.357 -1.2504  0.1367 -0.0532
  135SAPE   O2214585   3.615   1.492  10.442 -0.7397  0.2668  0.2703
  135SAPE   C2214586   3.759   1.489  10.245  0.1211  0.6989  0.2013
  135SAPE   H2R14587   3.676   1.463  10.176  0.2615 -0.0729  0.3199
  135SAPE   H2S14588   3.818   1.568  10.193  2.1004 -0.9123 -0.0917
  135SAPE    C314589   3.468   1.750  10.370 -0.1378  0.0557  0.2195
  135SAPE    HX14590   3.405   1.805  10.444 -1.0565  0.6180 -0.9472
  135SAPE    HY14591   3.422   1.649  10.361 -1.5963  0.4944  2.2867
  135SAPE   O3114592   3.460   1.825  10.246  0.0640 -0.2316 -0.0791
  135SAPE   C3114593   3.469   1.750  10.137  0.5456  0.2630  0.2116
  135SAPE   O3214594   3.462   1.627  10.146  0.1189  0.0420 -0.1828
  135SAPE   C3214595   3.470   1.842  10.018 -0.3684 -0.7020  0.0329
  135SAPE   H2X14596   3.533   1.928  10.050  0.3491  0.4641 -4.1924
  135SAPE   H2Y14597   3.368   1.880   9.994 -0.3159 -0.4219  0.2407
  135SAPE   C2314598   3.853   1.371  10.280 -0.2877 -0.1328 -0.1071
  135SAPE   H3R14599   3.793   1.277  10.279 -2.1236  0.9971  0.4481
  135SAPE   H3S14600   3.901   1.389  10.378 -2.1435 -1.2632  1.0472
  135SAPE   C2414601   3.969   1.356  10.178  0.1325  1.0427 -0.6088
  135SAPE   H4R14602   4.047   1.285  10.213 -0.7349  0.3374 -0.0831
  135SAPE   H4S14603   4.016   1.456  10.166  1.3125  0.4615 -0.9029
  135SAPE   C2514604   3.924   1.306  10.045  0.3440  0.0038 -0.4222
  135SAPE   H5R14605   3.837   1.238  10.047  1.7437 -1.7789  0.7865
  135SAPE   C2614606   3.979   1.324   9.929  0.2215  0.0583  0.0781
  135SAPE   H6R14607   3.937   1.285   9.835 -0.8662  0.8125  0.2419
  135SAPE   C2714608   4.102   1.412   9.915  0.6288 -0.0062 -0.1746
  135SAPE   H7R14609   4.180   1.390   9.991 -0.8640 -2.0650  0.8103
  135SAPE   H7S14610   4.068   1.516   9.932 -0.5417 -0.0294 -2.1883
  135SAPE   C2814611   4.166   1.401   9.782 -0.4290  0.0649  0.7316
  135SAPE   H8R14612   4.257   1.340   9.772  0.6082  1.3944  1.9215
  135SAPE   C2914613   4.120   1.466   9.669  0.0097 -0.1135  0.3539
  135SAPE   H9R14614   4.168   1.434   9.576  1.6874  0.0922  1.1398
  135SAPE  C21014615   3.986   1.548   9.664  0.0496  0.2444  0.1956
  135SAPE  H10R14616   3.997   1.650   9.709  1.4511  0.2797 -0.1981
  135SAPE  H10S14617   3.922   1.505   9.743  0.0578  0.5431  0.3668
  135SAPE  C21114618   3.916   1.558   9.527  0.8145 -0.0528 -0.5250
  135SAPE  H11R14619   3.895   1.465   9.472  0.7185 -0.7571  0.6872
  135SAPE  C21214620   3.883   1.665   9.458  0.7448  0.2309 -0.4049
  135SAPE  H12R14621   3.849   1.654   9.354  1.3111  0.7865 -0.6526
  135SAPE  C21314622   3.893   1.806   9.515 -0.4318 -0.4235  0.1331
  135SAPE  H13R14623   3.867   1.794   9.623  2.6820 -2.1265  0.7352
  135SAPE  H13S14624   3.804   1.859   9.475 -0.3532 -0.6665 -0.3698
  135SAPE  C21414625   4.026   1.875   9.490  0.4907  0.3691 -0.1365
  135SAPE  H14R14626   4.110   1.858   9.560  0.9607  3.4715  0.1245
  135SAPE  C21514627   4.040   1.980   9.408  0.6295 -0.6619 -0.4875
  135SAPE  H15R14628   4.137   2.026   9.383 -0.1176  2.9532  2.7333
  135SAPE  C21614629   3.930   2.043   9.324  0.2665  0.5134  0.5360
  135SAPE  H16R14630   3.952   2.147   9.294  0.9580  0.6302  1.4086
  135SAPE  H16S14631   3.846   2.058   9.395 -1.3654  2.0478 -1.6587
  135SAPE  C21714632   3.894   1.956   9.214  0.8059 -0.5125 -0.3757
  135SAPE  H17R14633   3.784   1.961   9.199  0.9457  0.1477 -1.2336
  135SAPE  H17S14634   3.920   1.848   9.224 -0.1800 -0.7054  0.1737
  135SAPE  C21814635   3.958   2.014   9.089  0.4478 -0.5043 -0.8293
  135SAPE  H18R14636   4.064   2.034   9.116 -0.4733  0.5064  2.2506
  135SAPE  H18S14637   3.918   2.110   9.050 -1.3595 -0.8780  0.0370
  135SAPE  C21914638   3.957   1.921   8.970  0.3488 -0.3888  0.1971
  135SAPE  H19R14639   3.856   1.885   8.940 -0.4981 -0.2975  2.8012
  135SAPE  H19S14640   4.007   1.828   9.006 -0.0369 -0.9468 -0.7022
  135SAPE  C22014641   4.029   1.974   8.843 -0.8963 -0.1122 -0.7680
  135SAPE  H20R14642   4.135   1.998   8.865 -0.9156 -1.9095  1.5301
  135SAPE  H20S14643   3.989   2.072   8.810  0.2618  0.4233 -0.6150
  135SAPE  H20T14644   4.023   1.896   8.764 -1.4010 -0.9090  0.0337
  135SAPE   C3314645   3.519   1.773   9.893 -0.1460 -0.5999  0.9316
  135SAPE   H3X14646   3.453   1.685   9.872 -1.2504  0.5067 -0.2989
  135SAPE   H3Y14647   3.618   1.725   9.910  0.3574 -0.0048 -0.2491
  135SAPE   C3414648   3.506   1.871   9.774 -0.7231  0.3975 -0.1210
  135SAPE   H4X14649   3.581   1.948   9.799 -0.2765  0.5246 -1.7416
  135SAPE   H4Y14650   3.403   1.913   9.779 -1.2225 -0.6865 -0.8146
  135SAPE   C3514651   3.523   1.801   9.635  0.2735  0.3625 -0.7802
  135SAPE   H5X14652   3.454   1.716   9.616 -0.6757  0.8007  0.6550
  135SAPE   H5Y14653   3.623   1.752   9.634 -0.0410 -0.4164  1.6696
  135SAPE   C3614654   3.503   1.908   9.525  0.1041  0.4688 -0.4373
  135SAPE   H6X14655   3.592   1.974   9.526  0.8242 -0.5087  0.9890
  135SAPE   H6Y14656   3.412   1.967   9.551  0.5291  1.1968 -0.5739
  135SAPE   C3714657   3.486   1.849   9.379 -0.2075 -0.4829  0.0092
  135SAPE   H7X14658   3.572   1.784   9.352 -0.3065  0.2665 -2.2754
  135SAPE   H7Y14659   3.471   1.922   9.296  1.9548  1.3322  1.1381
  135SAPE   C3814660   3.364   1.759   9.372  0.3623 -0.2529  0.2672
  135SAPE   H8X14661   3.279   1.789   9.436  0.5805  0.2905  0.3040
  135SAPE   H8Y14662   3.395   1.658   9.406  1.0394 -0.9263 -2.2260
  135SAPE   C3914663   3.301   1.743   9.233  0.5515  0.4636 -0.1288
  135SAPE   H9X14664   3.290   1.839   9.177  0.5625  0.1022 -0.7547
  135SAPE   H9Y14665   3.193   1.718   9.239  0.5597  0.5263  0.2669
  135SAPE  C31014666   3.366   1.633   9.152 -0.1645 -0.3738  0.1034
  135SAPE  H10X14667   3.362   1.538   9.209  0.4964  0.2209  1.1629
  135SAPE  H10Y14668   3.473   1.656   9.132 -0.2896  0.5221  0.4572
  135SAPE  C31114669   3.311   1.620   9.009  0.4967  0.4510  0.3394
  135SAPE  H11X14670   3.308   1.711   8.946 -1.3362 -0.3059 -0.7095
  135SAPE  H11Y14671   3.203   1.594   9.021  0.1024  0.6855 -2.3776
  135SAPE  C31214672   3.374   1.505   8.931 -0.2778  0.0067 -0.1312
  135SAPE  H12X14673   3.302   1.486   8.849  1.4646  1.2591 -2.0094
  135SAPE  H12Y14674   3.394   1.411   8.987  0.3633 -0.0325 -0.4225
  135SAPE  C31314675   3.494   1.561   8.849 -0.0460 -0.3341 -0.6517
  135SAPE  H13X14676   3.578   1.581   8.919  0.1412 -1.0127 -0.6815
  135SAPE  H13Y14677   3.461   1.659   8.808  1.1251  0.5243  0.4192
  135SAPE  C31414678   3.541   1.466   8.741 -0.3855  0.5010  0.1759
  135SAPE  H14X14679   3.454   1.442   8.677 -1.1245  2.8593  0.2437
  135SAPE  H14Y14680   3.576   1.374   8.793 -1.4640  0.2324  0.4560
  135SAPE  C31514681   3.654   1.532   8.662  0.4828 -0.1036  0.6018
  135SAPE  H15X14682   3.741   1.563   8.724  2.1741  0.5843 -2.0197
  135SAPE  H15Y14683   3.602   1.616   8.611  1.2777  0.3667  0.5552
  135SAPE  C31614684   3.699   1.433   8.552  0.0605  0.7159  0.4498
  135SAPE  H16X14685   3.613   1.424   8.482  0.5979 -2.0211  0.0909
  135SAPE  H16Y14686   3.748   1.344   8.595  2.4020  0.5468 -2.4214
  135SAPE  C31714687   3.813   1.490   8.463  0.2492  0.0649  0.1922
  135SAPE  H17X14688   3.899   1.527   8.523  1.0031  1.7960 -1.8713
  135SAPE  H17Y14689   3.774   1.582   8.413  0.3838 -0.6652 -1.2682
  135SAPE  C31814690   3.843   1.406   8.341  0.0732 -0.2410  0.1400
  135SAPE  H18X14691   3.908   1.462   8.272 -1.3695 -0.3025 -1.2960
  135SAPE  H18Y14692   3.753   1.377   8.282  0.9006 -1.2029 -0.6605
  135SAPE  H18Z14693   3.891   1.318   8.389  1.0370  0.1401 -0.1172
  136SAPE     N14694   5.856   2.361  10.759  0.1832  0.1209  0.4681
  136SAPE   HN114695   5.826   2.341  10.662  0.7137  2.2456 -0.1429
  136SAPE   HN214696   5.822   2.289  10.827  2.7341 -0.8149  0.7986
  136SAPE   HN314697   5.821   2.455  10.785  0.6153  0.9813 -1.9610
  136SAPE   C1214698   6.006   2.378  10.756  0.3286  0.4920  0.7675
  136SAPE  H12A14699   6.056   2.411  10.850  2.6389 -0.2195 -0.1652
  136SAPE  H12B14700   6.029   2.450  10.675  0.8353 -1.5019 -0.8848
  136SAPE   C1114701   6.074   2.243  10.720 -0.0308  0.4208  0.4994
  136SAPE  H11A14702   6.180   2.268  10.699 -0.1880  2.6892  2.1423
  136SAPE  H11B14703   6.037   2.210  10.621  2.0296  0.5476 -0.3301
  136SAPE     P14704   6.151   2.112  10.927 -0.1152  0.2763 -0.1867
  136SAPE   O1314705   6.219   2.237  10.968 -0.0623  0.6725 -0.2761
  136SAPE   O1414706   6.094   2.036  11.038 -0.4998 -0.1464 -0.3872
  136SAPE   O1214707   6.044   2.147  10.819  0.2593 -0.7106 -0.2468
  136SAPE   O1114708   6.259   2.023  10.847  0.1817  0.7380  0.4833
  136SAPE    C114709   6.227   1.890  10.813 -0.0766 -0.2483  0.2140
  136SAPE    HA14710   6.159   1.851  10.891 -0.4019  0.0194  0.0684
  136SAPE    HB14711   6.163   1.892  10.722  0.9228 -0.2498 -0.4974
  136SAPE    C214712   6.356   1.799  10.789  0.1350 -0.0265 -0.2100
  136SAPE    HS14713   6.423   1.797  10.878  1.0177 -2.2144 -0.8891
  136SAPE   O2114714   6.427   1.843  10.666 -0.0161 -0.2890 -0.0846
  136SAPE   C2114715   6.506   1.943  10.696  0.5053 -0.1991  0.4455
  136SAPE   O2214716   6.544   1.983  10.806  0.0142  0.0736 -0.1758
  136SAPE   C2214717   6.572   1.989  10.569  0.8057 -0.0033  0.4705
  136SAPE   H2R14718   6.681   2.000  10.588  0.3227  2.9111  1.9082
  136SAPE   H2S14719   6.543   1.920  10.487  0.0200 -0.2307  0.9434
  136SAPE    C314720   6.331   1.648  10.774 -1.4039 -0.2476 -1.0030
  136SAPE    HX14721   6.300   1.606  10.871  0.2598  1.3602  0.2570
  136SAPE    HY14722   6.430   1.605  10.748  0.2041  2.1367  0.9857
  136SAPE   O3114723   6.228   1.628  10.676  0.2598 -0.0249  0.3386
  136SAPE   C3114724   6.249   1.522  10.596  0.3209 -0.9374  0.1483
  136SAPE   O3214725   6.351   1.459  10.589 -0.2176  0.3078 -0.1944
  136SAPE   C3214726   6.128   1.513  10.497  0.0967  0.3405  0.0104
  136SAPE   H2X14727   6.085   1.613  10.478  1.8421  0.7658 -1.9285
  136SAPE   H2Y14728   6.054   1.449  10.550 -0.2002  0.3985 -0.3319
  136SAPE   C2314729   6.526   2.130  10.533 -0.1240  0.2127 -0.0456
  136SAPE   H3R14730   6.554   2.206  10.609  0.8405 -0.6921  0.5329
  136SAPE   H3S14731   6.416   2.125  10.538 -0.0044 -1.5480  1.5151
  136SAPE   C2414732   6.574   2.177  10.395  0.2221  0.4560 -0.0199
  136SAPE   H4R14733   6.524   2.276  10.388 -2.2983 -0.4044  4.0067
  136SAPE   H4S14734   6.528   2.128  10.307 -2.2849  0.5165  1.2192
  136SAPE   C2514735   6.724   2.184  10.382  0.1472 -0.4486  0.4398
  136SAPE   H5R14736   6.784   2.241  10.456 -0.8175  1.9053 -0.5347
  136SAPE   C2614737   6.802   2.135  10.280  0.2104 -0.0357 -0.0570
  136SAPE   H6R14738   6.911   2.146  10.285  0.1578  0.4142  0.1921
  136SAPE   C2714739   6.749   2.048  10.166 -0.4619 -0.5346 -0.2882
  136SAPE   H7R14740   6.745   2.106  10.071 -0.1176  0.2574  0.1740
  136SAPE   H7S14741   6.643   2.017  10.178  0.0424 -1.8004  0.8966
  136SAPE   C2814742   6.829   1.925  10.151  0.1645  0.2296  0.0780
  136SAPE   H8R14743   6.879   1.899  10.245  0.4436  0.4460 -0.0110
  136SAPE   C2914744   6.834   1.834  10.050  0.2721 -0.3338 -0.2576
  136SAPE   H9R14745   6.911   1.756  10.063 -0.8723 -1.1722  1.7715
  136SAPE  C21014746   6.771   1.837   9.916 -0.0051  0.0269 -0.0372
  136SAPE  H10R14747   6.742   1.940   9.889 -0.9944  0.4128  2.4065
  136SAPE  H10S14748   6.680   1.773   9.915 -1.3652  1.8333  2.2889
  136SAPE  C21114749   6.860   1.784   9.807 -0.3929 -0.1003 -0.0192
  136SAPE  H11R14750   6.925   1.702   9.843 -0.4147 -0.0891  0.0440
  136SAPE  C21214751   6.859   1.817   9.677  0.0032  0.4044  0.4149
  136SAPE  H12R14752   6.921   1.768   9.601  1.6167 -0.4170  2.2289
  136SAPE  C21314753   6.781   1.933   9.609  0.6116 -0.0876 -0.0338
  136SAPE  H13R14754   6.736   1.999   9.686  0.3214 -0.4176  0.0819
  136SAPE  H13S14755   6.692   1.892   9.556  0.3322  0.3412  0.1008
  136SAPE  C21414756   6.873   2.017   9.524  0.2147 -0.2808 -0.7791
  136SAPE  H14R14757   6.880   1.999   9.416  3.4189  1.6456 -0.9320
  136SAPE  C21514758   6.946   2.127   9.572  0.0210  0.8582  1.1520
  136SAPE  H15R14759   7.004   2.185   9.500  0.4674  0.0775  0.8792
  136SAPE  C21614760   6.941   2.167   9.723 -0.1683  0.0322 -0.0635
  136SAPE  H16R14761   6.933   2.078   9.789  2.3005  0.2339  0.5605
  136SAPE  H16S14762   6.847   2.223   9.742 -1.3492 -2.4432  1.7150
  136SAPE  C21714763   7.070   2.252   9.756  0.5369  0.2394  0.8814
  136SAPE  H17R14764   7.051   2.352   9.711  1.6032 -0.4042 -1.0762
  136SAPE  H17S14765   7.151   2.188   9.716 -1.2807 -1.6418  0.0796
  136SAPE  C21814766   7.096   2.273   9.905 -0.3520 -0.4276 -0.2396
  136SAPE  H18R14767   7.194   2.322   9.927  0.4183 -0.4760 -3.3688
  136SAPE  H18S14768   7.084   2.170   9.946  1.1011 -1.2204 -1.7534
  136SAPE  C21914769   6.997   2.363   9.983 -0.0099  0.2945 -0.2267
  136SAPE  H19R14770   6.891   2.335   9.965  0.4756 -0.7474 -1.5925
  136SAPE  H19S14771   7.004   2.458   9.926 -1.7408 -0.3754 -1.6287
  136SAPE  C22014772   7.025   2.386  10.131 -1.0030  0.3390  0.6256
  136SAPE  H20R14773   7.128   2.423  10.150  0.3809 -2.5903 -0.8557
  136SAPE  H20S14774   7.013   2.295  10.194 -0.9451  0.1033  0.2970
  136SAPE  H20T14775   6.962   2.473  10.159 -0.4241  2.0265 -3.0711
  136SAPE   C3314776   6.172   1.444  10.364  0.1118 -0.3397 -0.7495
  136SAPE   H3X14777   6.199   1.338  10.384 -1.7464 -0.4224  1.4829
  136SAPE   H3Y14778   6.255   1.495  10.311  0.7842 -0.4279  0.2131
  136SAPE   C3414779   6.044   1.437  10.269 -0.6275 -0.2090 -0.0130
  136SAPE   H4X14780   6.006   1.537  10.241  3.0423  0.3526 -3.5261
  136SAPE   H4Y14781   5.960   1.384  10.318  1.1550 -0.6846  2.6290
  136SAPE   C3514782   6.084   1.378  10.134  0.6092  0.5542 -0.1437
  136SAPE   H5X14783   6.119   1.276  10.161 -3.2295 -1.2368 -1.5073
  136SAPE   H5Y14784   6.176   1.431  10.102  0.5951  0.2467 -0.7139
  136SAPE   C3614785   5.982   1.381  10.023 -0.1506 -0.0696 -0.9987
  136SAPE   H6X14786   5.964   1.491  10.021  1.2631  0.2481  1.1167
  136SAPE   H6Y14787   5.893   1.326  10.059  0.0973  1.1365  1.6260
  136SAPE   C3714788   6.043   1.333   9.890  0.2682  0.0997 -0.0068
  136SAPE   H7X14789   6.037   1.223   9.900  1.6891  0.0312  0.1932
  136SAPE   H7Y14790   6.147   1.369   9.873  0.8727  0.1196  3.4279
  136SAPE   C3814791   5.959   1.373   9.772  0.1574  0.3785 -0.3122
  136SAPE   H8X14792   5.963   1.484   9.769 -0.6747  0.4477  0.5699
  136SAPE   H8Y14793   5.853   1.341   9.789  0.3097  0.8269  1.6301
  136SAPE   C3914794   6.004   1.309   9.642 -0.0745  0.2773 -0.5289
  136SAPE   H9X14795   6.012   1.198   9.649 -0.8141  0.2445 -0.2214
  136SAPE   H9Y14796   6.103   1.351   9.615  0.6850 -0.9122  0.3870
  136SAPE  C31014797   5.916   1.337   9.519 -0.4063  0.9777  0.4437
  136SAPE  H10X14798   5.920   1.447   9.506 -0.6121  0.6433 -2.6062
  136SAPE  H10Y14799   5.813   1.299   9.535 -0.0403 -0.2262 -0.0333
  136SAPE  C31114800   5.973   1.272   9.395  0.2415 -0.2423 -0.5929
  136SAPE  H11X14801   5.995   1.165   9.416 -0.5034 -0.2575  0.1342
  136SAPE  H11Y14802   6.076   1.314   9.386 -0.4318  1.3953 -0.7442
  136SAPE  C31214803   5.901   1.293   9.269 -0.3470  0.0345  0.0456
  136SAPE  H12X14804   5.888   1.403   9.260 -0.9634 -0.2088 -2.6278
  136SAPE  H12Y14805   5.797   1.255   9.275 -0.5108  0.6168  0.8429
  136SAPE  C31314806   5.977   1.241   9.146 -0.1648  0.5909  0.0057
  136SAPE  H13X14807   5.940   1.139   9.122  0.4523  0.2208  0.5983
  136SAPE  H13Y14808   6.087   1.249   9.161  0.1110 -0.3555 -1.5103
  136SAPE  C31414809   5.950   1.330   9.017  0.9088 -0.0116 -0.0976
  136SAPE  H14X14810   5.985   1.434   9.036  0.3567  0.3661 -1.1145
  136SAPE  H14Y14811   5.840   1.342   9.012  0.5280 -2.7271  1.2307
  136SAPE  C31514812   5.998   1.274   8.882  0.1350  0.1535 -0.4297
  136SAPE  H15X14813   5.981   1.165   8.869 -1.4797  0.5212 -1.5451
  136SAPE  H15Y14814   6.109   1.283   8.875  0.3493 -2.3156 -0.8842
  136SAPE  C31614815   5.928   1.331   8.758 -0.0622 -0.2979  0.4745
  136SAPE  H16X14816   5.934   1.442   8.761 -1.0753 -0.2159 -0.2581
  136SAPE  H16Y14817   5.823   1.294   8.757  0.3141 -1.4205  1.2815
  136SAPE  C31714818   5.994   1.286   8.626  0.3741 -0.0955 -0.2222
  136SAPE  H17X14819   5.991   1.178   8.652  1.7489 -0.9801 -3.4719
  136SAPE  H17Y14820   6.102   1.312   8.619  0.5287 -1.3845 -3.1327
  136SAPE  C31814821   5.924   1.318   8.496  0.5398  0.0927  0.6263
  136SAPE  H18X14822   5.971   1.404   8.443 -0.0280 -0.8697 -1.4784
  136SAPE  H18Y14823   5.818   1.344   8.518  0.9003  1.2654  1.0480
  136SAPE  H18Z14824   5.922   1.231   8.427 -1.1293  2.1557 -1.9906
  137SAPE     N14825   5.006   5.168  10.972 -0.3232 -0.5992 -0.1934
  137SAPE   HN114826   4.978   5.115  10.887  0.0251 -1.8461  0.4704
  137SAPE   HN214827   4.994   5.266  10.939 -2.9934 -1.4009 -1.7424
  137SAPE   HN314828   5.104   5.143  10.996 -0.3896 -0.4741  0.2108
  137SAPE   C1214829   4.918   5.163  11.094 -0.6577  0.2494 -0.2622
  137SAPE  H12A14830   4.909   5.265  11.138 -1.9360 -0.7752  1.9007
  137SAPE  H12B14831   4.972   5.090  11.157 -0.0777 -0.1590 -1.2056
  137SAPE   C1114832   4.774   5.122  11.049  0.3026 -0.1539  0.7045
  137SAPE  H11A14833   4.714   5.091  11.137  3.1392  0.6592  3.0027
  137SAPE  H11B14834   4.769   5.026  10.992  1.8811  0.5356 -0.6331
  137SAPE     P14835   4.669   5.228  10.840  0.5568 -0.0477 -0.3625
  137SAPE   O1314836   4.580   5.109  10.831  1.0156  0.4628 -0.0887
  137SAPE   O1414837   4.611   5.361  10.807  0.1165 -0.8726  0.4390
  137SAPE   O1214838   4.712   5.235  10.985  0.0792  0.3131 -0.6333
  137SAPE   O1114839   4.795   5.187  10.759 -0.2261 -0.2868  0.4336
  137SAPE    C114840   4.861   5.275  10.662  0.1321  0.3127 -0.0079
  137SAPE    HA14841   4.862   5.383  10.687  1.4082  0.1061  0.9087
  137SAPE    HB14842   4.969   5.251  10.663  0.3733  1.3809  2.0081
  137SAPE    C214843   4.820   5.236  10.516 -0.1887 -0.3273 -0.0356
  137SAPE    HS14844   4.875   5.299  10.443  0.6406  2.0150  2.5426
  137SAPE   O2114845   4.683   5.266  10.484  0.3440 -0.0095  0.4158
  137SAPE   C2114846   4.643   5.383  10.486  0.1861 -0.4525 -0.6337
  137SAPE   O2214847   4.711   5.482  10.511  0.1140 -0.1128 -0.0151
  137SAPE   C2214848   4.493   5.381  10.489 -0.5574  0.3497 -0.7667
  137SAPE   H2R14849   4.461   5.280  10.457  0.5406  0.3746 -2.0108
  137SAPE   H2S14850   4.473   5.379  10.599 -1.0616  1.3570 -0.8407
  137SAPE    C314851   4.844   5.083  10.484 -0.0442 -0.5555 -0.1739
  137SAPE    HX14852   4.783   5.034  10.563  1.4295  0.3735  1.5745
  137SAPE    HY14853   4.949   5.052  10.506 -0.8071 -1.8856  1.7812
  137SAPE   O3114854   4.827   5.040  10.346 -0.3384  0.3344 -0.4719
  137SAPE   C3114855   4.710   4.994  10.312  0.3943  0.2353 -0.4415
  137SAPE   O3214856   4.626   4.968  10.394  0.2805  0.0121 -0.1387
  137SAPE   C3214857   4.701   4.963  10.162  0.3417  0.2336  0.1084
  137SAPE   H2X14858   4.768   4.875  10.160  0.5426  0.3649 -4.4956
  137SAPE   H2Y14859   4.738   5.044  10.095  0.1306 -0.7759 -1.2497
  137SAPE   C2314860   4.410   5.499  10.437  0.3364 -0.2342  0.1544
  137SAPE   H3R14861   4.440   5.593  10.488  0.6324  0.3796 -1.1083
  137SAPE   H3S14862   4.308   5.474  10.473  0.3785 -1.9122 -0.8243
  137SAPE   C2414863   4.415   5.504  10.277 -0.4394 -0.3993  1.0979
  137SAPE   H4R14864   4.513   5.548  10.246 -1.6505  1.7284  0.1911
  137SAPE   H4S14865   4.335   5.575  10.246  1.1684  0.6744 -0.7265
  137SAPE   C2514866   4.380   5.369  10.214 -0.2389  0.0923 -0.8299
  137SAPE   H5R14867   4.297   5.318  10.265  1.2429 -0.9056  0.6348
  137SAPE   C2614868   4.436   5.307  10.104  0.5277  0.1568 -0.6070
  137SAPE   H6R14869   4.411   5.204  10.075 -2.2943  0.3731  0.8533
  137SAPE   C2714870   4.547   5.357  10.022 -0.0538 -0.3522 -0.1295
  137SAPE   H7R14871   4.578   5.275   9.954 -1.2653 -0.2975 -0.7546
  137SAPE   H7S14872   4.636   5.379  10.085  1.2967 -0.1390 -2.0537
  137SAPE   C2814873   4.523   5.494   9.950 -0.7027  0.8016  0.5557
  137SAPE   H8R14874   4.495   5.579  10.014 -1.5320 -1.0935  2.7576
  137SAPE   C2914875   4.522   5.517   9.815  0.7036 -0.6021 -0.3619
  137SAPE   H9R14876   4.503   5.617   9.773  1.5055 -0.8135 -1.2604
  137SAPE  C21014877   4.549   5.414   9.717  0.4815 -0.0064  0.5305
  137SAPE  H10R14878   4.582   5.317   9.759 -1.6724 -0.3317  1.5493
  137SAPE  H10S14879   4.629   5.454   9.651 -1.6430  2.2611 -0.7719
  137SAPE  C21114880   4.429   5.402   9.620  0.0529  0.3958  0.7812
  137SAPE  H11R14881   4.338   5.357   9.664  0.7128 -0.1318  1.6056
  137SAPE  C21214882   4.426   5.426   9.488  0.1128  1.8560 -0.5216
  137SAPE  H12R14883   4.330   5.398   9.440  0.8510  0.9631 -1.5159
  137SAPE  C21314884   4.544   5.461   9.402  0.5014 -0.0263  0.2194
  137SAPE  H13R14885   4.530   5.401   9.310 -0.2154 -0.0664  0.3465
  137SAPE  H13S14886   4.640   5.440   9.453  1.4690  1.6602 -0.8439
  137SAPE  C21414887   4.535   5.601   9.354  0.2442  0.2586 -0.0472
  137SAPE  H14R14888   4.482   5.665   9.425 -0.6288  1.2632 -1.5647
  137SAPE  C21514889   4.571   5.652   9.236  0.2144  0.1502 -0.1314
  137SAPE  H15R14890   4.574   5.761   9.224  1.2014  0.0686 -0.6929
  137SAPE  C21614891   4.635   5.561   9.133  0.8876 -0.3190 -0.9427
  137SAPE  H16R14892   4.679   5.472   9.182 -0.9415 -1.0944 -0.6544
  137SAPE  H16S14893   4.712   5.619   9.078  0.1690 -0.8466 -2.5350
  137SAPE  C21714894   4.533   5.521   9.022  0.6021  0.0405 -0.4578
  137SAPE  H17R14895   4.491   5.608   8.969  1.2865  0.9475  0.4711
  137SAPE  H17S14896   4.453   5.464   9.075  1.5341 -1.5213 -0.6809
  137SAPE  C21814897   4.583   5.423   8.911  0.1238  0.1140  0.2984
  137SAPE  H18R14898   4.632   5.332   8.949 -0.5639 -0.6901 -0.7073
  137SAPE  H18S14899   4.660   5.486   8.861 -0.5370 -0.9484 -2.1489
  137SAPE  C21914900   4.480   5.387   8.810 -0.7751  0.4740  0.1842
  137SAPE  H19R14901   4.410   5.313   8.854 -0.1728 -0.2746 -0.1040
  137SAPE  H19S14902   4.542   5.324   8.744 -1.4646 -0.7171  0.6470
  137SAPE  C22014903   4.401   5.495   8.738 -0.1104 -0.2931 -0.4591
  137SAPE  H20R14904   4.331   5.540   8.812  1.8595  1.0081  0.6583
  137SAPE  H20S14905   4.339   5.455   8.655 -0.4668  1.4955 -1.0914
  137SAPE  H20T14906   4.468   5.573   8.695 -1.2684  0.9868  0.0219
  137SAPE   C3314907   4.561   4.917  10.103 -0.0044  0.1070  0.5348
  137SAPE   H3X14908   4.487   5.000  10.106 -0.5928 -0.3017 -1.7376
  137SAPE   H3Y14909   4.522   4.832  10.163 -2.9740  2.3124  1.9062
  137SAPE   C3414910   4.577   4.874   9.952 -0.2516 -0.5564 -0.5202
  137SAPE   H4X14911   4.486   4.824   9.914  0.0909 -0.9948 -0.7594
  137SAPE   H4Y14912   4.658   4.798   9.945 -0.1194 -0.4962  0.3437
  137SAPE   C3514913   4.612   4.991   9.852 -0.0826 -0.3664  0.3172
  137SAPE   H5X14914   4.703   5.040   9.894 -1.9571  3.0645  0.4592
  137SAPE   H5Y14915   4.521   5.054   9.856 -0.7664 -1.3505  0.6218
  137SAPE   C3614916   4.629   4.932   9.712 -0.0535  0.9246 -0.2702
  137SAPE   H6X14917   4.553   4.851   9.706 -0.0871  0.9815 -0.6222
  137SAPE   H6Y14918   4.725   4.876   9.706 -0.5886  0.1501 -2.3210
  137SAPE   C3714919   4.626   5.033   9.602  0.9011  0.9463 -0.0232
  137SAPE   H7X14920   4.709   5.103   9.626 -0.2765  1.4730  2.6678
  137SAPE   H7Y14921   4.537   5.099   9.603  0.1279 -0.0925  0.1263
  137SAPE   C3814922   4.641   4.960   9.471 -0.4298 -0.5045 -0.2966
  137SAPE   H8X14923   4.554   4.899   9.440 -0.6065 -0.9970  1.1402
  137SAPE   H8Y14924   4.729   4.893   9.464 -0.0195 -0.1907  1.6249
  137SAPE   C3914925   4.667   5.048   9.348 -0.1444  0.5817 -0.0172
  137SAPE   H9X14926   4.742   5.127   9.369 -1.2269  1.4156  0.7820
  137SAPE   H9Y14927   4.569   5.099   9.334  0.4813  1.3214 -1.7556
  137SAPE  C31014928   4.702   4.972   9.225 -0.5332 -0.0159 -0.1692
  137SAPE  H10X14929   4.620   4.901   9.198  0.0912 -0.1939 -1.6327
  137SAPE  H10Y14930   4.799   4.920   9.245 -1.2278 -0.6708  1.6143
  137SAPE  C31114931   4.736   5.074   9.116 -0.1201  0.0925 -1.1483
  137SAPE  H11X14932   4.837   5.121   9.126  0.0770 -0.4735 -0.4163
  137SAPE  H11Y14933   4.670   5.163   9.129  0.1595  0.1772 -0.2292
  137SAPE  C31214934   4.728   5.020   8.979  0.4031 -0.2777  0.3655
  137SAPE  H12X14935   4.742   5.102   8.905 -0.9467  1.0546  1.5435
  137SAPE  H12Y14936   4.628   4.976   8.956 -0.1150  0.3106  1.4601
  137SAPE  C31314937   4.846   4.925   8.951  0.3746  0.7660 -0.6688
  137SAPE  H13X14938   4.819   4.833   9.006  1.5072  0.5635 -0.4419
  137SAPE  H13Y14939   4.934   4.975   8.997  1.9305 -3.2012  0.8704
  137SAPE  C31414940   4.859   4.888   8.806 -0.2335  0.3083  0.6018
  137SAPE  H14X14941   4.762   4.864   8.758  0.3496  0.7591 -0.8268
  137SAPE  H14Y14942   4.927   4.800   8.813 -0.0189  0.3791 -0.4045
  137SAPE  C31514943   4.938   4.991   8.712  0.1934 -0.2533 -0.4701
  137SAPE  H15X14944   5.048   4.986   8.726  0.4192  1.7774 -1.4098
  137SAPE  H15Y14945   4.905   5.094   8.738 -0.3545 -0.2883 -1.0177
  137SAPE  C31614946   4.898   4.970   8.559 -0.3435  0.3954 -0.3140
  137SAPE  H16X14947   4.801   5.018   8.535 -0.2164  0.7152 -0.2045
  137SAPE  H16Y14948   4.885   4.860   8.551  2.2820  0.1168 -1.1955
  137SAPE  C31714949   5.016   5.003   8.462 -0.0721  0.4148 -0.0583
  137SAPE  H17X14950   5.098   4.935   8.494 -1.3840 -1.7878 -1.2192
  137SAPE  H17Y14951   5.031   5.110   8.486  0.2028 -0.0196  1.8524
  137SAPE  C31814952   4.979   4.955   8.325 -0.2582 -0.5573 -0.1547
  137SAPE  H18X14953   4.894   5.016   8.287 -1.4021 -2.3140 -0.4812
  137SAPE  H18Y14954   4.951   4.847   8.325  0.1021 -0.6564 -1.1750
  137SAPE  H18Z14955   5.052   4.966   8.242 -0.4800 -0.4385 -0.3343
  138SAPE     N14956   2.169   6.250  10.597 -0.2042 -0.2410 -0.5434
  138SAPE   HN114957   2.147   6.222  10.500 -0.0134  2.5516 -1.4199
  138SAPE   HN214958   2.244   6.195  10.644  0.6944  1.6415  0.3030
  138SAPE   HN314959   2.081   6.226  10.647  0.4014 -0.3961  0.4710
  138SAPE   C1214960   2.210   6.396  10.599  1.1569 -0.8001  0.4553
  138SAPE  H12A14961   2.296   6.410  10.530  0.2363 -3.6922 -1.3743
  138SAPE  H12B14962   2.235   6.419  10.705  1.2298 -1.7638  0.6555
  138SAPE   C1114963   2.088   6.488  10.563 -0.1468  0.4613  0.0112
  138SAPE  H11A14964   2.039   6.451  10.470 -0.4783 -1.2463  0.8350
  138SAPE  H11B14965   2.133   6.587  10.542 -0.9950  0.9253  0.3865
  138SAPE     P14966   1.920   6.625  10.709  0.2104  0.3063 -0.0336
  138SAPE   O1314967   1.821   6.593  10.813 -0.0122  0.1664  0.4194
  138SAPE   O1414968   2.022   6.724  10.746 -0.5741  1.0240 -0.1375
  138SAPE   O1214969   1.997   6.492  10.673  0.7698  0.1205 -0.0031
  138SAPE   O1114970   1.835   6.670  10.579 -0.4272  0.2136 -0.3012
  138SAPE    C114971   1.716   6.608  10.530  0.1339  0.2484  0.4026
  138SAPE    HA14972   1.681   6.519  10.587  0.6516 -1.0483 -1.2656
  138SAPE    HB14973   1.631   6.679  10.521 -0.1531  0.0577  1.5293
  138SAPE    C214974   1.743   6.560  10.388 -0.1783  0.2630  0.0353
  138SAPE    HS14975   1.804   6.468  10.385  1.5432  1.4193 -1.9585
  138SAPE   O2114976   1.811   6.666  10.314  0.1739  0.3342  0.6391
  138SAPE   C2114977   1.908   6.614  10.233 -0.5534  0.7134 -0.3386
  138SAPE   O2214978   1.945   6.499  10.226  0.6923 -0.3417 -0.1326
  138SAPE   C2214979   1.965   6.719  10.150 -0.0180  0.0582  0.4764
  138SAPE   H2R14980   1.927   6.817  10.187 -0.9716  0.2222 -0.8845
  138SAPE   H2S14981   2.075   6.720  10.167 -0.2522  0.0763  1.9961
  138SAPE    C314982   1.609   6.531  10.307 -0.0232 -0.0978  0.3075
  138SAPE    HX14983   1.546   6.623  10.309  0.8574  0.5247 -0.0944
  138SAPE    HY14984   1.567   6.442  10.358 -0.0976  0.2869  0.9325
  138SAPE   O3114985   1.647   6.487  10.171 -0.0471 -0.1253  0.1010
  138SAPE   C3114986   1.547   6.487  10.086  0.0605  0.5707  0.1446
  138SAPE   O3214987   1.434   6.518  10.105  0.1005  0.2256 -0.1143
  138SAPE   C3214988   1.602   6.440   9.949  0.2954  0.0019  0.2503
  138SAPE   H2X14989   1.633   6.333   9.955 -2.1344 -0.7123  0.5822
  138SAPE   H2Y14990   1.688   6.506   9.925  2.1853 -2.4497 -0.0523
  138SAPE   C2314991   1.924   6.697  10.007  0.6905  0.9741  0.1535
  138SAPE   H3R14992   1.899   6.800   9.975  1.1794  1.3285  0.8872
  138SAPE   H3S14993   1.821   6.655  10.004  0.0447  2.3689  1.8628
  138SAPE   C2414994   2.028   6.659   9.906 -1.3939  0.2594 -0.6968
  138SAPE   H4R14995   2.116   6.727   9.911 -2.6271  2.0007 -2.0553
  138SAPE   H4S14996   1.987   6.681   9.805  0.6706  2.4487 -1.0764
  138SAPE   C2514997   2.067   6.512   9.928  0.0977 -0.2249 -0.1448
  138SAPE   H5R14998   2.101   6.481  10.028  0.6159 -2.0567 -0.8630
  138SAPE   C2614999   2.077   6.424   9.829  0.0474  0.5622 -0.9801
  138SAPE   H6R15000   2.109   6.322   9.853  4.2551  1.9468 -0.2513
  138SAPE   C2715001   2.049   6.450   9.679 -0.5979  0.0842  0.0115
  138SAPE   H7R15002   2.102   6.388   9.604 -0.0211  1.7158 -0.9420
  138SAPE   H7S15003   2.085   6.550   9.647 -2.9142  0.4148 -1.6637
  138SAPE   C2815004   1.904   6.429   9.643  0.0818 -0.3940 -0.5279
  138SAPE   H8R15005   1.862   6.346   9.701 -0.1222  2.7058  3.9814
  138SAPE   C2915006   1.829   6.497   9.552 -0.6844  0.1716 -0.1419
  138SAPE   H9R15007   1.726   6.464   9.533  0.2447 -2.6002 -0.6054
  138SAPE  C21015008   1.876   6.607   9.460  0.5743 -0.0351  0.2579
  138SAPE  H10R15009   1.934   6.561   9.377  1.5401  0.2322  0.7763
  138SAPE  H10S15010   1.953   6.672   9.508  0.1231  0.8556 -0.2201
  138SAPE  C21115011   1.770   6.699   9.409  0.1705 -0.0412  0.3435
  138SAPE  H11R15012   1.723   6.761   9.487 -0.4677 -0.3242  0.1839
  138SAPE  C21215013   1.715   6.708   9.288 -0.1041  0.1778  1.0959
  138SAPE  H12R15014   1.631   6.779   9.274  0.3800  1.0597  2.5665
  138SAPE  C21315015   1.746   6.628   9.167 -0.9787  0.4470  0.1109
  138SAPE  H13R15016   1.838   6.568   9.187 -0.7799  0.9345  0.6810
  138SAPE  H13S15017   1.780   6.693   9.084  2.1580  1.3155  1.9712
  138SAPE  C21415018   1.626   6.542   9.131 -0.0037 -0.6421  0.0340
  138SAPE  H14R15019   1.532   6.600   9.137  0.4305 -0.0522  1.4637
  138SAPE  C21515020   1.625   6.415   9.088 -0.4360  0.6797  0.0306
  138SAPE  H15R15021   1.532   6.358   9.074  1.1927 -2.2176  0.5947
  138SAPE  C21615022   1.748   6.321   9.079  0.8379  0.0117 -0.3631
  138SAPE  H16R15023   1.722   6.223   9.125 -0.3061  0.3072 -0.3764
  138SAPE  H16S15024   1.829   6.367   9.141 -0.1705  2.4957 -0.8380
  138SAPE  C21715025   1.806   6.299   8.943 -0.3950 -0.8496  0.5735
  138SAPE  H17R15026   1.890   6.227   8.941  0.8949  0.6380 -0.4480
  138SAPE  H17S15027   1.861   6.387   8.901 -1.8735  0.2244  0.8470
  138SAPE  C21815028   1.708   6.246   8.832  0.1904  0.1655 -0.8813
  138SAPE  H18R15029   1.634   6.320   8.794 -2.0933 -0.6945  1.7912
  138SAPE  H18S15030   1.653   6.165   8.883 -1.0116  1.1213 -0.6506
  138SAPE  C21915031   1.786   6.171   8.719  0.3263 -0.8434 -0.4930
  138SAPE  H19R15032   1.839   6.083   8.760 -0.7357 -1.6982 -0.9318
  138SAPE  H19S15033   1.867   6.240   8.687  0.4037 -0.6766  0.0578
  138SAPE  C22015034   1.695   6.120   8.609 -0.3857 -0.0211 -0.2545
  138SAPE  H20R15035   1.623   6.049   8.654  0.9497 -1.0184  0.3411
  138SAPE  H20S15036   1.757   6.080   8.525 -1.6280 -0.7798 -0.8240
  138SAPE  H20T15037   1.641   6.206   8.565 -0.5852  1.2822  2.4660
  138SAPE   C3315038   1.491   6.453   9.832  0.2372 -0.3121 -0.5123
  138SAPE   H3X15039   1.498   6.561   9.808  1.2168 -0.9057 -3.0856
  138SAPE   H3Y15040   1.391   6.433   9.876  0.6372 -0.7573  0.2032
  138SAPE   C3415041   1.499   6.368   9.703 -0.9015  0.4944 -0.4616
  138SAPE   H4X15042   1.493   6.257   9.713 -0.7629  0.4011 -1.3584
  138SAPE   H4Y15043   1.595   6.397   9.656 -0.7553  3.5890  1.6124
  138SAPE   C3515044   1.384   6.392   9.603  0.2671  0.0138 -0.0781
  138SAPE   H5X15045   1.360   6.500   9.615  0.4330  0.0643 -0.2011
  138SAPE   H5Y15046   1.299   6.321   9.616  0.9136 -0.4398  1.9909
  138SAPE   C3615047   1.431   6.388   9.454  0.5818 -0.5145 -0.5102
  138SAPE   H6X15048   1.511   6.465   9.449  0.6822 -0.6402 -0.8695
  138SAPE   H6Y15049   1.351   6.428   9.388 -0.6078  0.7243  1.6117
  138SAPE   C3715050   1.498   6.261   9.399  0.3510 -0.5315 -0.1295
  138SAPE   H7X15051   1.545   6.199   9.479  1.8341  0.3113 -0.3266
  138SAPE   H7Y15052   1.569   6.295   9.321 -1.2690 -1.2481 -1.9322
  138SAPE   C3815053   1.399   6.167   9.314  0.3440  1.0317  0.0771
  138SAPE   H8X15054   1.361   6.232   9.232 -1.0299  1.7116  1.2244
  138SAPE   H8Y15055   1.308   6.144   9.373  0.9665  0.7252  0.9283
  138SAPE   C3915056   1.476   6.045   9.270  0.2617  0.1330 -0.8118
  138SAPE   H9X15057   1.493   5.977   9.357  1.6273  0.3428 -0.9027
  138SAPE   H9Y15058   1.579   6.073   9.240  0.5177  0.1031  0.0062
  138SAPE  C31015059   1.405   5.970   9.163 -0.4214  0.0826 -0.1910
  138SAPE  H10X15060   1.308   5.946   9.211  0.1509  2.0439  2.0489
  138SAPE  H10Y15061   1.472   5.882   9.151 -2.1470 -1.7378  3.1349
  138SAPE  C31115062   1.404   6.024   9.022 -0.0927 -0.3215  0.2465
  138SAPE  H11X15063   1.500   6.070   8.990 -1.4870  1.0884 -2.0744
  138SAPE  H11Y15064   1.329   6.105   9.015 -3.7726 -3.7313 -1.9093
  138SAPE  C31215065   1.359   5.922   8.919  0.7614  0.2247 -0.1422
  138SAPE  H12X15066   1.268   5.875   8.963  1.7532  1.5094  3.5133
  138SAPE  H12Y15067   1.442   5.849   8.911  1.1549  0.7213 -0.6216
  138SAPE  C31315068   1.331   5.978   8.785  1.0980  0.4750 -0.0227
  138SAPE  H13X15069   1.341   5.901   8.706  0.2364 -0.2025  0.5177
  138SAPE  H13Y15070   1.405   6.053   8.750  0.5928  1.5042  1.0734
  138SAPE  C31415071   1.189   6.032   8.761  1.1343 -1.0853  0.0875
  138SAPE  H14X15072   1.163   6.101   8.844  1.7108 -1.4904  0.6060
  138SAPE  H14Y15073   1.109   5.954   8.757  0.3889 -0.2614 -1.9199
  138SAPE  C31515074   1.181   6.109   8.627  0.8380 -0.0145 -0.5199
  138SAPE  H15X15075   1.274   6.169   8.617  1.5558 -1.3863 -2.3936
  138SAPE  H15Y15076   1.095   6.180   8.621  0.5481 -0.2342  0.9792
  138SAPE  C31615077   1.176   6.025   8.497  0.2048 -0.1827 -0.2768
  138SAPE  H16X15078   1.089   5.956   8.503  0.5949 -0.5723  0.9288
  138SAPE  H16Y15079   1.264   5.965   8.468  0.8007  0.8351 -0.6076
  138SAPE  C31715080   1.147   6.115   8.366 -0.0113 -0.0303 -0.1481
  138SAPE  H17X15081   1.215   6.201   8.376  0.2680 -0.2844  0.1383
  138SAPE  H17Y15082   1.043   6.155   8.372  0.8809  1.9778  3.2205
  138SAPE  C31815083   1.154   6.045   8.232  0.6625  0.0033  0.0403
  138SAPE  H18X15084   1.256   6.011   8.204  0.7632  0.2874  0.0584
  138SAPE  H18Y15085   1.125   6.119   8.153  0.8085 -2.3211 -2.2571
  138SAPE  H18Z15086   1.084   5.959   8.224  0.3582  0.3121 -0.7473
  139SAPE     N15087   0.378   4.404  10.820 -0.4104  0.1894  0.4932
  139SAPE   HN115088   0.460   4.456  10.856 -0.5375 -0.4915  1.7731
  139SAPE   HN215089   0.300   4.472  10.810 -1.8765 -1.6635 -1.1735
  139SAPE   HN315090   0.346   4.352  10.904 -0.7825 -2.1260 -1.0567
  139SAPE   C1215091   0.417   4.313  10.704 -0.1154 -0.4813 -0.0544
  139SAPE  H12A15092   0.414   4.362  10.605  1.8870  0.7386  0.4509
  139SAPE  H12B15093   0.333   4.240  10.706  0.6503 -1.4119  3.8851
  139SAPE   C1115094   0.550   4.243  10.740 -0.1393 -0.4296  0.1293
  139SAPE  H11A15095   0.569   4.182  10.650  0.6108  1.4781 -1.0442
  139SAPE  H11B15096   0.546   4.177  10.829  1.5370  1.3106  1.5474
  139SAPE     P15097   0.716   4.427  10.651 -0.1002 -0.2926 -0.0728
  139SAPE   O1315098   0.602   4.517  10.620  0.6042 -0.0077 -0.3310
  139SAPE   O1415099   0.843   4.494  10.689 -0.6193  0.4196  0.3688
  139SAPE   O1215100   0.665   4.332  10.762  1.0025 -0.4943  1.0041
  139SAPE   O1115101   0.737   4.331  10.535 -0.7963  0.8085 -0.2500
  139SAPE    C115102   0.850   4.239  10.529  0.2887 -0.4365 -0.3829
  139SAPE    HA15103   0.935   4.279  10.588 -0.7187 -1.2254  1.6529
  139SAPE    HB15104   0.829   4.145  10.584  1.1470 -0.1477  0.4459
  139SAPE    C215105   0.889   4.222  10.385 -0.2437 -0.2643  0.0307
  139SAPE    HS15106   0.990   4.178  10.373  0.1055  0.1937  1.1799
  139SAPE   O2115107   0.876   4.346  10.309  0.1045 -0.0027  0.6742
  139SAPE   C2115108   0.983   4.424  10.349 -0.5525 -0.6349 -0.4236
  139SAPE   O2215109   1.074   4.387  10.421 -0.5479 -0.0944 -0.5106
  139SAPE   C2215110   0.977   4.562  10.280 -0.5753 -0.1386  0.0627
  139SAPE   H2R15111   1.010   4.624  10.366  0.6411 -1.3889  0.5118
  139SAPE   H2S15112   1.059   4.560  10.206 -0.1985 -2.9385  0.5083
  139SAPE    C315113   0.798   4.121  10.309 -0.3547 -0.0952  0.0227
  139SAPE    HX15114   0.823   4.123  10.201  1.1200 -1.8659  0.3191
  139SAPE    HY15115   0.702   4.177  10.320 -0.7068 -0.9123  1.2236
  139SAPE   O3115116   0.793   3.987  10.365  0.5724  0.9951 -0.1991
  139SAPE   C3115117   0.894   3.907  10.344  0.0238  0.7238 -0.3311
  139SAPE   O3215118   1.004   3.936  10.304 -0.1574 -0.3807  0.3227
  139SAPE   C3215119   0.848   3.758  10.366 -0.5194  0.2605  0.3888
  139SAPE   H2X15120   0.741   3.749  10.394 -1.0412  0.7130 -1.3785
  139SAPE   H2Y15121   0.916   3.708  10.438  0.0069  0.2111 -0.1383
  139SAPE   C2315122   0.843   4.611  10.234  0.0279  0.4758  0.0545
  139SAPE   H3R15123   0.764   4.605  10.311  0.9658 -0.4851  0.9579
  139SAPE   H3S15124   0.806   4.538  10.159  1.4372 -2.8177  2.4245
  139SAPE   C2415125   0.828   4.759  10.188 -0.7671 -0.0487 -0.3584
  139SAPE   H4R15126   0.721   4.776  10.165 -0.5089  0.8673 -0.8974
  139SAPE   H4S15127   0.870   4.754  10.085 -0.6371 -1.9114 -0.2291
  139SAPE   C2515128   0.902   4.864  10.269 -0.5011 -0.1926 -0.2608
  139SAPE   H5R15129   0.873   4.867  10.375  0.3808  0.1409 -0.0255
  139SAPE   C2615130   1.007   4.945  10.230 -0.2066  0.3778  0.9453
  139SAPE   H6R15131   1.033   5.027  10.298  3.0080 -0.4532  0.7931
  139SAPE   C2715132   1.070   4.932  10.091 -0.1554  0.2580  0.5759
  139SAPE   H7R15133   0.987   4.932  10.016 -0.6023  1.9755  1.0475
  139SAPE   H7S15134   1.118   4.832  10.081  0.5536  0.6445  0.0402
  139SAPE   C2815135   1.172   5.042  10.078  0.5076 -0.3120 -0.5108
  139SAPE   H8R15136   1.266   5.034  10.134  0.0244 -0.3626  0.2991
  139SAPE   C2915137   1.151   5.156  10.016 -0.3980  0.8325  0.0476
  139SAPE   H9R15138   1.243   5.215  10.013  0.3033 -0.1548  1.2083
  139SAPE  C21015139   1.034   5.214   9.945 -0.3676  1.2352  0.0900
  139SAPE  H10R15140   0.940   5.170   9.985  0.3118 -1.0266 -0.7267
  139SAPE  H10S15141   1.036   5.168   9.844  0.5957  1.4933 -0.0160
  139SAPE  C21115142   1.020   5.359   9.948 -0.5870 -0.0151 -0.0692
  139SAPE  H11R15143   1.059   5.416  10.034 -2.5206 -1.9381  2.1558
  139SAPE  C21215144   0.975   5.434   9.847  0.2246 -0.4671  0.7009
  139SAPE  H12R15145   0.976   5.542   9.864  1.3977 -0.0829 -1.6955
  139SAPE  C21315146   0.916   5.391   9.711 -0.1523 -0.5442 -0.6512
  139SAPE  H13R15147   0.839   5.466   9.681 -1.4086 -1.4761  0.1698
  139SAPE  H13S15148   0.877   5.288   9.727  1.3166 -0.8585  1.1487
  139SAPE  C21415149   1.015   5.393   9.596 -0.0848 -0.2802  0.5211
  139SAPE  H14R15150   1.122   5.392   9.618 -0.3248  1.2249  1.8412
  139SAPE  C21515151   0.995   5.391   9.466 -0.8348  0.4942 -0.8399
  139SAPE  H15R15152   1.089   5.390   9.408 -0.7205  2.1333 -0.7143
  139SAPE  C21615153   0.860   5.403   9.405 -0.2686 -0.0472  0.1141
  139SAPE  H16R15154   0.774   5.426   9.472 -0.5138 -0.7385  0.0416
  139SAPE  H16S15155   0.833   5.312   9.348  1.9946 -0.2747 -0.6716
  139SAPE  C21715156   0.854   5.514   9.296 -0.3638 -0.5490  0.3280
  139SAPE  H17R15157   0.871   5.618   9.332 -0.3136 -0.4250 -0.0500
  139SAPE  H17S15158   0.749   5.522   9.260 -0.0221  1.5655 -0.3199
  139SAPE  C21815159   0.949   5.498   9.173 -0.1155 -0.2070  0.8162
  139SAPE  H18R15160   0.912   5.407   9.121  0.2068 -0.6691  1.3945
  139SAPE  H18S15161   1.051   5.500   9.215  0.5730 -0.3456 -0.8080
  139SAPE  C21915162   0.937   5.619   9.079 -0.0195  0.2328  0.1677
  139SAPE  H19R15163   0.830   5.647   9.074 -0.1363 -0.4762 -1.9185
  139SAPE  H19S15164   0.961   5.589   8.975 -1.3865 -0.9238  0.1817
  139SAPE  C22015165   1.026   5.739   9.117  0.1122 -0.1208 -0.0998
  139SAPE  H20R15166   0.965   5.786   9.198  0.7067  0.7120 -0.1263
  139SAPE  H20S15167   1.040   5.803   9.027  1.3999 -1.1354 -0.6242
  139SAPE  H20T15168   1.121   5.710   9.166 -0.9377  0.1025  2.1523
  139SAPE   C3315169   0.882   3.669  10.242  0.2024  0.7067 -0.6727
  139SAPE   H3X15170   0.892   3.559  10.253 -0.3007  0.6040 -1.1937
  139SAPE   H3Y15171   0.986   3.693  10.211  0.3404  1.1436  0.1162
  139SAPE   C3415172   0.779   3.706  10.132 -0.4212  0.3512  0.5426
  139SAPE   H4X15173   0.703   3.772  10.178  0.2225  0.1351  1.9549
  139SAPE   H4Y15174   0.725   3.622  10.083 -0.8040  0.5963  0.5460
  139SAPE   C3515175   0.838   3.791  10.021  0.2288 -0.5846  0.1339
  139SAPE   H5X15176   0.915   3.858  10.067 -1.9863  1.9388  0.2975
  139SAPE   H5Y15177   0.757   3.845   9.968 -0.4460  1.2323  2.9122
  139SAPE   C3615178   0.912   3.690   9.924 -0.5506 -0.6781  0.0956
  139SAPE   H6X15179   0.847   3.606   9.890  0.1774 -0.2132 -2.5149
  139SAPE   H6Y15180   1.004   3.649   9.973  1.1240  0.5006 -2.0015
  139SAPE   C3715181   0.972   3.754   9.796 -0.0217  0.1844  0.3037
  139SAPE   H7X15182   1.024   3.672   9.742  1.5061 -0.6891  2.9730
  139SAPE   H7Y15183   1.035   3.839   9.832  1.4895 -1.1876  0.9680
  139SAPE   C3815184   0.876   3.809   9.702 -0.0765 -0.4819 -0.1461
  139SAPE   H8X15185   0.829   3.901   9.742  0.5027  0.7349 -2.2129
  139SAPE   H8Y15186   0.794   3.738   9.678 -1.6285  1.2019  0.0560
  139SAPE   C3915187   0.937   3.841   9.566  0.3587 -0.0433  0.1635
  139SAPE   H9X15188   0.998   3.753   9.537  1.7585  1.2086 -0.7893
  139SAPE   H9Y15189   1.012   3.921   9.583  0.7834  0.5118 -3.8327
  139SAPE  C31015190   0.833   3.863   9.447  0.5163  0.9259 -0.7188
  139SAPE  H10X15191   0.776   3.955   9.474  0.1410  1.0562 -1.9359
  139SAPE  H10Y15192   0.759   3.781   9.449  0.2668  1.1794  0.9551
  139SAPE  C31115193   0.906   3.880   9.305  0.0870 -0.7955 -0.0487
  139SAPE  H11X15194   0.825   3.899   9.231 -1.4441 -0.0449  1.7796
  139SAPE  H11Y15195   0.964   3.788   9.282 -0.7723 -0.9814 -1.4978
  139SAPE  C31215196   0.976   4.016   9.303 -0.1818  0.3719  0.0191
  139SAPE  H12X15197   1.045   4.016   9.390 -3.1963  2.1054  2.4983
  139SAPE  H12Y15198   0.905   4.101   9.314  0.2561  1.1331 -2.6756
  139SAPE  C31315199   1.056   4.044   9.176  0.1746  0.1833 -0.3487
  139SAPE  H13X15200   1.136   3.967   9.172  1.5372  1.5787 -0.4679
  139SAPE  H13Y15201   1.111   4.140   9.183 -0.4855  0.5827 -0.6645
  139SAPE  C31415202   0.959   4.046   9.055  0.6949  0.4847 -0.9139
  139SAPE  H14X15203   0.864   4.096   9.087 -0.3019 -0.8954 -1.6616
  139SAPE  H14Y15204   0.927   3.946   9.020  2.2085 -0.4863  0.4529
  139SAPE  C31515205   1.021   4.105   8.935 -0.1574 -0.4861  0.2559
  139SAPE  H15X15206   1.073   4.024   8.879  1.4426  0.7579 -0.1157
  139SAPE  H15Y15207   1.109   4.163   8.971 -0.0109 -0.6346  0.1409
  139SAPE  C31615208   0.932   4.200   8.857 -0.2130 -0.3590 -0.4379
  139SAPE  H16X15209   0.878   4.158   8.770 -0.8722  0.8618 -0.6368
  139SAPE  H16Y15210   0.853   4.254   8.914  0.5292  0.4579 -0.1652
  139SAPE  C31715211   1.010   4.318   8.799  0.0264 -0.5652 -0.4546
  139SAPE  H17X15212   1.094   4.280   8.736  0.8418  2.2780 -1.1554
  139SAPE  H17Y15213   1.055   4.374   8.884 -0.2208 -0.1937 -0.5678
  139SAPE  C31815214   0.927   4.406   8.708 -0.8165  0.5661  0.5539
  139SAPE  H18X15215   0.877   4.351   8.625 -1.4920 -0.2949  1.5027
  139SAPE  H18Y15216   0.999   4.484   8.678 -1.7356  0.6189 -1.6296
  139SAPE  H18Z15217   0.836   4.454   8.751 -0.4552  2.8108 -1.1274
  140SAPE     N15218   3.095   0.885  11.197  0.2436  0.4497  0.4347
  140SAPE   HN115219   3.020   0.866  11.128 -0.4866 -2.0773  1.8397
  140SAPE   HN215220   3.142   0.795  11.221  2.1550  0.1479 -4.0529
  140SAPE   HN315221   3.048   0.920  11.283 -1.3665  1.7791 -0.9481
  140SAPE   C1215222   3.196   0.980  11.129 -0.7661  0.2687  0.0534
  140SAPE  H12A15223   3.197   0.961  11.020  1.0640 -2.2505  0.4910
  140SAPE  H12B15224   3.293   0.951  11.174 -0.9123  0.4771  0.5086
  140SAPE   C1115225   3.165   1.130  11.147  0.2044 -0.4063 -0.0097
  140SAPE  H11A15226   3.239   1.186  11.085  0.5613 -0.5402  0.3014
  140SAPE  H11B15227   3.178   1.152  11.255  2.6275  1.7991 -0.6912
  140SAPE     P15228   2.994   1.304  11.041 -0.5075  0.3442 -0.4148
  140SAPE   O1315229   2.848   1.321  11.041 -0.9401 -0.1243  0.2637
  140SAPE   O1415230   3.071   1.410  11.107  0.1621  0.0068 -0.1360
  140SAPE   O1215231   3.031   1.159  11.104 -0.8111 -0.0302  0.0765
  140SAPE   O1115232   3.034   1.292  10.886 -0.4267 -0.2351  0.2575
  140SAPE    C115233   3.015   1.169  10.821  0.1956 -0.0003  0.0105
  140SAPE    HA15234   3.087   1.099  10.868  0.1787  0.3858  0.6224
  140SAPE    HB15235   2.906   1.148  10.817 -0.2292  2.0502  0.2567
  140SAPE    C215236   3.068   1.178  10.674  0.7879  0.0367 -0.5643
  140SAPE    HS15237   3.031   1.094  10.612 -0.2916  1.3493 -1.7273
  140SAPE   O2115238   3.212   1.202  10.668  0.2051 -0.0711 -0.2772
  140SAPE   C2115239   3.280   1.088  10.680 -0.5585  0.4853 -0.6440
  140SAPE   O2215240   3.228   0.979  10.702 -0.2191  0.0930 -0.2900
  140SAPE   C2215241   3.425   1.112  10.648  0.1278 -0.0716 -0.0952
  140SAPE   H2R15242   3.439   1.222  10.636  2.4537  0.0008  2.7884
  140SAPE   H2S15243   3.475   1.082  10.742 -0.3617  0.9653  0.4970
  140SAPE    C315244   2.998   1.289  10.603 -0.1864 -0.1516 -0.1168
  140SAPE    HX15245   3.023   1.388  10.646  1.0011 -0.1966 -0.6948
  140SAPE    HY15246   2.890   1.274  10.623 -0.1858  0.8427  0.6658
  140SAPE   O3115247   3.027   1.279  10.463 -0.7250  0.0213  0.1960
  140SAPE   C3115248   3.066   1.392  10.394  0.0632  0.0324 -0.1994
  140SAPE   O3215249   3.077   1.502  10.441  0.0678 -0.0283 -0.9468
  140SAPE   C3215250   3.088   1.353  10.254 -0.7096  0.4125  0.4636
  140SAPE   H2X15251   2.994   1.307  10.215  0.6399 -3.1277  1.2499
  140SAPE   H2Y15252   3.173   1.284  10.239 -1.1838 -0.6158  2.3575
  140SAPE   C2315253   3.501   1.030  10.544  0.2101  0.0792 -0.3677
  140SAPE   H3R15254   3.481   0.922  10.560  1.9961  0.2224  3.4591
  140SAPE   H3S15255   3.609   1.053  10.556 -0.2810  2.3521  0.0162
  140SAPE   C2415256   3.466   1.053  10.399 -0.4967 -0.6304  0.8733
  140SAPE   H4R15257   3.371   0.996  10.385 -0.6827 -0.1304  0.1043
  140SAPE   H4S15258   3.535   0.987  10.342 -0.1857  1.1456 -0.8408
  140SAPE   C2515259   3.462   1.199  10.352  0.1167  0.3118 -0.0220
  140SAPE   H5R15260   3.477   1.277  10.428 -3.5028  1.1898 -0.1106
  140SAPE   C2615261   3.432   1.241  10.233  0.0969 -0.0425  0.5267
  140SAPE   H6R15262   3.434   1.348  10.208 -2.8572  0.2808  1.5966
  140SAPE   C2715263   3.404   1.147  10.118 -0.2732  0.2796  0.1668
  140SAPE   H7R15264   3.313   1.185  10.066 -1.5009 -1.1241  1.2065
  140SAPE   H7S15265   3.384   1.043  10.153  1.2002  0.4175  1.4560
  140SAPE   C2815266   3.525   1.140  10.030  0.2214  0.0429 -0.0829
  140SAPE   H8R15267   3.586   1.051  10.051  1.1088  0.0328 -2.5662
  140SAPE   C2915268   3.557   1.231   9.942  0.3131  0.1531  0.1480
  140SAPE   H9R15269   3.648   1.218   9.882  1.8320  2.9557  1.7288
  140SAPE  C21015270   3.476   1.357   9.916  0.2434  0.8569  0.9148
  140SAPE  H10R15271   3.458   1.414  10.010 -1.4220  0.7020  0.7135
  140SAPE  H10S15272   3.375   1.323   9.883  1.6946 -0.9473 -1.8119
  140SAPE  C21115273   3.545   1.439   9.811  0.2752  0.0976 -0.0314
  140SAPE  H11R15274   3.601   1.526   9.847 -0.3226  0.2606  0.5022
  140SAPE  C21215275   3.543   1.411   9.680 -0.4141 -0.2202  1.3855
  140SAPE  H12R15276   3.609   1.478   9.623 -0.5757 -1.3498 -0.1553
  140SAPE  C21315277   3.472   1.299   9.606  0.1161  0.9999 -0.4341
  140SAPE  H13R15278   3.415   1.345   9.523 -1.4204  0.0142  0.0520
  140SAPE  H13S15279   3.409   1.231   9.668 -0.2496 -0.6792 -2.5653
  140SAPE  C21415280   3.586   1.213   9.544  0.1935  0.4657  0.2949
  140SAPE  H14R15281   3.614   1.126   9.605  1.2673 -0.1755 -1.0850
  140SAPE  C21515282   3.647   1.235   9.431 -1.2375  0.6058  0.5267
  140SAPE  H15R15283   3.740   1.178   9.421 -1.8264 -0.3584  0.4479
  140SAPE  C21615284   3.622   1.337   9.326  0.3685 -0.1307  0.2790
  140SAPE  H16R15285   3.700   1.416   9.333  0.1630  0.1164 -0.1638
  140SAPE  H16S15286   3.528   1.387   9.356  0.4279  0.4422 -0.4836
  140SAPE  C21715287   3.616   1.288   9.183 -0.4455  0.2008 -0.0881
  140SAPE  H17R15288   3.576   1.370   9.119 -0.9285  1.3217  1.6311
  140SAPE  H17S15289   3.547   1.201   9.174 -0.0453 -0.0476 -0.7959
  140SAPE  C21815290   3.753   1.261   9.125 -0.4675 -0.4544 -0.0518
  140SAPE  H18R15291   3.740   1.212   9.026 -0.9739  0.7444 -0.5856
  140SAPE  H18S15292   3.805   1.197   9.199  2.4854  2.4917  0.5481
  140SAPE  C21915293   3.857   1.380   9.114 -0.4838 -0.7764  0.2520
  140SAPE  H19R15294   3.952   1.348   9.067 -1.0706  0.2082 -1.6698
  140SAPE  H19S15295   3.887   1.424   9.211  0.1637  0.6721 -0.5898
  140SAPE  C22015296   3.812   1.508   9.027 -0.2330 -0.3845 -0.2576
  140SAPE  H20R15297   3.751   1.473   8.941 -0.4320  1.8900 -1.0982
  140SAPE  H20S15298   3.902   1.560   8.986  0.9030 -1.1327  1.2438
  140SAPE  H20T15299   3.748   1.576   9.089  0.9589  1.2383 -0.7618
  140SAPE   C3315300   3.136   1.482  10.176  0.5941 -0.2611  0.2066
  140SAPE   H3X15301   3.242   1.509  10.198 -0.1181  1.0045  2.1729
  140SAPE   H3Y15302   3.077   1.569  10.210 -1.3221 -0.5128 -2.3694
  140SAPE   C3415303   3.110   1.454  10.023 -0.1304 -0.3835 -0.1456
  140SAPE   H4X15304   3.000   1.447  10.009 -0.3570 -0.4321  1.4869
  140SAPE   H4Y15305   3.157   1.355  10.005  1.4101  0.1888  0.6561
  140SAPE   C3515306   3.169   1.560   9.934  0.5562  0.3719 -0.4028
  140SAPE   H5X15307   3.271   1.588   9.968  0.3363  1.3882 -0.5650
  140SAPE   H5Y15308   3.108   1.651   9.948  1.7925  1.1399  0.1159
  140SAPE   C3615309   3.165   1.513   9.791 -0.4938  0.4350 -0.4207
  140SAPE   H6X15310   3.193   1.407   9.773 -1.9532  0.4162 -2.7831
  140SAPE   H6Y15311   3.234   1.575   9.730 -1.3965  0.8166 -1.0632
  140SAPE   C3715312   3.030   1.547   9.721 -0.1106 -0.1904  0.4909
  140SAPE   H7X15313   3.001   1.642   9.772  1.2100 -0.9627  2.7663
  140SAPE   H7Y15314   2.965   1.462   9.752 -1.1022  0.4572  0.2102
  140SAPE   C3815315   3.036   1.563   9.572 -0.1462  0.1790  1.2541
  140SAPE   H8X15316   3.112   1.637   9.539  0.3940  0.0177  2.1178
  140SAPE   H8Y15317   2.934   1.592   9.541  0.7411  1.4702 -0.5663
  140SAPE   C3915318   3.063   1.434   9.506  0.0502 -0.1521 -0.2794
  140SAPE   H9X15319   2.989   1.360   9.545  0.6616 -1.6009 -1.7726
  140SAPE   H9Y15320   3.166   1.410   9.539 -0.1941  1.1961  1.4968
  140SAPE  C31015321   3.051   1.443   9.350  0.1687 -0.0942  0.1498
  140SAPE  H10X15322   3.092   1.349   9.309 -1.6212 -1.6357  1.8235
  140SAPE  H10Y15323   3.113   1.527   9.312  0.8374 -1.2998 -1.4815
  140SAPE  C31115324   2.912   1.469   9.296 -0.1059 -0.2541  0.2074
  140SAPE  H11X15325   2.868   1.564   9.333 -0.3353  0.3690 -1.6448
  140SAPE  H11Y15326   2.857   1.383   9.342  2.9638 -2.2385  0.3247
  140SAPE  C31215327   2.912   1.467   9.141 -0.3084  0.3549  1.0424
  140SAPE  H12X15328   2.977   1.387   9.098 -0.1643  0.2578  1.4372
  140SAPE  H12Y15329   2.962   1.554   9.093 -0.0231  1.0438  2.5420
  140SAPE  C31315330   2.763   1.453   9.100 -0.6729  0.9311  0.3201
  140SAPE  H13X15331   2.684   1.524   9.136 -1.1505  1.3377 -1.4712
  140SAPE  H13Y15332   2.722   1.357   9.137 -0.6432 -0.6587 -3.5889
  140SAPE  C31415333   2.756   1.441   8.947 -0.1559  0.0428  0.6596
  140SAPE  H14X15334   2.655   1.399   8.928 -1.2170  1.6025  2.6435
  140SAPE  H14Y15335   2.832   1.366   8.918  3.0320  1.7875  4.1081
  140SAPE  C31515336   2.770   1.570   8.869 -0.2132 -0.1819 -0.1918
  140SAPE  H15X15337   2.861   1.620   8.908  1.3353 -3.4442  0.5097
  140SAPE  H15Y15338   2.687   1.638   8.898 -0.8878 -0.9297 -0.3332
  140SAPE  C31615339   2.778   1.550   8.717  0.1542 -0.9284  0.6772
  140SAPE  H16X15340   2.782   1.650   8.669  0.9549  0.0732  2.7535
  140SAPE  H16Y15341   2.692   1.495   8.672  0.1816  0.4877 -1.1410
  140SAPE  C31715342   2.915   1.483   8.672 -0.6278 -0.2992 -0.6195
  140SAPE  H17X15343   2.916   1.386   8.727  3.1149 -0.1851 -0.3904
  140SAPE  H17Y15344   3.001   1.540   8.713 -0.5309 -0.4133 -0.6661
  140SAPE  C31815345   2.926   1.470   8.520 -0.5211  0.2619 -0.7881
  140SAPE  H18X15346   3.014   1.403   8.509  0.4011  1.3811 -0.3677
  140SAPE  H18Y15347   2.947   1.566   8.469  1.8722  0.9080  1.2917
  140SAPE  H18Z15348   2.836   1.422   8.475  0.6806 -0.3038 -2.6594
  141SAPE     N15349   3.937   1.711  10.825 -0.0914 -0.2505 -0.4823
  141SAPE   HN115350   3.875   1.718  10.908 -0.9870  1.0404 -1.2455
  141SAPE   HN215351   4.037   1.700  10.850 -0.2088  0.6118  0.4178
  141SAPE   HN315352   3.922   1.801  10.775 -0.2308  1.2189  2.0906
  141SAPE   C1215353   3.899   1.599  10.727 -0.2300 -0.6907  0.6500
  141SAPE  H12A15354   3.797   1.616  10.687 -0.0563 -3.7624 -1.2922
  141SAPE  H12B15355   3.899   1.503  10.783 -1.2911 -0.3486  1.2573
  141SAPE   C1115356   4.013   1.582  10.625  0.0445  0.3232 -0.2979
  141SAPE  H11A15357   4.053   1.669  10.568 -1.7575  0.5467 -1.2273
  141SAPE  H11B15358   3.965   1.518  10.549  1.0510  0.1586 -0.8054
  141SAPE     P15359   4.245   1.582  10.749  0.2854 -0.1830 -0.0762
  141SAPE   O1315360   4.201   1.665  10.863  0.1329 -0.1569 -0.3172
  141SAPE   O1415361   4.341   1.472  10.779 -0.6779  0.8060  0.7315
  141SAPE   O1215362   4.119   1.506  10.687  0.1374  0.4076  0.1836
  141SAPE   O1115363   4.277   1.667  10.623  0.2429 -0.1349 -0.1428
  141SAPE    C115364   4.372   1.612  10.529  0.1404 -0.5341  0.4523
  141SAPE    HA15365   4.475   1.644  10.557 -0.1711 -1.4019  2.7465
  141SAPE    HB15366   4.379   1.501  10.529 -2.9949 -0.8199  3.5111
  141SAPE    C215367   4.337   1.646  10.379 -0.7711 -0.1731 -0.4917
  141SAPE    HS15368   4.402   1.728  10.343 -1.8515  1.0868  0.3682
  141SAPE   O2115369   4.197   1.672  10.359  0.5574 -0.0681 -0.0508
  141SAPE   C2115370   4.176   1.769  10.269  0.0052  0.1603  0.0447
  141SAPE   O2215371   4.261   1.845  10.222 -0.2441  0.9038  0.2284
  141SAPE   C2215372   4.031   1.793  10.252 -0.4518 -0.1100 -0.4873
  141SAPE   H2R15373   3.973   1.709  10.296  3.1584 -1.4129  2.0756
  141SAPE   H2S15374   3.994   1.888  10.298 -2.0663 -0.9922  0.0645
  141SAPE    C315375   4.381   1.525  10.289  0.3547 -0.1131  0.1001
  141SAPE    HX15376   4.338   1.428  10.322 -0.5484 -1.3057 -4.3017
  141SAPE    HY15377   4.489   1.503  10.306  0.7564  1.6621 -0.0844
  141SAPE   O3115378   4.369   1.558  10.148  0.4895 -0.5544 -0.0388
  141SAPE   C3115379   4.467   1.632  10.097 -0.5305  0.0645  0.1634
  141SAPE   O3215380   4.558   1.685  10.162 -0.1720 -0.6151  0.4316
  141SAPE   C3215381   4.442   1.635   9.950  0.0546  0.1040 -0.2432
  141SAPE   H2X15382   4.365   1.710   9.924  1.5048  0.9176 -2.4428
  141SAPE   H2Y15383   4.390   1.545   9.909  1.0010 -0.1229 -0.9815
  141SAPE   C2315384   3.995   1.816  10.097  0.1558 -0.1676 -0.1051
  141SAPE   H3R15385   4.030   1.729  10.038 -1.9827 -1.4367  0.4263
  141SAPE   H3S15386   4.062   1.895  10.058  0.7224 -0.3983  0.3936
  141SAPE   C2415387   3.852   1.862  10.076  1.1223  0.4424  0.1523
  141SAPE   H4R15388   3.831   1.922  10.167 -0.3482 -0.7838  0.6443
  141SAPE   H4S15389   3.798   1.765  10.084  2.2664 -0.1789  0.6232
  141SAPE   C2515390   3.820   1.945   9.957  0.4752  0.4550  0.3742
  141SAPE   H5R15391   3.822   1.895   9.859 -0.2407  0.7101  0.2276
  141SAPE   C2615392   3.797   2.074   9.959  0.5681  0.5258 -0.2489
  141SAPE   H6R15393   3.752   2.123   9.872  0.3417 -0.6437 -0.8053
  141SAPE   C2715394   3.797   2.156  10.087 -0.4355  0.7689 -0.1226
  141SAPE   H7R15395   3.872   2.116  10.158  0.7029  3.0844  0.0309
  141SAPE   H7S15396   3.702   2.149  10.144  1.6354 -1.7792  3.2404
  141SAPE   C2815397   3.822   2.302  10.059 -0.2383 -0.3280 -0.3306
  141SAPE   H8R15398   3.733   2.364  10.076 -0.1223  0.1478 -1.4050
  141SAPE   C2915399   3.938   2.363  10.020 -0.8476  0.5754  0.6422
  141SAPE   H9R15400   3.929   2.466   9.983  2.3411  0.5698 -0.2704
  141SAPE  C21015401   4.073   2.295   9.983 -0.1523  0.1509 -0.3278
  141SAPE  H10R15402   4.063   2.214   9.907 -0.1490  0.6569 -0.8710
  141SAPE  H10S15403   4.121   2.239  10.066 -0.1649 -0.0688 -0.4684
  141SAPE  C21115404   4.170   2.401   9.939  0.1177  0.1967  0.3334
  141SAPE  H11R15405   4.245   2.431  10.014 -0.5769 -0.1529  1.1850
  141SAPE  C21215406   4.174   2.453   9.815  0.7909 -0.3612  0.1441
  141SAPE  H12R15407   4.254   2.524   9.793 -0.3136  0.5972 -0.8859
  141SAPE  C21315408   4.082   2.412   9.702  0.4585  0.4512  0.3203
  141SAPE  H13R15409   3.977   2.387   9.726 -0.8189  3.2331 -2.0271
  141SAPE  H13S15410   4.121   2.318   9.657  1.0959  1.6418 -1.6995
  141SAPE  C21415411   4.095   2.515   9.585 -0.1914 -0.4595  0.5182
  141SAPE  H14R15412   4.196   2.554   9.570  0.0293 -0.7373  1.2524
  141SAPE  C21515413   4.001   2.554   9.497  0.7515  0.6080  0.1325
  141SAPE  H15R15414   4.034   2.618   9.414  0.2584  1.5539  0.6561
  141SAPE  C21615415   3.862   2.499   9.497  1.0102  0.2466 -0.2235
  141SAPE  H16R15416   3.797   2.547   9.573  1.1079 -1.3257  0.8642
  141SAPE  H16S15417   3.873   2.391   9.517 -0.6681  0.5674  2.7376
  141SAPE  C21715418   3.788   2.533   9.364 -0.2614  0.0537  0.1455
  141SAPE  H17R15419   3.778   2.642   9.350  2.4050  0.4723  1.2294
  141SAPE  H17S15420   3.684   2.500   9.386 -0.3780 -0.7912 -1.5931
  141SAPE  C21815421   3.838   2.460   9.238 -0.0561 -0.2198  0.2149
  141SAPE  H18R15422   3.865   2.354   9.258 -0.8904 -0.4804  0.0005
  141SAPE  H18S15423   3.925   2.508   9.189  0.7850  0.0819  1.9828
  141SAPE  C21915424   3.724   2.446   9.136  0.0733 -0.3255 -0.2927
  141SAPE  H19R15425   3.688   2.547   9.107 -0.4083 -0.7966 -1.3892
  141SAPE  H19S15426   3.637   2.396   9.183 -0.6126  0.3333 -0.8507
  141SAPE  C22015427   3.767   2.371   9.003 -0.7758 -0.7108 -0.2874
  141SAPE  H20R15428   3.688   2.377   8.925  0.3737 -0.1007 -1.4276
  141SAPE  H20S15429   3.800   2.266   9.014  0.6619 -0.2834 -0.3602
  141SAPE  H20T15430   3.856   2.426   8.966  0.8693 -0.9298  3.1279
  141SAPE   C3315431   4.566   1.672   9.863 -0.2692  0.5860  0.7154
  141SAPE   H3X15432   4.659   1.617   9.888  0.7093  0.4352 -3.0389
  141SAPE   H3Y15433   4.585   1.781   9.857  1.3779  0.3773  1.7134
  141SAPE   C3415434   4.546   1.640   9.713  0.1557 -0.0252  0.4295
  141SAPE   H4X15435   4.613   1.709   9.657  2.1086 -2.3503 -0.1734
  141SAPE   H4Y15436   4.442   1.671   9.688  0.6034  1.2675  0.1372
  141SAPE   C3515437   4.574   1.491   9.671  0.2358  0.0868  0.5547
  141SAPE   H5X15438   4.512   1.418   9.728  1.0167 -0.9804  0.0488
  141SAPE   H5Y15439   4.677   1.466   9.702 -0.6973 -2.1839  1.9677
  141SAPE   C3615440   4.567   1.477   9.516  0.9492  0.0867  0.2477
  141SAPE   H6X15441   4.666   1.506   9.475  1.7427  1.8354  3.2291
  141SAPE   H6Y15442   4.488   1.541   9.472  1.5670  0.8672  0.2676
  141SAPE   C3715443   4.537   1.331   9.487 -0.3507  0.5640  0.2996
  141SAPE   H7X15444   4.429   1.310   9.504 -0.2237  0.6162  1.1889
  141SAPE   H7Y15445   4.608   1.271   9.547  0.2603 -3.1965 -3.9181
  141SAPE   C3815446   4.578   1.296   9.338  0.4207  0.0327 -1.2161
  141SAPE   H8X15447   4.687   1.313   9.326  1.0034 -1.1503  1.7677
  141SAPE   H8Y15448   4.527   1.374   9.279 -1.4707  2.8736  3.8403
  141SAPE   C3915449   4.537   1.154   9.300 -0.0162  0.3328  0.2684
  141SAPE   H9X15450   4.431   1.137   9.328  0.5168 -0.6052  1.7799
  141SAPE   H9Y15451   4.596   1.076   9.352  1.2909  1.5027  0.5686
  141SAPE  C31015452   4.550   1.126   9.149  0.0376 -0.4614  0.3803
  141SAPE  H10X15453   4.508   1.024   9.138 -1.0535 -0.3057  2.8759
  141SAPE  H10Y15454   4.657   1.107   9.125 -0.4593 -1.3653 -1.1802
  141SAPE  C31115455   4.476   1.211   9.050 -0.1748 -0.0060 -0.0996
  141SAPE  H11X15456   4.525   1.310   9.040  1.0056 -0.6828 -1.1156
  141SAPE  H11Y15457   4.371   1.220   9.086  0.3683  1.7365  1.0995
  141SAPE  C31215458   4.468   1.145   8.908 -0.1456 -0.7048  0.0932
  141SAPE  H12X15459   4.414   1.049   8.893 -0.7484 -0.7518  2.3900
  141SAPE  H12Y15460   4.573   1.118   8.884 -0.2178 -0.8860 -0.0182
  141SAPE  C31315461   4.400   1.240   8.805  0.3647  0.7182  0.6625
  141SAPE  H13X15462   4.291   1.254   8.823  0.0077 -1.2053  0.0965
  141SAPE  H13Y15463   4.410   1.196   8.704  3.2293  3.3494 -0.2535
  141SAPE  C31415464   4.467   1.377   8.797  0.7418 -0.3077  0.0562
  141SAPE  H14X15465   4.578   1.374   8.803  0.7027  1.1202  1.9715
  141SAPE  H14Y15466   4.433   1.428   8.890 -1.5218 -2.4990  0.4912
  141SAPE  C31515467   4.426   1.483   8.691  0.5414  0.1940  0.5007
  141SAPE  H15X15468   4.466   1.442   8.596  1.7182 -1.3804  1.6275
  141SAPE  H15Y15469   4.494   1.568   8.714  0.6585  0.7455 -1.7889
  141SAPE  C31615470   4.276   1.516   8.691 -0.0820 -0.4267 -0.1688
  141SAPE  H16X15471   4.247   1.565   8.786  0.5909 -2.5351  1.1596
  141SAPE  H16Y15472   4.218   1.421   8.691 -0.8262 -0.0551 -3.5531
  141SAPE  C31715473   4.237   1.613   8.578 -0.0886  0.4550 -0.3552
  141SAPE  H17X15474   4.127   1.617   8.564 -0.4239  1.6310  2.3509
  141SAPE  H17Y15475   4.271   1.573   8.480  0.4383  1.0681 -0.4210
  141SAPE  C31815476   4.281   1.755   8.597  0.3753 -0.4936  0.6400
  141SAPE  H18X15477   4.202   1.821   8.639 -0.5594  0.2954 -2.2815
  141SAPE  H18Y15478   4.297   1.807   8.500 -0.4038  0.3628  0.9588
  141SAPE  H18Z15479   4.370   1.761   8.663  0.5464  0.2312  0.3557
  142SAPE     N15480   4.119   1.289  11.097  0.7843 -0.0889  0.0058
  142SAPE   HN115481   4.173   1.238  11.169  2.7957  0.5014 -1.0458
  142SAPE   HN215482   4.147   1.389  11.106  1.7148 -0.0931 -2.5468
  142SAPE   HN315483   4.016   1.276  11.110  0.3194  0.9401 -2.2730
  142SAPE   C1215484   4.156   1.246  10.961 -0.1125 -0.3845  0.3288
  142SAPE  H12A15485   4.129   1.331  10.895  0.2555 -0.7279 -0.2667
  142SAPE  H12B15486   4.081   1.165  10.947  0.3304 -0.7703  0.1940
  142SAPE   C1115487   4.296   1.202  10.943 -0.1947  0.0096 -0.9132
  142SAPE  H11A15488   4.367   1.287  10.958 -0.0973 -0.2652  0.2647
  142SAPE  H11B15489   4.304   1.171  10.837  0.9785 -1.4032 -0.4287
  142SAPE     P15490   4.411   0.974  10.998 -0.0905 -0.2559 -0.2046
  142SAPE   O1315491   4.549   1.030  11.008 -0.3501  0.0416 -0.4776
  142SAPE   O1415492   4.379   0.853  11.075  0.3583  1.1669 -0.4619
  142SAPE   O1215493   4.312   1.094  11.031  0.3538  0.4664 -0.3320
  142SAPE   O1115494   4.388   0.948  10.845  0.2392  0.0341 -0.1141
  142SAPE    C115495   4.277   0.873  10.788  0.1442  0.0311  0.3931
  142SAPE    HA15496   4.279   0.768  10.824 -1.8452 -0.4191 -0.7299
  142SAPE    HB15497   4.183   0.912  10.832 -0.3541 -0.6444 -0.0674
  142SAPE    C215498   4.286   0.880  10.632 -0.4239  0.5993 -1.0848
  142SAPE    HS15499   4.179   0.865  10.605 -0.9148 -0.8617  1.4040
  142SAPE   O2115500   4.381   0.784  10.580  0.3027  0.0956  0.2945
  142SAPE   C2115501   4.322   0.670  10.573 -0.3721  0.6997 -0.1195
  142SAPE   O2215502   4.208   0.645  10.608  0.7377 -0.9655  0.1036
  142SAPE   C2215503   4.419   0.582  10.510  0.3935  0.0037 -0.4812
  142SAPE   H2R15504   4.519   0.626  10.526 -0.2536  1.6267 -0.7546
  142SAPE   H2S15505   4.417   0.479  10.551 -0.1503  0.7320  1.3886
  142SAPE    C315506   4.332   1.020  10.574  0.2121 -0.3075  0.5934
  142SAPE    HX15507   4.434   1.036  10.614 -0.5586  0.0171  2.4472
  142SAPE    HY15508   4.265   1.101  10.611 -0.1812  0.5820 -1.9504
  142SAPE   O3115509   4.320   1.029  10.432 -0.1882  0.5359 -0.2078
  142SAPE   C3115510   4.392   1.126  10.369 -0.7863 -0.0454  0.3756
  142SAPE   O3215511   4.472   1.202  10.427  0.7163  0.6496 -0.3927
  142SAPE   C3215512   4.376   1.134  10.216  0.6556  0.4950 -0.3916
  142SAPE   H2X15513   4.282   1.188  10.194 -0.2000 -0.8723 -0.2083
  142SAPE   H2Y15514   4.369   1.026  10.191 -1.5534  0.1026  1.6823
  142SAPE   C2315515   4.384   0.586  10.358  0.1538 -0.3968 -0.2963
  142SAPE   H3R15516   4.281   0.547  10.342  0.3316 -0.4130 -1.4373
  142SAPE   H3S15517   4.452   0.511  10.312  0.3942 -0.0084 -0.5833
  142SAPE   C2415518   4.390   0.721  10.284 -0.5197 -0.4383  0.3147
  142SAPE   H4R15519   4.322   0.794  10.333  1.8162  0.4041  2.4036
  142SAPE   H4S15520   4.337   0.712  10.187  2.6350  0.0318 -1.5069
  142SAPE   C2515521   4.530   0.778  10.273  1.1843 -0.3291  0.5577
  142SAPE   H5R15522   4.559   0.851  10.350  2.0598 -0.0045 -0.0771
  142SAPE   C2615523   4.613   0.757  10.173 -0.2965 -0.4960 -0.2787
  142SAPE   H6R15524   4.708   0.812  10.181 -0.3117 -0.6817  1.5902
  142SAPE   C2715525   4.597   0.664  10.049 -0.2156 -0.3284 -0.2272
  142SAPE   H7R15526   4.493   0.671  10.012 -0.7068  4.7936  1.6642
  142SAPE   H7S15527   4.606   0.560  10.086  0.4472 -0.4611 -0.7537
  142SAPE   C2815528   4.702   0.708   9.946 -0.4738 -0.2314  0.3056
  142SAPE   H8R15529   4.734   0.814   9.945 -0.7890 -0.1337  0.3144
  142SAPE   C2915530   4.753   0.621   9.856 -0.0404 -0.7473  0.8897
  142SAPE   H9R15531   4.828   0.647   9.780  0.9038  0.3458  2.1854
  142SAPE  C21015532   4.713   0.468   9.836  0.0684  0.1273  0.1680
  142SAPE  H10R15533   4.648   0.430   9.917 -1.2186  0.5833 -0.6361
  142SAPE  H10S15534   4.806   0.407   9.845 -1.7654 -2.6586  0.5129
  142SAPE  C21115535   4.635   0.435   9.707  0.5056  0.5766  0.5048
  142SAPE  H11R15536   4.530   0.469   9.713  0.4628  0.2838  1.6126
  142SAPE  C21215537   4.673   0.384   9.593  0.6681  0.0763 -0.3038
  142SAPE  H12R15538   4.601   0.378   9.509  0.1788  0.7621  0.0629
  142SAPE  C21315539   4.807   0.334   9.569  0.2261  0.2054 -0.2935
  142SAPE  H13R15540   4.888   0.389   9.621  0.2495  0.2752 -0.4047
  142SAPE  H13S15541   4.817   0.349   9.460  0.5190  0.7794 -0.1848
  142SAPE  C21415542   4.818   0.189   9.620  0.0652 -0.2333 -0.3662
  142SAPE  H14R15543   4.798   0.175   9.727  0.3704  0.8929 -0.1466
  142SAPE  C21515544   4.839   0.080   9.542 -0.6217 -0.1921  0.4516
  142SAPE  H15R15545   4.846  -0.019   9.591  0.6133 -0.1880  0.2779
  142SAPE  C21615546   4.867   0.085   9.391 -0.1052  0.2227 -0.4066
  142SAPE  H16R15547   4.895   0.188   9.359 -0.4516  0.6486  0.6081
  142SAPE  H16S15548   4.768   0.065   9.345  0.1464  0.8318 -1.2252
  142SAPE  C21715549   4.962  -0.021   9.335 -0.3043 -0.6637 -0.2295
  142SAPE  H17R15550   4.965  -0.116   9.393  0.5133 -0.2561  0.4004
  142SAPE  H17S15551   5.067   0.006   9.356 -1.1169  2.3190  0.3080
  142SAPE  C21815552   4.940  -0.042   9.185  0.4607 -0.3287 -0.3146
  142SAPE  H18R15553   4.960   0.054   9.133  0.4955 -0.5421 -0.7029
  142SAPE  H18S15554   4.832  -0.059   9.165  0.1119  2.4850 -1.0656
  142SAPE  C21915555   5.005  -0.172   9.124  0.3626 -0.1375 -0.5775
  142SAPE  H19R15556   4.977  -0.163   9.017 -1.6450 -0.2286 -0.0929
  142SAPE  H19S15557   4.966  -0.268   9.164  1.8838 -0.6873 -0.4124
  142SAPE  C22015558   5.157  -0.178   9.128 -0.1216  0.8067  0.4376
  142SAPE  H20R15559   5.204  -0.091   9.077  0.3445  1.0214  1.2220
  142SAPE  H20S15560   5.175  -0.268   9.065  0.9835  0.4609  1.2370
  142SAPE  H20T15561   5.196  -0.177   9.232 -1.7415  0.4165  1.0561
  142SAPE   C3315562   4.487   1.199  10.140  0.6393  0.2631 -0.2033
  142SAPE   H3X15563   4.577   1.135  10.151  0.0353 -0.6134 -0.3182
  142SAPE   H3Y15564   4.501   1.304  10.175 -2.1236  0.6307 -0.0817
  142SAPE   C3415565   4.453   1.205   9.990 -0.3913  0.7714  0.5814
  142SAPE   H4X15566   4.517   1.270   9.927 -0.0601 -0.2828 -0.1745
  142SAPE   H4Y15567   4.351   1.249   9.986  0.3211  2.5680  1.3783
  142SAPE   C3515568   4.471   1.059   9.937  0.0658  0.0183 -0.0055
  142SAPE   H5X15569   4.393   0.987   9.972  0.6918 -0.9093 -0.4951
  142SAPE   H5Y15570   4.562   1.009   9.976 -0.5527 -0.8339  0.3662
  142SAPE   C3615571   4.470   1.056   9.779  0.0016  0.3627 -0.4600
  142SAPE   H6X15572   4.551   1.120   9.739  0.8968 -1.2145 -1.2293
  142SAPE   H6Y15573   4.370   1.083   9.737 -1.0133 -2.5614 -0.0747
  142SAPE   C3715574   4.499   0.914   9.734 -0.0995  0.2802  0.5482
  142SAPE   H7X15575   4.414   0.846   9.756  0.7127 -0.9953 -0.1715
  142SAPE   H7Y15576   4.589   0.877   9.789  1.3930  3.7025  0.4936
  142SAPE   C3815577   4.527   0.905   9.578 -0.0784  0.4131 -0.1339
  142SAPE   H8X15578   4.600   0.986   9.560  1.6894 -1.5115 -1.9215
  142SAPE   H8Y15579   4.426   0.926   9.536 -0.4419 -0.8155  0.0942
  142SAPE   C3915580   4.573   0.762   9.534  0.4840  0.5121  0.6531
  142SAPE   H9X15581   4.492   0.687   9.528  0.8921  0.1572 -0.7938
  142SAPE   H9Y15582   4.652   0.733   9.607  2.8775 -0.4139 -2.1771
  142SAPE  C31015583   4.630   0.769   9.395 -0.0040 -0.6577  0.6606
  142SAPE  H10X15584   4.706   0.850   9.394 -0.7291  0.0328 -0.2535
  142SAPE  H10Y15585   4.555   0.789   9.315  2.1094  0.0417 -1.2082
  142SAPE  C31115586   4.691   0.635   9.356  0.1357 -0.0169 -0.3996
  142SAPE  H11X15587   4.615   0.554   9.350  2.6951 -2.7782  2.1967
  142SAPE  H11Y15588   4.766   0.602   9.431  0.8017  1.6656 -0.3253
  142SAPE  C31215589   4.761   0.641   9.221  0.6141  0.4037 -0.2271
  142SAPE  H12X15590   4.843   0.716   9.223  1.3548 -0.3869 -0.8888
  142SAPE  H12Y15591   4.686   0.671   9.144 -0.9075 -0.5874  0.8255
  142SAPE  C31315592   4.812   0.497   9.175  0.6538  0.2425  0.4578
  142SAPE  H13X15593   4.732   0.419   9.175  0.9292 -0.0415  0.4299
  142SAPE  H13Y15594   4.882   0.455   9.251 -0.6815  0.5135  1.8668
  142SAPE  C31415595   4.879   0.484   9.036 -0.7951  0.3261  0.1807
  142SAPE  H14X15596   4.920   0.381   9.020 -1.5394 -0.0204  0.5032
  142SAPE  H14Y15597   4.961   0.559   9.031 -2.5863  2.2239 -2.5124
  142SAPE  C31515598   4.785   0.520   8.917 -0.0500 -0.4062  0.1781
  142SAPE  H15X15599   4.750   0.622   8.947 -0.1150  0.1599 -1.7986
  142SAPE  H15Y15600   4.693   0.460   8.910 -0.0444 -0.4216  0.2316
  142SAPE  C31615601   4.862   0.534   8.785 -0.2665 -0.4856 -0.6552
  142SAPE  H16X15602   4.966   0.572   8.792 -0.6379  0.2599  1.1119
  142SAPE  H16Y15603   4.799   0.606   8.728  0.6086 -0.3155 -1.4274
  142SAPE  C31715604   4.871   0.397   8.721 -0.5926  0.5433  0.0219
  142SAPE  H17X15605   4.766   0.363   8.723 -0.2275 -0.5667  2.2336
  142SAPE  H17Y15606   4.918   0.328   8.795  1.2127  1.4495 -0.2366
  142SAPE  C31815607   4.940   0.381   8.581  0.1873  0.2371  0.0216
  142SAPE  H18X15608   4.902   0.462   8.515  2.6517  2.4731  1.2880
  142SAPE  H18Y15609   4.914   0.279   8.546  2.0844  0.4160 -1.9717
  142SAPE  H18Z15610   5.050   0.384   8.576  0.3502 -1.3089  2.0852
  143SAPE     N15611   6.606   0.661  10.841  0.3020 -0.1603  0.3908
  143SAPE   HN115612   6.538   0.599  10.792  0.7040 -0.1455 -0.1916
  143SAPE   HN215613   6.667   0.690  10.762 -0.3204 -2.5011 -0.9983
  143SAPE   HN315614   6.664   0.607  10.909  0.9198 -0.8499 -0.6630
  143SAPE   C1215615   6.522   0.775  10.884 -0.0003 -0.0748 -0.5383
  143SAPE  H12A15616   6.441   0.793  10.810 -0.7649  1.1130  0.5731
  143SAPE  H12B15617   6.584   0.867  10.878 -1.5601  0.9653 -0.9009
  143SAPE   C1115618   6.474   0.745  11.023  0.1551  0.3776 -0.2634
  143SAPE  H11A15619   6.433   0.833  11.078  1.1432  0.8283 -0.2344
  143SAPE  H11B15620   6.561   0.730  11.090 -0.9353  1.3704  1.4214
  143SAPE     P15621   6.260   0.617  11.104  0.2557  0.1079 -0.0726
  143SAPE   O1315622   6.270   0.488  11.178 -0.2772  0.0933  0.8273
  143SAPE   O1415623   6.247   0.746  11.183 -0.0341  0.2555 -0.7633
  143SAPE   O1215624   6.388   0.629  11.020 -0.0151 -0.1751 -0.5945
  143SAPE   O1115625   6.153   0.592  10.991  0.0194  0.1501 -0.2433
  143SAPE    C115626   6.082   0.688  10.914  0.0951 -0.1078 -0.4076
  143SAPE    HA15627   5.981   0.645  10.900  0.4127 -0.8033 -0.5827
  143SAPE    HB15628   6.076   0.791  10.956  0.1164  0.2613 -1.2913
  143SAPE    C215629   6.145   0.692  10.768 -0.3571  0.9356 -0.0750
  143SAPE    HS15630   6.241   0.748  10.766  1.0114 -1.4036 -3.1166
  143SAPE   O2115631   6.060   0.767  10.682 -0.2960  0.3530 -0.3680
  143SAPE   C2115632   6.072   0.900  10.687 -0.1597 -0.0414  0.1919
  143SAPE   O2215633   6.157   0.962  10.745  0.3556 -0.8694 -0.3890
  143SAPE   C2215634   5.960   0.975  10.617 -0.2226  0.4828  0.3584
  143SAPE   H2R15635   5.871   0.909  10.616 -0.4507  0.7715 -1.3868
  143SAPE   H2S15636   5.934   1.064  10.678  0.3682  1.2072 -0.4246
  143SAPE    C315637   6.163   0.552  10.712 -0.2315 -0.3240 -0.6671
  143SAPE    HX15638   6.060   0.511  10.718 -0.0692 -0.7781 -0.9854
  143SAPE    HY15639   6.232   0.490  10.773 -0.1583 -0.7944 -1.2243
  143SAPE   O3115640   6.209   0.571  10.577 -0.2691  0.3110  0.2126
  143SAPE   C3115641   6.342   0.586  10.566  0.1116  0.3930 -0.8321
  143SAPE   O3215642   6.423   0.572  10.658  0.5049  0.5125  0.1793
  143SAPE   C3215643   6.382   0.617  10.416  0.4755  0.0882 -0.5878
  143SAPE   H2X15644   6.337   0.717  10.396 -0.7417  0.1801  2.2935
  143SAPE   H2Y15645   6.344   0.527  10.364  0.6859 -1.5630  2.0119
  143SAPE   C2315646   5.990   1.036  10.476  0.5106 -0.4582 -0.1666
  143SAPE   H3R15647   6.027   0.962  10.402  1.0199 -0.8224  0.4472
  143SAPE   H3S15648   6.073   1.109  10.492 -1.6268  2.4972 -1.9114
  143SAPE   C2415649   5.873   1.095  10.404 -0.0693 -0.0149  0.2313
  143SAPE   H4R15650   5.794   1.017  10.402  0.2136 -0.2905 -0.3563
  143SAPE   H4S15651   5.902   1.128  10.302  0.2778 -0.1099  0.2985
  143SAPE   C2515652   5.809   1.211  10.477  0.3428 -0.5557  0.4190
  143SAPE   H5R15653   5.876   1.254  10.553 -0.9563 -0.8493  1.7405
  143SAPE   C2615654   5.683   1.260  10.453 -0.1986  0.4534  0.3165
  143SAPE   H6R15655   5.650   1.346  10.513 -0.6773  1.1324 -0.9024
  143SAPE   C2715656   5.588   1.212  10.344  0.5752 -0.2154  0.5941
  143SAPE   H7R15657   5.610   1.105  10.323 -1.8250 -0.3945 -1.2556
  143SAPE   H7S15658   5.600   1.273  10.253 -0.3946 -2.4821 -1.1216
  143SAPE   C2815659   5.443   1.218  10.383 -0.1119 -0.1082 -0.0478
  143SAPE   H8R15660   5.418   1.204  10.489 -0.6153  0.6723 -0.0587
  143SAPE   C2915661   5.337   1.240  10.299  0.0562  0.3046  0.8210
  143SAPE   H9R15662   5.234   1.247  10.336 -0.5324 -2.2839 -0.2616
  143SAPE  C21015663   5.355   1.246  10.150 -0.0130 -0.2205 -0.5370
  143SAPE  H10R15664   5.461   1.240  10.117  0.1214 -0.3434 -0.0940
  143SAPE  H10S15665   5.323   1.346  10.115 -2.3479 -1.4192 -1.9302
  143SAPE  C21115666   5.294   1.139  10.064  0.1038 -0.3121 -0.2722
  143SAPE  H11R15667   5.224   1.071  10.116 -0.8159  1.5212  0.9547
  143SAPE  C21215668   5.300   1.131   9.930  0.0144 -0.0830 -0.1087
  143SAPE  H12R15669   5.243   1.051   9.881 -1.9592  0.3174  1.4483
  143SAPE  C21315670   5.380   1.221   9.835  0.1948  0.6993 -0.7073
  143SAPE  H13R15671   5.399   1.321   9.879 -2.9607  1.2917 -0.5479
  143SAPE  H13S15672   5.313   1.244   9.749 -0.0455  2.2665 -0.1226
  143SAPE  C21415673   5.516   1.165   9.794  0.1044 -0.2745 -0.0728
  143SAPE  H14R15674   5.562   1.089   9.858 -0.9288 -0.1635  0.8314
  143SAPE  C21515675   5.575   1.198   9.681 -0.4209  0.4653  0.3140
  143SAPE  H15R15676   5.679   1.169   9.661 -0.9927  0.3006 -2.6473
  143SAPE  C21615677   5.519   1.285   9.567 -0.9152 -0.1571 -0.0395
  143SAPE  H16R15678   5.597   1.363   9.554  1.4266 -2.2808  1.0004
  143SAPE  H16S15679   5.423   1.330   9.602 -1.0515  0.5608 -1.3103
  143SAPE  C21715680   5.495   1.202   9.432  0.2666  0.7592  0.0766
  143SAPE  H17R15681   5.449   1.105   9.459 -0.0834  1.2236  1.1931
  143SAPE  H17S15682   5.590   1.185   9.377 -1.3404 -1.6908 -2.0732
  143SAPE  C21815683   5.412   1.274   9.324  0.4611 -0.1782  0.1278
  143SAPE  H18R15684   5.410   1.201   9.241  2.1101 -0.3740  0.2464
  143SAPE  H18S15685   5.456   1.367   9.280 -2.6806  0.3936 -2.0292
  143SAPE  C21915686   5.266   1.298   9.377 -0.4864 -0.3198  0.4092
  143SAPE  H19R15687   5.269   1.361   9.469  2.2500  0.9102 -0.4785
  143SAPE  H19S15688   5.233   1.194   9.397  0.7548 -1.5273 -3.3758
  143SAPE  C22015689   5.169   1.356   9.283 -0.0898  0.2294  0.3525
  143SAPE  H20R15690   5.070   1.347   9.334  0.5816 -1.3888  1.3745
  143SAPE  H20S15691   5.177   1.299   9.188  1.5961 -1.4636  1.4850
  143SAPE  H20T15692   5.182   1.462   9.253  2.3411  0.3422  1.7171
  143SAPE   C3315693   6.535   0.633  10.385  0.2518 -0.5227 -0.1840
  143SAPE   H3X15694   6.585   0.541  10.421 -0.8291 -0.8310  0.5793
  143SAPE   H3Y15695   6.580   0.715  10.445 -1.3418  0.4913 -0.3291
  143SAPE   C3415696   6.568   0.637  10.238  0.1022  0.1571 -0.7736
  143SAPE   H4X15697   6.674   0.668  10.221  0.8715 -1.1984  1.3324
  143SAPE   H4Y15698   6.493   0.703  10.190  0.3425  1.0941  0.1500
  143SAPE   C3515699   6.555   0.501  10.164  0.2688 -0.2055  0.1843
  143SAPE   H5X15700   6.450   0.465  10.157  0.4254 -1.0977  2.2179
  143SAPE   H5Y15701   6.619   0.415  10.193 -0.1613 -0.7869 -0.5585
  143SAPE   C3615702   6.581   0.531  10.017  0.9310  0.5549  0.5423
  143SAPE   H6X15703   6.682   0.576  10.006  0.4083  1.5492 -0.3538
  143SAPE   H6Y15704   6.506   0.608   9.987  1.1233 -0.3783 -2.5654
  143SAPE   C3715705   6.562   0.412   9.922 -0.8284  0.9573  1.4218
  143SAPE   H7X15706   6.457   0.374   9.914 -0.1035 -0.8091 -0.1945
  143SAPE   H7Y15707   6.626   0.330   9.962  0.4006  1.9793  1.5721
  143SAPE   C3815708   6.626   0.449   9.784  0.0593  0.8872 -0.4671
  143SAPE   H8X15709   6.724   0.499   9.799 -0.6293  1.4765  2.4175
  143SAPE   H8Y15710   6.557   0.520   9.734 -0.4654  1.3552  0.9158
  143SAPE   C3915711   6.640   0.337   9.676 -0.4563 -0.5659  0.0835
  143SAPE   H9X15712   6.672   0.239   9.716  2.9209  0.2248 -0.5148
  143SAPE   H9Y15713   6.708   0.373   9.596 -2.1852  1.9255 -0.3454
  143SAPE  C31015714   6.505   0.300   9.618 -0.5393  0.7596 -0.2313
  143SAPE  H10X15715   6.444   0.390   9.594  0.4378  1.1691 -1.2257
  143SAPE  H10Y15716   6.444   0.240   9.689  0.7635  1.4205  1.4539
  143SAPE  C31115717   6.512   0.226   9.484 -0.3788 -1.2255 -0.2014
  143SAPE  H11X15718   6.534   0.118   9.492  2.3320 -0.6526  0.7827
  143SAPE  H11Y15719   6.594   0.274   9.425 -1.3899  1.0136  0.1625
  143SAPE  C31215720   6.381   0.250   9.402  0.3492 -0.1741  0.6063
  143SAPE  H12X15721   6.293   0.221   9.464  0.4334 -0.7064  0.4826
  143SAPE  H12Y15722   6.371   0.177   9.319 -2.6571  0.0353  0.7134
  143SAPE  C31315723   6.366   0.392   9.345  0.4973  0.1678 -0.0754
  143SAPE  H13X15724   6.465   0.423   9.304  1.9206 -2.1446  1.5311
  143SAPE  H13Y15725   6.342   0.455   9.433 -1.2702 -0.4363 -0.0916
  143SAPE  C31415726   6.254   0.400   9.241 -0.0183 -0.2479  0.5366
  143SAPE  H14X15727   6.242   0.507   9.214  1.4566  0.2679  1.8161
  143SAPE  H14Y15728   6.155   0.364   9.276  0.0556 -1.6923 -0.6996
  143SAPE  C31515729   6.286   0.331   9.107  0.5208 -0.0065 -0.3172
  143SAPE  H15X15730   6.321   0.227   9.122  0.3052 -0.3504 -2.0342
  143SAPE  H15Y15731   6.381   0.367   9.063  1.1762  1.0234  1.8653
  143SAPE  C31615732   6.169   0.340   9.015  1.1978  0.3337  0.2246
  143SAPE  H16X15733   6.152   0.447   8.992 -2.4358 -0.5217 -1.5205
  143SAPE  H16Y15734   6.077   0.296   9.058 -0.7486  3.5125 -0.5125
  143SAPE  C31715735   6.194   0.266   8.882 -0.4211 -0.3927 -0.2947
  143SAPE  H17X15736   6.190   0.161   8.918 -0.4144 -0.1714  0.3609
  143SAPE  H17Y15737   6.296   0.291   8.846  0.5071 -1.9331  1.2006
  143SAPE  C31815738   6.082   0.291   8.787 -0.5423 -0.1564  0.1532
  143SAPE  H18X15739   5.987   0.267   8.838 -2.5501  0.6268 -3.0867
  143SAPE  H18Y15740   6.098   0.220   8.703  0.2687  0.0542  0.1183
  143SAPE  H18Z15741   6.081   0.396   8.751 -1.0124 -0.3721 -0.4582
  144SAPE     N15742   3.314   6.311  10.942 -0.4178 -0.0083 -0.4248
  144SAPE   HN115743   3.360   6.378  11.006  0.7552 -1.1046 -0.1048
  144SAPE   HN215744   3.229   6.350  10.896 -1.2051 -0.4292  0.6514
  144SAPE   HN315745   3.287   6.231  11.003 -0.9077 -0.1275 -0.7933
  144SAPE   C1215746   3.417   6.252  10.848 -0.3210  0.2092 -0.0844
  144SAPE  H12A15747   3.456   6.337  10.789  1.2984 -0.4692 -0.0037
  144SAPE  H12B15748   3.370   6.174  10.785 -2.6513 -0.1407  1.9879
  144SAPE   C1115749   3.523   6.178  10.928 -0.0932 -0.2524  0.0442
  144SAPE  H11A15750   3.565   6.257  10.993 -0.2133 -0.6376  0.5940
  144SAPE  H11B15751   3.596   6.130  10.859  1.7137  1.4755  0.7002
  144SAPE     P15752   3.543   5.944  11.040 -0.5717  0.0311 -0.3247
  144SAPE   O1315753   3.688   5.955  11.033  0.7937 -0.1376 -0.2588
  144SAPE   O1415754   3.489   5.884  11.163 -0.0840 -0.1075 -0.7135
  144SAPE   O1215755   3.469   6.075  11.018 -0.4060 -0.9714 -0.0340
  144SAPE   O1115756   3.497   5.851  10.916 -0.2325  0.2801  0.2977
  144SAPE    C115757   3.356   5.838  10.882  1.0290 -0.6235  0.5897
  144SAPE    HA15758   3.308   5.766  10.952  0.0593  1.3486  2.0113
  144SAPE    HB15759   3.305   5.936  10.899  1.4340 -0.5640  1.4761
  144SAPE    C215760   3.331   5.792  10.733 -1.0140 -0.8347 -0.1993
  144SAPE    HS15761   3.397   5.704  10.715  3.2754  1.4813  3.2052
  144SAPE   O2115762   3.369   5.904  10.650 -0.2344 -0.0227  0.6164
  144SAPE   C2115763   3.497   5.903  10.608 -0.0135 -0.4738  0.1825
  144SAPE   O2215764   3.576   5.809  10.603 -0.0454 -0.5084 -0.0674
  144SAPE   C2215765   3.535   6.049  10.563 -0.1103 -0.2286 -0.3021
  144SAPE   H2R15766   3.442   6.109  10.563  1.6182  2.5439 -1.8690
  144SAPE   H2S15767   3.610   6.082  10.639 -1.0215 -1.0927  0.9968
  144SAPE    C315768   3.184   5.756  10.710  0.7265 -0.1712  0.0642
  144SAPE    HX15769   3.126   5.832  10.767  0.4829  0.6610 -1.2718
  144SAPE    HY15770   3.160   5.658  10.757 -0.5901 -0.9507 -2.1479
  144SAPE   O3115771   3.158   5.763  10.565 -0.5945 -0.2539  0.2056
  144SAPE   C3115772   3.074   5.856  10.519 -0.3778 -0.0926 -0.1050
  144SAPE   O3215773   3.017   5.940  10.586 -0.2074  0.4992 -0.6712
  144SAPE   C3215774   3.068   5.834  10.366  0.7063 -0.1206 -0.0968
  144SAPE   H2X15775   3.092   5.727  10.345  0.4627  0.2794 -2.6603
  144SAPE   H2Y15776   3.147   5.892  10.313  1.1754 -0.6219  0.0534
  144SAPE   C2315777   3.596   6.054  10.421 -0.2326  0.0555  0.0848
  144SAPE   H3R15778   3.681   5.983  10.418  0.5434  0.9508  0.4586
  144SAPE   H3S15779   3.631   6.154  10.389  1.7740 -0.6965 -0.1041
  144SAPE   C2415780   3.495   6.006  10.315 -0.6362  0.1724 -0.3310
  144SAPE   H4R15781   3.487   5.896  10.330  1.0230  0.0383 -0.3537
  144SAPE   H4S15782   3.539   6.016  10.213 -0.4869 -0.8806 -0.3702
  144SAPE   C2515783   3.357   6.065  10.316  0.9461  0.2905  0.6579
  144SAPE   H5R15784   3.315   6.077  10.416  0.0030  2.5718  0.0237
  144SAPE   C2615785   3.286   6.089  10.202 -0.5753 -0.0925  0.4360
  144SAPE   H6R15786   3.179   6.111  10.199 -0.5425  0.1328  0.8615
  144SAPE   C2715787   3.346   6.070  10.065 -0.5844 -0.5832 -0.7971
  144SAPE   H7R15788   3.456   6.087  10.066  0.1394 -4.7759  0.8770
  144SAPE   H7S15789   3.307   6.156  10.007 -0.7775 -0.0584  0.1039
  144SAPE   C2815790   3.307   5.938  10.005 -0.0672  0.4521 -0.0348
  144SAPE   H8R15791   3.366   5.852  10.038 -1.4890 -0.7490 -0.5275
  144SAPE   C2915792   3.219   5.916   9.902  0.4444 -0.4308  0.2913
  144SAPE   H9R15793   3.218   5.816   9.857  0.6422 -0.2671 -0.0799
  144SAPE  C21015794   3.135   6.015   9.828 -0.8836 -0.1778  0.3456
  144SAPE  H10R15795   3.085   6.086   9.897 -1.6937 -1.4535  1.0971
  144SAPE  H10S15796   3.056   5.955   9.779 -1.3035  1.0219 -0.4638
  144SAPE  C21115797   3.227   6.087   9.725 -0.1901  0.3324 -0.5176
  144SAPE  H11R15798   3.320   6.126   9.769 -0.8499  2.0992 -0.6579
  144SAPE  C21215799   3.189   6.133   9.605  0.3051  0.1743  0.0668
  144SAPE  H12R15800   3.266   6.163   9.533 -0.9493 -1.0255 -1.8353
  144SAPE  C21315801   3.054   6.119   9.545 -0.0558  1.1355 -0.1809
  144SAPE  H13R15802   2.987   6.068   9.617  3.2490  1.2915  3.1336
  144SAPE  H13S15803   3.067   6.049   9.459  2.1042  0.7498  0.4320
  144SAPE  C21415804   2.971   6.230   9.490 -0.2754  0.0697 -0.5521
  144SAPE  H14R15805   2.939   6.302   9.567 -0.1153  2.0413 -2.2580
  144SAPE  C21515806   2.965   6.270   9.361  0.4486  0.2625 -0.7057
  144SAPE  H15R15807   2.887   6.341   9.332  0.4999 -0.7652 -3.4845
  144SAPE  C21615808   3.028   6.180   9.251  0.2172  0.1264  0.0565
  144SAPE  H16R15809   2.963   6.091   9.240  0.7953 -0.1554 -1.1109
  144SAPE  H16S15810   3.129   6.144   9.280  1.3024  2.3131 -0.8507
  144SAPE  C21715811   3.048   6.271   9.125 -0.3642  0.6012 -0.6909
  144SAPE  H17R15812   3.119   6.353   9.149  0.1869 -0.1831  0.4039
  144SAPE  H17S15813   2.951   6.303   9.082 -0.8325  0.1618  0.0232
  144SAPE  C21815814   3.117   6.194   9.008 -0.0605 -0.3392  0.0596
  144SAPE  H18R15815   3.063   6.099   8.987  1.1939 -0.5644 -2.2890
  144SAPE  H18S15816   3.223   6.169   9.027  0.1591  0.4217 -0.1495
  144SAPE  C21915817   3.113   6.268   8.872  0.0342  0.7624  0.3357
  144SAPE  H19R15818   3.195   6.341   8.887  1.3134 -0.3829 -1.0309
  144SAPE  H19S15819   3.020   6.329   8.867 -1.1827 -1.1490 -0.6817
  144SAPE  C22015820   3.142   6.174   8.758  0.2711  0.3131  0.4636
  144SAPE  H20R15821   3.059   6.103   8.737  1.3424 -1.2549  1.4021
  144SAPE  H20S15822   3.233   6.111   8.768  1.4645  2.2100  1.9348
  144SAPE  H20T15823   3.149   6.231   8.663 -3.7336  0.0771 -0.0347
  144SAPE   C3315824   2.933   5.870  10.299  0.5806 -0.0673  0.4969
  144SAPE   H3X15825   2.911   5.977  10.323 -1.4853 -0.0749 -1.1612
  144SAPE   H3Y15826   2.841   5.820  10.335 -0.0492  0.4383 -0.3950
  144SAPE   C3415827   2.944   5.871  10.145 -0.0565 -0.6251  0.2196
  144SAPE   H4X15828   2.972   5.771  10.105 -1.1492 -0.5259 -0.8021
  144SAPE   H4Y15829   3.025   5.942  10.120 -0.7906  0.2907  0.3935
  144SAPE   C3515830   2.812   5.910  10.086  0.0065 -0.1746 -0.0761
  144SAPE   H5X15831   2.730   5.856  10.137 -1.5075  1.6297 -0.5289
  144SAPE   H5Y15832   2.803   5.880   9.979 -1.0136  2.3674 -0.7606
  144SAPE   C3615833   2.778   6.058  10.098  0.0794 -0.1019  0.1810
  144SAPE   H6X15834   2.871   6.116  10.076 -1.1419  1.9834  0.3537
  144SAPE   H6Y15835   2.741   6.091  10.197 -2.3294  2.6947 -1.5605
  144SAPE   C3715836   2.674   6.121   9.997  0.5641 -0.1275  0.4316
  144SAPE   H7X15837   2.577   6.078  10.029 -0.0057  2.5111  2.3473
  144SAPE   H7Y15838   2.705   6.092   9.894 -1.4425 -0.6963 -0.0275
  144SAPE   C3815839   2.672   6.271  10.011 -0.3730 -0.1777  0.1057
  144SAPE   H8X15840   2.771   6.303   9.972 -0.6302  0.9866  0.4125
  144SAPE   H8Y15841   2.670   6.301  10.117 -2.2647  1.6587 -0.4128
  144SAPE   C3915842   2.560   6.354   9.945 -0.2137  0.5016  1.5026
  144SAPE   H9X15843   2.564   6.463   9.961  2.7749  0.7033 -0.1867
  144SAPE   H9Y15844   2.459   6.319   9.975 -1.3903 -0.8501 -3.5477
  144SAPE  C31015845   2.570   6.333   9.788 -0.7747 -0.1233 -0.1381
  144SAPE  H10X15846   2.524   6.240   9.747 -1.2601 -0.3672  0.9364
  144SAPE  H10Y15847   2.680   6.332   9.769 -0.9140 -0.9980 -0.9443
  144SAPE  C31115848   2.521   6.456   9.706  0.4461 -0.1094 -0.2616
  144SAPE  H11X15849   2.564   6.552   9.740  2.5991 -0.8435 -0.8334
  144SAPE  H11Y15850   2.412   6.471   9.723 -0.9507 -4.6885 -4.0030
  144SAPE  C31215851   2.554   6.428   9.560 -0.3555 -0.9047 -0.1723
  144SAPE  H12X15852   2.510   6.333   9.525  1.0920 -1.5010 -0.4114
  144SAPE  H12Y15853   2.665   6.430   9.558 -0.3585 -0.5738 -0.0831
  144SAPE  C31315854   2.504   6.541   9.460 -0.1626  0.7368  0.0905
  144SAPE  H13X15855   2.520   6.637   9.513  0.5199 -0.1098  1.4562
  144SAPE  H13Y15856   2.395   6.520   9.454  0.1637 -0.8292 -0.4727
  144SAPE  C31415857   2.569   6.520   9.329  0.1679 -0.1559 -0.6658
  144SAPE  H14X15858   2.563   6.414   9.299 -1.2958  0.0102 -1.0042
  144SAPE  H14Y15859   2.677   6.544   9.333  0.0294  0.2920  0.5861
  144SAPE  C31515860   2.502   6.591   9.216  1.2584  0.4804  0.7836
  144SAPE  H15X15861   2.484   6.698   9.242  1.6193  0.8024 -0.2446
  144SAPE  H15Y15862   2.398   6.555   9.199  1.7238 -1.0666  1.1653
  144SAPE  C31615863   2.586   6.580   9.088 -0.2923  0.0030  0.0953
  144SAPE  H16X15864   2.595   6.470   9.073 -1.6660  0.1088 -1.6190
  144SAPE  H16Y15865   2.690   6.613   9.109 -0.2928 -0.9338  1.6937
  144SAPE  C31715866   2.528   6.633   8.964  0.3997 -0.2113  0.6924
  144SAPE  H17X15867   2.611   6.626   8.890 -0.7693  0.4364 -0.7195
  144SAPE  H17Y15868   2.489   6.737   8.975 -0.5445 -0.3271 -1.3786
  144SAPE  C31815869   2.415   6.551   8.909  0.4192 -0.1886  0.0156
  144SAPE  H18X15870   2.449   6.447   8.888  0.3528 -0.3356  0.6133
  144SAPE  H18Y15871   2.390   6.597   8.811  1.2092  0.8729  0.2975
  144SAPE  H18Z15872   2.332   6.536   8.982  0.1752 -3.9901 -0.9269
  145SAPE     N15873   5.303   1.224  11.001  0.8201 -0.0079  0.7905
  145SAPE   HN115874   5.372   1.170  11.057  0.9796 -0.6896 -0.0562
  145SAPE   HN215875   5.208   1.184  11.013  0.9320 -0.1073  1.3846
  145SAPE   HN315876   5.331   1.211  10.902 -0.6617  0.8466  0.2490
  145SAPE   C1215877   5.318   1.367  11.048 -0.1369 -0.6269 -0.6183
  145SAPE  H12A15878   5.227   1.430  11.039  0.6634  0.5296 -0.7480
  145SAPE  H12B15879   5.384   1.414  10.972 -0.9939  1.1741 -0.2828
  145SAPE   C1115880   5.379   1.372  11.184 -0.0927 -0.3580  0.6697
  145SAPE  H11A15881   5.393   1.477  11.219  1.9715 -0.9394  1.6623
  145SAPE  H11B15882   5.483   1.334  11.182  0.0650 -0.0383  1.9535
  145SAPE     P15883   5.334   1.161  11.338 -0.2565 -0.4527 -0.1068
  145SAPE   O1315884   5.435   1.184  11.440 -0.2822  1.0156  0.0344
  145SAPE   O1415885   5.208   1.098  11.378  0.4568 -0.4367  0.3725
  145SAPE   O1215886   5.296   1.297  11.281  0.1037 -0.3165  0.3167
  145SAPE   O1115887   5.395   1.093  11.208  0.1339 -0.4022 -0.1613
  145SAPE    C115888   5.530   1.052  11.207 -0.8706  0.3017 -0.2310
  145SAPE    HA15889   5.594   1.139  11.181 -1.9899  1.1594 -0.1909
  145SAPE    HB15890   5.552   1.005  11.305  0.4292 -0.8124 -1.0550
  145SAPE    C215891   5.559   0.943  11.104  0.2763  0.6850 -0.5946
  145SAPE    HS15892   5.662   0.912  11.132  0.1622  0.5723 -0.3018
  145SAPE   O2115893   5.533   0.987  10.964 -0.0372 -0.0412  0.1053
  145SAPE   C2115894   5.615   0.938  10.872  0.2576  0.1093  0.1482
  145SAPE   O2215895   5.707   0.864  10.905 -0.4204 -0.1605  0.4635
  145SAPE   C2215896   5.596   1.005  10.738  0.1115  0.5971  0.0479
  145SAPE   H2R15897   5.555   1.109  10.742  1.7721  1.2857 -0.4688
  145SAPE   H2S15898   5.698   1.009  10.695  0.2731  0.2873  0.4042
  145SAPE    C315899   5.471   0.817  11.137  0.0800 -0.8427  0.2990
  145SAPE    HX15900   5.364   0.838  11.119  0.3580  2.0022  1.6330
  145SAPE    HY15901   5.477   0.794  11.246 -0.6581 -0.9234  0.3255
  145SAPE   O3115902   5.520   0.710  11.063 -0.0319  0.1611  0.0805
  145SAPE   C3115903   5.600   0.623  11.121 -0.6412 -0.1556  0.3404
  145SAPE   O3215904   5.642   0.629  11.234  0.6272  0.9385 -0.0975
  145SAPE   C3215905   5.614   0.505  11.029  0.0618 -0.3043  0.9144
  145SAPE   H2X15906   5.598   0.543  10.926 -0.3269 -2.0274  0.3248
  145SAPE   H2Y15907   5.530   0.437  11.055 -0.4448 -0.5963 -1.4272
  145SAPE   C2315908   5.511   0.921  10.631 -0.0965 -0.5851 -0.0524
  145SAPE   H3R15909   5.522   0.975  10.535  1.6612 -1.2325 -0.2516
  145SAPE   H3S15910   5.403   0.917  10.657  0.0941  1.8561  1.1883
  145SAPE   C2415911   5.557   0.774  10.613  0.2501 -0.0949  0.6333
  145SAPE   H4R15912   5.474   0.725  10.557  1.0560 -1.5302  0.6681
  145SAPE   H4S15913   5.567   0.715  10.706  3.0364 -0.3344  0.2054
  145SAPE   C2515914   5.678   0.745  10.529  0.4169  0.1397  0.2772
  145SAPE   H5R15915   5.765   0.714  10.589  0.4119  1.7200  1.1439
  145SAPE   C2615916   5.688   0.729  10.397  0.0042 -0.0227 -0.2007
  145SAPE   H6R15917   5.787   0.702  10.357  0.5063 -0.6513  1.4227
  145SAPE   C2715918   5.580   0.761  10.298  0.7489  0.3087 -0.1118
  145SAPE   H7R15919   5.579   0.870  10.278  1.9064  0.5333  0.9807
  145SAPE   H7S15920   5.482   0.738  10.346  0.3421 -0.6009 -1.3764
  145SAPE   C2815921   5.592   0.685  10.166 -0.1266 -0.1414 -0.7696
  145SAPE   H8R15922   5.576   0.576  10.157  0.3420 -0.1692 -1.2296
  145SAPE   C2915923   5.632   0.739  10.051  0.2658 -0.1341  0.8143
  145SAPE   H9R15924   5.629   0.671   9.965 -1.8581  3.2910 -1.9685
  145SAPE  C21015925   5.671   0.882  10.020  0.7883  0.4990 -0.3448
  145SAPE  H10R15926   5.664   0.951  10.106 -0.5152 -0.3257  0.2160
  145SAPE  H10S15927   5.602   0.924   9.944  1.3773  0.7828 -0.7370
  145SAPE  C21115928   5.809   0.886   9.967 -0.0319 -1.2102  0.3107
  145SAPE  H11R15929   5.893   0.884  10.038 -0.4727 -0.0845  0.8755
  145SAPE  C21215930   5.847   0.874   9.844 -0.2807  0.1742 -0.8273
  145SAPE  H12R15931   5.954   0.884   9.824 -0.1873  0.4013 -0.2312
  145SAPE  C21315932   5.754   0.866   9.720 -0.1545  0.5077  0.0189
  145SAPE  H13R15933   5.657   0.910   9.753  0.2612  0.9496  0.6553
  145SAPE  H13S15934   5.734   0.757   9.711 -0.4715  0.6945 -1.6502
  145SAPE  C21415935   5.807   0.916   9.586  0.4327 -0.9297 -0.5027
  145SAPE  H14R15936   5.909   0.957   9.593  0.1451 -0.4526  1.0148
  145SAPE  C21515937   5.737   0.915   9.473  0.1693 -0.1539 -0.1777
  145SAPE  H15R15938   5.773   0.938   9.372  1.2026  1.1299  0.4687
  145SAPE  C21615939   5.600   0.851   9.448 -0.8624  1.1207  0.6999
  145SAPE  H16R15940   5.533   0.904   9.375 -0.6414  0.1918 -0.1894
  145SAPE  H16S15941   5.532   0.843   9.536 -0.5097 -1.1926  0.7898
  145SAPE  C21715942   5.629   0.709   9.384 -0.2911 -0.3011 -0.1378
  145SAPE  H17R15943   5.530   0.658   9.387  0.5485 -2.0758 -1.8112
  145SAPE  H17S15944   5.698   0.653   9.451 -1.5371  0.1149  1.5491
  145SAPE  C21815945   5.696   0.715   9.245  0.3992  0.3102 -1.1196
  145SAPE  H18R15946   5.692   0.608   9.213  0.4135  0.1248 -0.5083
  145SAPE  H18S15947   5.804   0.734   9.256  0.1024  2.4518 -1.8011
  145SAPE  C21915948   5.634   0.805   9.137 -0.5040  0.5331  0.3364
  145SAPE  H19R15949   5.694   0.787   9.045  2.3817 -1.4290  2.5189
  145SAPE  H19S15950   5.656   0.910   9.167 -1.8885  1.3196 -1.3340
  145SAPE  C22015951   5.490   0.771   9.105  0.4405  0.1690 -0.5457
  145SAPE  H20R15952   5.433   0.791   9.198 -1.0412 -3.3465 -0.6559
  145SAPE  H20S15953   5.477   0.668   9.065  2.4026  1.1596 -3.9630
  145SAPE  H20T15954   5.439   0.835   9.029 -0.3787 -2.0898 -1.9448
  145SAPE   C3315955   5.747   0.419  11.041 -0.1906  0.6271  1.0770
  145SAPE   H3X15956   5.749   0.372  11.142  1.4205  1.5658  1.5018
  145SAPE   H3Y15957   5.837   0.483  11.048  0.7908 -0.7585  1.2750
  145SAPE   C3415958   5.767   0.307  10.932  0.1014 -0.2914  0.2007
  145SAPE   H4X15959   5.705   0.224  10.970  3.0354 -1.3359  2.9447
  145SAPE   H4Y15960   5.866   0.258  10.922  1.0628  1.9607 -2.0961
  145SAPE   C3515961   5.724   0.350  10.791 -0.6383 -0.5883 -0.1051
  145SAPE   H5X15962   5.761   0.454  10.776 -0.0316 -0.1251  4.0711
  145SAPE   H5Y15963   5.614   0.339  10.777 -0.6435  1.1564 -1.7706
  145SAPE   C3615964   5.779   0.271  10.668  0.3743 -0.9455 -0.0830
  145SAPE   H6X15965   5.773   0.165  10.702 -3.1822 -0.7420  0.1476
  145SAPE   H6Y15966   5.885   0.299  10.655 -0.2979  1.1959 -1.2267
  145SAPE   C3715967   5.705   0.296  10.535 -0.2413  0.7517  0.2284
  145SAPE   H7X15968   5.694   0.407  10.532  0.0501  0.7727 -0.2693
  145SAPE   H7Y15969   5.605   0.247  10.535  0.8156 -1.5746 -2.5719
  145SAPE   C3815970   5.779   0.232  10.420  0.9613  0.1273  0.2573
  145SAPE   H8X15971   5.715   0.248  10.331  0.4434 -2.4523  0.1206
  145SAPE   H8Y15972   5.793   0.123  10.437 -0.5009 -0.3994 -1.6706
  145SAPE   C3915973   5.914   0.293  10.373 -0.2903 -0.0910 -0.2100
  145SAPE   H9X15974   5.958   0.223  10.300  2.3037 -0.0900  1.2836
  145SAPE   H9Y15975   5.993   0.283  10.451 -2.5155 -2.0434  1.8908
  145SAPE  C31015976   5.912   0.434  10.319 -0.2927  0.0387  0.8389
  145SAPE  H10X15977   5.920   0.507  10.403  4.2123  0.7002 -0.0380
  145SAPE  H10Y15978   5.816   0.458  10.269  0.4952 -2.0666 -1.8084
  145SAPE  C31115979   6.021   0.469  10.216  0.4500 -0.0079 -0.6020
  145SAPE  H11X15980   6.022   0.400  10.128  1.1800  0.1397 -0.7138
  145SAPE  H11Y15981   6.120   0.474  10.266  1.2605  1.4044 -2.2758
  145SAPE  C31215982   5.985   0.602  10.139 -0.8604  0.2352 -0.3227
  145SAPE  H12X15983   5.960   0.680  10.215  0.7923  0.4265  0.0508
  145SAPE  H12Y15984   5.889   0.597  10.084 -2.3298  0.0892  2.1572
  145SAPE  C31315985   6.103   0.656  10.062  0.8229  0.4539 -0.3475
  145SAPE  H13X15986   6.183   0.694  10.130  0.2618 -1.2919  1.3533
  145SAPE  H13Y15987   6.081   0.752  10.011  1.5232  2.9321  3.7758
  145SAPE  C31415988   6.162   0.558   9.962  0.8330 -0.1452 -0.5461
  145SAPE  H14X15989   6.171   0.458  10.009  0.7826 -0.3335 -0.9390
  145SAPE  H14Y15990   6.261   0.589   9.922  1.4226 -2.4001 -0.9228
  145SAPE  C31515991   6.075   0.540   9.835  0.6568 -0.3137 -0.4714
  145SAPE  H15X15992   6.069   0.641   9.789 -0.2891  0.8192  2.0420
  145SAPE  H15Y15993   5.970   0.513   9.858  0.7388  1.1821  1.8624
  145SAPE  C31615994   6.134   0.438   9.734 -0.3207  0.5707  0.1711
  145SAPE  H16X15995   6.174   0.355   9.795  2.2565  2.4503  1.1670
  145SAPE  H16Y15996   6.220   0.487   9.684  0.2819 -1.0806 -0.4381
  145SAPE  C31715997   6.050   0.392   9.613 -0.3198  0.2042  0.2146
  145SAPE  H17X15998   5.964   0.323   9.629  0.5669 -1.2345 -0.9759
  145SAPE  H17Y15999   6.118   0.337   9.545 -1.9570  0.1633 -1.4298
  145SAPE  C31816000   5.995   0.526   9.545  0.6811 -0.8458  0.0927
  145SAPE  H18X16001   6.079   0.597   9.530 -0.1197  0.3176  1.0443
  145SAPE  H18Y16002   5.911   0.570   9.603 -1.4455 -2.1205 -1.9500
  145SAPE  H18Z16003   5.937   0.501   9.454 -0.2806 -0.5218  0.6072
  146SAPE     N16004   4.058   6.316  10.739 -0.0582 -0.0168  0.0313
  146SAPE   HN116005   4.108   6.405  10.758 -2.0051  1.0992  0.0872
  146SAPE   HN216006   3.958   6.342  10.753 -0.6679 -1.1451 -2.1066
  146SAPE   HN316007   4.086   6.246  10.811  3.7037  0.4766 -0.8365
  146SAPE   C1216008   4.090   6.267  10.602 -0.1807 -0.1286 -0.1566
  146SAPE  H12A16009   4.080   6.363  10.547 -0.6404  0.8716  1.6662
  146SAPE  H12B16010   4.014   6.190  10.575  1.9590 -2.2305 -0.3856
  146SAPE   C1116011   4.234   6.218  10.594 -0.5975 -0.1333 -0.6113
  146SAPE  H11A16012   4.301   6.306  10.598 -0.0664 -0.5820  0.5635
  146SAPE  H11B16013   4.258   6.188  10.489 -1.4785  1.4226 -1.2692
  146SAPE     P16014   4.233   5.965  10.652  0.0165  0.3895 -0.1485
  146SAPE   O1316015   4.284   5.871  10.755 -0.3839  0.1467 -0.3897
  146SAPE   O1416016   4.089   5.952  10.628  0.0516 -0.3947  0.3256
  146SAPE   O1216017   4.270   6.115  10.688 -0.6169 -0.3797  0.0163
  146SAPE   O1116018   4.317   5.954  10.515  0.2360  0.2685  0.2204
  146SAPE    C116019   4.458   5.933  10.529  0.4531  0.0147  0.6397
  146SAPE    HA16020   4.502   5.997  10.609 -2.6121  0.5666  1.9429
  146SAPE    HB16021   4.472   5.827  10.558  1.4854  0.1927  0.8154
  146SAPE    C216022   4.544   5.953  10.399 -0.5077  0.0873 -0.3728
  146SAPE    HS16023   4.653   5.956  10.422 -0.6887 -1.2206  0.7053
  146SAPE   O2116024   4.503   6.066  10.331 -0.8815  0.3448 -0.5030
  146SAPE   C2116025   4.529   6.180  10.397  0.4120  0.1698 -0.0199
  146SAPE   O2216026   4.606   6.193  10.490 -0.4457 -0.3324 -0.0124
  146SAPE   C2216027   4.447   6.294  10.332  0.2890  0.6773 -0.0010
  146SAPE   H2R16028   4.345   6.259  10.307  0.3144  0.7887 -0.2732
  146SAPE   H2S16029   4.431   6.383  10.397  1.6578  1.4737 -0.7260
  146SAPE    C316030   4.534   5.831  10.308 -0.4093  0.3685  0.0262
  146SAPE    HX16031   4.430   5.793  10.296 -0.0058 -0.3191 -1.3671
  146SAPE    HY16032   4.583   5.746  10.360 -1.3503 -1.3591 -1.8715
  146SAPE   O3116033   4.590   5.861  10.177 -0.1805  0.1066 -0.1656
  146SAPE   C3116034   4.498   5.896  10.086 -0.4130  0.8610  0.3255
  146SAPE   O3216035   4.379   5.907  10.095  0.1213  0.0972 -0.5056
  146SAPE   C3216036   4.561   5.906   9.948 -0.6611 -0.1116  0.4180
  146SAPE   H2X16037   4.636   5.824   9.940 -0.8918 -0.5940  2.8863
  146SAPE   H2Y16038   4.617   6.001   9.948  0.6194 -0.8440 -1.0670
  146SAPE   C2316039   4.508   6.364  10.208 -0.1084 -0.5167 -0.5389
  146SAPE   H3R16040   4.610   6.389  10.244 -0.9882  0.5615  1.2929
  146SAPE   H3S16041   4.467   6.467  10.194 -0.8500 -0.3868  2.1827
  146SAPE   C2416042   4.522   6.284  10.079 -0.0495  0.1406 -0.6602
  146SAPE   H4R16043   4.590   6.203  10.111  2.0052  2.5033  1.1471
  146SAPE   H4S16044   4.577   6.343  10.003  2.4295 -1.0760  0.1397
  146SAPE   C2516045   4.392   6.241  10.021 -0.5205 -0.3493  0.2509
  146SAPE   H5R16046   4.345   6.150  10.062 -0.6413 -0.0361  0.8017
  146SAPE   C2616047   4.338   6.292   9.911 -0.1321 -0.2812 -0.1809
  146SAPE   H6R16048   4.251   6.243   9.864 -0.5974 -0.8938  1.2982
  146SAPE   C2716049   4.379   6.403   9.824 -0.1008  0.1191  0.3674
  146SAPE   H7R16050   4.476   6.379   9.776  0.1040 -0.9319  1.3045
  146SAPE   H7S16051   4.401   6.487   9.893  0.8915  0.5323 -0.4366
  146SAPE   C2816052   4.280   6.443   9.714 -0.4422  0.0809 -0.4417
  146SAPE   H8R16053   4.225   6.535   9.742 -0.9599 -0.7384  1.2935
  146SAPE   C2916054   4.261   6.405   9.587  0.3551 -0.1209 -0.2433
  146SAPE   H9R16055   4.188   6.453   9.520 -0.1865 -1.1558 -0.4027
  146SAPE  C21016056   4.333   6.293   9.506 -0.2001 -0.5918 -0.3929
  146SAPE  H10R16057   4.403   6.237   9.572 -2.5616 -0.6391  2.1578
  146SAPE  H10S16058   4.398   6.344   9.432  2.0365  1.0168  2.5941
  146SAPE  C21116059   4.227   6.199   9.443  0.0781  0.5091  0.1351
  146SAPE  H11R16060   4.164   6.151   9.519 -0.3265 -2.2971 -1.9178
  146SAPE  C21216061   4.221   6.161   9.311 -0.5549  0.5839 -0.5663
  146SAPE  H12R16062   4.135   6.097   9.286  0.4751 -1.4652  1.0112
  146SAPE  C21316063   4.301   6.211   9.203 -0.0957  0.2934  0.3455
  146SAPE  H13R16064   4.409   6.207   9.229 -0.9045  1.6486  4.2717
  146SAPE  H13S16065   4.298   6.321   9.185  2.4823 -0.0644 -2.6534
  146SAPE  C21416066   4.266   6.136   9.075  0.0767 -0.2970 -0.3634
  146SAPE  H14R16067   4.324   6.047   9.047  1.1336 -0.0981  1.1070
  146SAPE  C21516068   4.168   6.177   8.999  0.9089  0.7914  0.1692
  146SAPE  H15R16069   4.135   6.112   8.916 -0.6385 -0.0431  1.4093
  146SAPE  C21616070   4.070   6.292   9.023  0.2144 -0.0944 -0.1024
  146SAPE  H16R16071   4.090   6.342   9.120 -1.3156 -1.4165  0.9116
  146SAPE  H16S16072   3.964   6.263   9.033 -0.5547  3.0659  1.6159
  146SAPE  C21716073   4.073   6.394   8.906  0.3930  0.6335 -0.1324
  146SAPE  H17R16074   4.175   6.436   8.893  0.8586  0.4263  2.4911
  146SAPE  H17S16075   4.010   6.475   8.949 -1.7645 -1.2138  0.2706
  146SAPE  C21816076   4.007   6.357   8.777 -1.0269  0.1980  0.6769
  146SAPE  H18R16077   3.899   6.333   8.791 -1.4388  0.4510 -1.7066
  146SAPE  H18S16078   4.041   6.263   8.729 -1.3893  0.1878  0.4347
  146SAPE  C21916079   4.010   6.476   8.680  0.1359 -0.2402 -0.3939
  146SAPE  H19R16080   3.966   6.441   8.584  0.3173  0.6911 -0.8152
  146SAPE  H19S16081   4.115   6.506   8.659  0.0327 -1.0329 -2.1558
  146SAPE  C22016082   3.923   6.598   8.715  0.0337 -0.2040  0.5628
  146SAPE  H20R16083   3.819   6.564   8.734 -0.3126  0.6677  0.2516
  146SAPE  H20S16084   3.917   6.673   8.634 -1.3184 -2.3076 -1.3690
  146SAPE  H20T16085   3.969   6.641   8.806 -0.1272  1.1604  0.0121
  146SAPE   C3316086   4.471   5.932   9.829  0.4010  0.4974  0.1632
  146SAPE   H3X16087   4.413   6.026   9.837  1.7658  1.5653 -2.2156
  146SAPE   H3Y16088   4.393   5.853   9.818 -0.1588  1.2396 -1.3374
  146SAPE   C3416089   4.550   5.957   9.702 -0.6649  0.1466  0.3874
  146SAPE   H4X16090   4.622   6.038   9.726 -0.0119  0.3765 -2.2172
  146SAPE   H4Y16091   4.476   5.988   9.625 -2.3578 -0.3380  1.7614
  146SAPE   C3516092   4.632   5.830   9.665  1.0562 -0.3695  0.1027
  146SAPE   H5X16093   4.572   5.741   9.638 -1.3806  1.0711  0.6815
  146SAPE   H5Y16094   4.706   5.799   9.743  2.0107  1.6173  0.0112
  146SAPE   C3616095   4.708   5.867   9.537 -0.2485  0.1921  0.1242
  146SAPE   H6X16096   4.757   5.964   9.560 -1.2767  0.9810 -0.9194
  146SAPE   H6Y16097   4.636   5.882   9.453  0.9021 -1.9917 -1.3222
  146SAPE   C3716098   4.820   5.765   9.515 -0.3805 -0.0257  0.2321
  146SAPE   H7X16099   4.777   5.663   9.530 -1.0352  0.1746 -0.2736
  146SAPE   H7Y16100   4.907   5.784   9.582  0.3789 -0.4583 -0.6154
  146SAPE   C3816101   4.895   5.769   9.374  0.2667 -0.3301  0.4852
  146SAPE   H8X16102   4.839   5.706   9.303 -1.5532  1.1511  0.5784
  146SAPE   H8Y16103   4.989   5.713   9.394  0.9859  0.5222 -0.4511
  146SAPE   C3916104   4.914   5.903   9.308  0.3376 -0.7132  0.1717
  146SAPE   H9X16105   4.955   5.969   9.388  0.7724 -1.8391  0.8880
  146SAPE   H9Y16106   4.813   5.941   9.283 -0.2348 -2.2051  0.2012
  146SAPE  C31016107   5.012   5.904   9.187 -0.3596  0.1260  0.0643
  146SAPE  H10X16108   5.110   5.872   9.227 -0.5684 -0.8193 -0.1666
  146SAPE  H10Y16109   5.029   6.007   9.149 -2.3264 -1.0599 -4.3616
  146SAPE  C31116110   4.966   5.802   9.073  0.0399  0.1562  0.7758
  146SAPE  H11X16111   4.866   5.833   9.034 -0.0809  1.7451  2.2611
  146SAPE  H11Y16112   4.946   5.709   9.129  1.8585 -0.2294  0.7869
  146SAPE  C31216113   5.083   5.783   8.970 -0.1382  0.4522  0.0131
  146SAPE  H12X16114   5.047   5.698   8.910  2.5647  0.0430 -1.1140
  146SAPE  H12Y16115   5.182   5.762   9.015 -1.2667 -1.4147  1.6802
  146SAPE  C31316116   5.117   5.917   8.885  0.2762  0.5315 -0.2521
  146SAPE  H13X16117   5.153   5.995   8.956  0.3242  1.1789 -0.9856
  146SAPE  H13Y16118   5.017   5.951   8.850 -0.2067  1.4530  1.9315
  146SAPE  C31416119   5.224   5.881   8.782  0.4340  0.4899  0.2412
  146SAPE  H14X16120   5.173   5.843   8.692  0.4571  1.0728 -0.0231
  146SAPE  H14Y16121   5.283   5.803   8.834 -2.8875 -0.7174  2.4064
  146SAPE  C31516122   5.303   6.005   8.730 -0.3706 -0.0173  0.0824
  146SAPE  H15X16123   5.337   6.051   8.825 -1.6676 -0.1494  0.6265
  146SAPE  H15Y16124   5.229   6.070   8.679 -0.1485 -1.2407 -1.8172
  146SAPE  C31616125   5.420   5.965   8.637  0.5946  0.4705  0.3755
  146SAPE  H16X16126   5.462   5.871   8.678 -0.4313 -0.9298 -1.6600
  146SAPE  H16Y16127   5.508   6.032   8.646 -0.0988  1.4855 -0.2550
  146SAPE  C31716128   5.365   5.949   8.505  0.6169  0.0891  1.0754
  146SAPE  H17X16129   5.352   6.046   8.451 -1.9309 -0.9026 -0.1870
  146SAPE  H17Y16130   5.266   5.900   8.509 -0.0134  1.3084  0.5095
  146SAPE  C31816131   5.456   5.863   8.416 -0.1489 -0.7156  0.1667
  146SAPE  H18X16132   5.554   5.912   8.400 -0.6782  0.1198 -0.5495
  146SAPE  H18Y16133   5.406   5.842   8.319  1.3197 -1.1864 -0.5091
  146SAPE  H18Z16134   5.474   5.765   8.465  0.7037 -0.1499  0.9959
  147SAPE     N16135   1.753   4.539   6.271  0.8315 -0.4951  0.7109
  147SAPE   HN116136   1.705   4.474   6.205 -2.3696 -0.3783  2.7650
  147SAPE   HN216137   1.694   4.625   6.272  0.5622 -0.6158 -1.4278
  147SAPE   HN316138   1.842   4.566   6.225 -0.1859  2.9818  0.6167
  147SAPE   C1216139   1.758   4.487   6.408 -0.7105  0.1188  0.0671
  147SAPE  H12A16140   1.773   4.571   6.479  0.5788 -1.0581  1.1975
  147SAPE  H12B16141   1.856   4.435   6.415 -0.3477  1.0624  2.4819
  147SAPE   C1116142   1.647   4.391   6.439 -0.2850 -0.5040  0.6225
  147SAPE  H11A16143   1.658   4.338   6.536 -0.6365 -1.6467  0.0607
  147SAPE  H11B16144   1.648   4.317   6.356 -1.3858  1.5732 -1.2992
  147SAPE     P16145   1.388   4.426   6.385  0.2512  0.1403 -0.1196
  147SAPE   O1316146   1.287   4.537   6.395  0.4841 -0.3274  0.3386
  147SAPE   O1416147   1.401   4.363   6.248  0.2413 -0.0045  0.3037
  147SAPE   O1216148   1.526   4.465   6.441 -0.0939 -0.0014 -0.0228
  147SAPE   O1116149   1.339   4.310   6.486  0.3622 -0.6844  0.6244
  147SAPE    C116150   1.264   4.349   6.603  0.0408 -0.7398 -0.1271
  147SAPE    HA16151   1.205   4.439   6.576  1.1923  0.0610  0.0076
  147SAPE    HB16152   1.191   4.273   6.638 -0.3594 -0.8054 -1.0945
  147SAPE    C216153   1.359   4.377   6.719 -1.3911 -0.1774  0.0748
  147SAPE    HS16154   1.426   4.457   6.681 -0.0832 -1.4002 -0.2499
  147SAPE   O2116155   1.431   4.257   6.757 -0.1859 -0.1849  0.0951
  147SAPE   C2116156   1.556   4.272   6.789 -0.0205  0.5604  0.1848
  147SAPE   O2216157   1.622   4.372   6.788  0.2439  0.4112 -0.0781
  147SAPE   C2216158   1.611   4.134   6.846  0.3863 -0.3950  0.2878
  147SAPE   H2R16159   1.532   4.055   6.836 -1.4316  1.3062  0.8788
  147SAPE   H2S16160   1.704   4.099   6.797 -0.9622 -2.4927 -0.8759
  147SAPE    C316161   1.286   4.416   6.844 -0.2453 -0.5112 -0.0368
  147SAPE    HX16162   1.194   4.359   6.868  0.4211 -0.9137  1.6080
  147SAPE    HY16163   1.232   4.511   6.821 -1.7846 -2.1504 -3.5397
  147SAPE   O3116164   1.366   4.432   6.961 -0.7138 -0.2006  0.0507
  147SAPE   C3116165   1.445   4.544   6.983 -0.6646 -0.2454 -0.1000
  147SAPE   O3216166   1.432   4.650   6.919 -0.0897  0.3259 -0.1409
  147SAPE   C3216167   1.546   4.513   7.085  0.1054 -0.0688  0.0628
  147SAPE   H2X16168   1.630   4.464   7.033 -0.8346 -0.4676 -1.1006
  147SAPE   H2Y16169   1.490   4.443   7.151  0.5570 -0.2352  0.2722
  147SAPE   C2316170   1.639   4.137   6.991  0.5164  0.1146  0.1150
  147SAPE   H3R16171   1.718   4.211   7.018 -0.5626  1.0355  0.7931
  147SAPE   H3S16172   1.686   4.039   7.014 -1.6192 -0.7939  0.6242
  147SAPE   C2416173   1.518   4.135   7.092 -1.8142 -0.0051 -0.5401
  147SAPE   H4R16174   1.454   4.048   7.066 -3.9332  0.7076  2.0004
  147SAPE   H4S16175   1.452   4.221   7.066 -1.0788  0.1139 -2.0408
  147SAPE   C2516176   1.555   4.156   7.238  0.3448  0.5562 -0.5107
  147SAPE   H5R16177   1.621   4.244   7.250 -0.8499  1.0017  3.6430
  147SAPE   C2616178   1.537   4.066   7.338  0.1068  0.5224 -0.0679
  147SAPE   H6R16179   1.568   4.102   7.437  0.2075 -2.3084  0.9941
  147SAPE   C2716180   1.460   3.938   7.336  0.3318  0.4633  0.6198
  147SAPE   H7R16181   1.455   3.893   7.234 -1.7629  2.0172 -0.0086
  147SAPE   H7S16182   1.351   3.940   7.357  0.5255  1.7519  1.5449
  147SAPE   C2816183   1.527   3.844   7.432 -0.2264  0.2996  0.2148
  147SAPE   H8R16184   1.597   3.775   7.384 -1.2165 -1.5747  1.3835
  147SAPE   C2916185   1.507   3.838   7.569  0.8294  0.5898 -0.9842
  147SAPE   H9R16186   1.570   3.772   7.630  2.5458  1.7024 -1.5106
  147SAPE  C21016187   1.418   3.930   7.646  0.1997 -0.0695  1.1016
  147SAPE  H10R16188   1.320   3.880   7.660 -0.5545  0.2397 -2.4504
  147SAPE  H10S16189   1.395   4.021   7.586  1.1148 -2.0696 -2.4251
  147SAPE  C21116190   1.478   3.979   7.777 -0.4016  0.1342  0.0961
  147SAPE  H11R16191   1.584   3.961   7.802 -0.7742  1.0162  2.3565
  147SAPE  C21216192   1.409   4.044   7.865  0.4663 -0.5702  0.3263
  147SAPE  H12R16193   1.463   4.070   7.958 -0.0143 -1.6903  0.9333
  147SAPE  C21316194   1.261   4.080   7.868 -0.2013 -0.1602  0.5760
  147SAPE  H13R16195   1.213   3.995   7.921  0.6484 -0.2193  1.2578
  147SAPE  H13S16196   1.218   4.081   7.765  0.3691  3.1063  0.2950
  147SAPE  C21416197   1.233   4.219   7.924  0.1225  0.8878 -0.0167
  147SAPE  H14R16198   1.238   4.298   7.847 -0.0447  1.6152  0.7033
  147SAPE  C21516199   1.191   4.248   8.052  0.1867  0.6923  0.2410
  147SAPE  H15R16200   1.171   4.353   8.080  3.2145  1.1647  0.8192
  147SAPE  C21616201   1.170   4.141   8.157 -0.5697 -0.0912 -0.8574
  147SAPE  H16R16202   1.257   4.132   8.226 -0.4171  3.2226 -0.5476
  147SAPE  H16S16203   1.172   4.039   8.113  2.1627 -0.8982  0.9846
  147SAPE  C21716204   1.040   4.159   8.241 -0.5055  0.0821 -0.6132
  147SAPE  H17R16205   0.947   4.143   8.182 -0.3611 -0.3243 -0.7295
  147SAPE  H17S16206   1.041   4.263   8.281  1.3817  0.4601 -1.6165
  147SAPE  C21816207   1.027   4.060   8.357  0.8981  0.7750  0.4640
  147SAPE  H18R16208   1.018   3.960   8.309  0.5051  1.3203 -0.6268
  147SAPE  H18S16209   0.924   4.073   8.396  0.2801 -0.1013 -0.8297
  147SAPE  C21916210   1.134   4.048   8.465  0.9572  0.1986  0.2822
  147SAPE  H19R16211   1.149   4.152   8.500  1.2901  0.2303  0.0508
  147SAPE  H19S16212   1.229   4.015   8.418 -0.1829 -1.2915 -1.0134
  147SAPE  C22016213   1.082   3.957   8.585  0.7340  0.4827  0.8444
  147SAPE  H20R16214   1.169   3.933   8.649  1.9073  2.5038  0.0733
  147SAPE  H20S16215   1.041   3.870   8.529  1.8580  0.6031 -0.1997
  147SAPE  H20T16216   1.002   4.010   8.640  0.6472 -0.0992  1.2829
  147SAPE   C3316217   1.583   4.638   7.169 -0.3864  0.4185 -0.0280
  147SAPE   H3X16218   1.496   4.688   7.216  0.3574  1.2338  0.4957
  147SAPE   H3Y16219   1.634   4.715   7.108  0.4800 -0.5320 -0.5263
  147SAPE   C3416220   1.674   4.591   7.282 -0.7694  0.2254 -0.3620
  147SAPE   H4X16221   1.776   4.551   7.261 -0.7164 -0.3269  0.9475
  147SAPE   H4Y16222   1.623   4.513   7.342 -0.0374  0.6116  0.7754
  147SAPE   C3516223   1.692   4.703   7.381 -0.5198 -0.2194 -0.3008
  147SAPE   H5X16224   1.590   4.719   7.421 -1.0088  1.3555 -2.0827
  147SAPE   H5Y16225   1.726   4.795   7.328 -1.2732  1.1658  1.5682
  147SAPE   C3616226   1.784   4.670   7.504 -0.0620  0.3610  0.1119
  147SAPE   H6X16227   1.882   4.632   7.468 -0.1211  1.4310 -1.2176
  147SAPE   H6Y16228   1.737   4.593   7.569 -0.3390  0.5507  0.1367
  147SAPE   C3716229   1.810   4.795   7.593  1.0917 -0.2084 -0.1605
  147SAPE   H7X16230   1.710   4.815   7.636  1.2420  1.2362 -0.4493
  147SAPE   H7Y16231   1.838   4.875   7.521  1.7374  0.4348  0.7987
  147SAPE   C3816232   1.917   4.779   7.711 -0.2588 -0.7595  0.0179
  147SAPE   H8X16233   1.927   4.883   7.748 -0.2977 -1.0302  0.7815
  147SAPE   H8Y16234   2.015   4.742   7.676 -1.2097 -2.5204 -0.8569
  147SAPE   C3916235   1.875   4.685   7.825  1.0545 -0.5184 -0.1138
  147SAPE   H9X16236   1.880   4.587   7.773  1.4870 -0.6005  0.0846
  147SAPE   H9Y16237   1.772   4.698   7.865  1.9105 -0.0093  1.9623
  147SAPE  C31016238   1.976   4.669   7.937 -0.5678 -0.6488 -0.7481
  147SAPE  H10X16239   2.081   4.688   7.905  0.3087 -0.3274  2.1745
  147SAPE  H10Y16240   1.963   4.574   7.993  0.6073 -0.8276 -0.7694
  147SAPE  C31116241   1.970   4.780   8.046 -0.3797 -0.2289  0.1310
  147SAPE  H11X16242   1.874   4.779   8.101 -0.6312 -1.9889 -0.3236
  147SAPE  H11Y16243   1.995   4.880   8.003 -3.0205 -0.0353 -1.0428
  147SAPE  C31216244   2.082   4.754   8.143  0.2532 -0.3383 -0.0455
  147SAPE  H12X16245   2.082   4.845   8.208 -2.4747 -1.6886  1.9943
  147SAPE  H12Y16246   2.182   4.760   8.095  1.3289 -1.7009  1.9339
  147SAPE  C31316247   2.079   4.634   8.239 -0.0502  0.4998  0.2468
  147SAPE  H13X16248   2.159   4.657   8.312 -0.9231  2.7195  0.5596
  147SAPE  H13Y16249   2.109   4.561   8.161  0.4449 -1.5354  2.3050
  147SAPE  C31416250   1.947   4.603   8.315  0.3781 -0.4640 -0.0701
  147SAPE  H14X16251   1.958   4.513   8.379  1.6816  0.1400  0.5675
  147SAPE  H14Y16252   1.867   4.580   8.242 -1.7673 -1.4404  2.4945
  147SAPE  C31516253   1.912   4.718   8.411  0.1757  0.1968 -0.8502
  147SAPE  H15X16254   1.887   4.809   8.351  0.8671  0.8120 -0.2092
  147SAPE  H15Y16255   1.996   4.733   8.482 -2.2137  0.9625  1.9044
  147SAPE  C31616256   1.785   4.690   8.496  0.3936 -0.1488 -0.0118
  147SAPE  H16X16257   1.802   4.594   8.550 -3.2163 -0.5362  0.5321
  147SAPE  H16Y16258   1.693   4.685   8.435 -1.2938 -0.8064  2.5144
  147SAPE  C31716259   1.766   4.790   8.608  0.0319 -0.5183  0.6403
  147SAPE  H17X16260   1.749   4.885   8.554 -0.8019 -1.0654 -0.0524
  147SAPE  H17Y16261   1.859   4.805   8.667  1.8019 -3.8084 -1.1479
  147SAPE  C31816262   1.653   4.756   8.706  0.3309  0.0294 -0.3791
  147SAPE  H18X16263   1.554   4.775   8.657 -0.1991  0.9489  1.0147
  147SAPE  H18Y16264   1.654   4.812   8.802 -0.8558 -0.6718  0.0510
  147SAPE  H18Z16265   1.654   4.649   8.733 -1.3597 -0.1756 -1.0430
  148SAPE     N16266   0.001   1.760   6.545 -0.1243  0.8666 -0.0722
  148SAPE   HN116267  -0.032   1.695   6.470  1.0442 -0.6275  0.6853
  148SAPE   HN216268   0.061   1.836   6.509 -0.3065  0.0668 -2.1710
  148SAPE   HN316269   0.070   1.700   6.593  0.3031  2.3321  1.1547
  148SAPE   C1216270  -0.089   1.823   6.660 -0.3510 -0.2997 -0.4746
  148SAPE  H12A16271  -0.123   1.730   6.712 -0.5679 -0.3348 -0.6784
  148SAPE  H12B16272  -0.175   1.887   6.629 -0.2435 -0.1456 -0.4486
  148SAPE   C1116273  -0.003   1.888   6.762  0.2616 -0.6502  0.3424
  148SAPE  H11A16274   0.067   1.819   6.815  2.6163  0.9119 -0.6237
  148SAPE  H11B16275  -0.061   1.935   6.844  1.6107  0.4019  0.7328
  148SAPE     P16276   0.039   2.136   6.655  0.0912  0.3993 -0.1444
  148SAPE   O1316277   0.162   2.204   6.598 -0.3175 -0.5041  0.0394
  148SAPE   O1416278  -0.082   2.132   6.564 -0.4236  0.0739 -0.2376
  148SAPE   O1216279   0.071   1.984   6.693  0.4766  0.2696  0.2302
  148SAPE   O1116280   0.002   2.196   6.791  0.1055  0.0782 -0.2616
  148SAPE    C116281   0.089   2.280   6.875  0.5267 -0.0099 -0.4289
  148SAPE    HA16282   0.172   2.323   6.814 -0.1181  1.3713 -0.3385
  148SAPE    HB16283   0.033   2.366   6.918  0.2549  0.4404 -1.6818
  148SAPE    C216284   0.149   2.197   7.000  0.2824  0.9480  0.2403
  148SAPE    HS16285   0.220   2.266   7.051  1.2886  0.4862 -0.5061
  148SAPE   O2116286   0.223   2.081   6.963  0.4191 -0.0524 -0.0658
  148SAPE   C2116287   0.330   2.101   6.884  0.2504  0.3936 -0.3670
  148SAPE   O2216288   0.378   2.203   6.849 -0.2808  0.1834 -0.1486
  148SAPE   C2216289   0.398   1.968   6.860 -0.0002  1.1656 -0.5525
  148SAPE   H2R16290   0.413   1.916   6.957 -3.0869 -1.2123 -1.2282
  148SAPE   H2S16291   0.321   1.903   6.811  0.5339 -0.6984  1.0153
  148SAPE    C316292   0.039   2.160   7.101  0.7255 -0.3702 -0.4392
  148SAPE    HX16293   0.085   2.109   7.188  1.5384 -0.7921 -1.0997
  148SAPE    HY16294  -0.031   2.085   7.059 -0.4011 -0.3453  1.3546
  148SAPE   O3116295  -0.021   2.288   7.146  0.1063  0.2046 -0.0314
  148SAPE   C3116296  -0.150   2.303   7.176  0.8714  0.8682 -0.3813
  148SAPE   O3216297  -0.226   2.210   7.198  0.0207  0.7016  0.5171
  148SAPE   C3216298  -0.198   2.443   7.193  0.1770 -0.5451  0.7157
  148SAPE   H2X16299  -0.298   2.458   7.147 -0.1066  0.2733  1.5987
  148SAPE   H2Y16300  -0.130   2.504   7.130  0.9310 -0.6831  1.3919
  148SAPE   C2316301   0.532   1.986   6.779 -0.1474  0.2179 -0.4887
  148SAPE   H3R16302   0.504   2.041   6.687  0.0204  0.2724 -0.5078
  148SAPE   H3S16303   0.558   1.887   6.735  0.4287 -0.1686  0.6882
  148SAPE   C2416304   0.653   2.026   6.855  0.4111  0.4248  0.0925
  148SAPE   H4R16305   0.625   2.118   6.910  0.1679 -0.1488  0.9549
  148SAPE   H4S16306   0.735   2.052   6.786  0.7632 -0.6862  0.0852
  148SAPE   C2516307   0.694   1.927   6.958  0.1082 -0.0496  0.1597
  148SAPE   H5R16308   0.706   1.830   6.908 -0.7934 -1.6930  2.9673
  148SAPE   C2616309   0.704   1.937   7.092 -0.2639  0.7288 -0.2728
  148SAPE   H6R16310   0.734   1.845   7.144  0.2711 -0.6460 -2.9736
  148SAPE   C2716311   0.683   2.064   7.170  0.6495 -0.5682  0.3777
  148SAPE   H7R16312   0.748   2.148   7.137 -2.1445  0.9756 -1.3664
  148SAPE   H7S16313   0.710   2.039   7.275  0.0953  4.8756  1.9930
  148SAPE   C2816314   0.536   2.106   7.181 -0.6157  0.3537  0.2969
  148SAPE   H8R16315   0.458   2.031   7.163 -0.8709  1.4074 -3.4099
  148SAPE   C2916316   0.496   2.228   7.207  0.2879 -0.4906 -0.0619
  148SAPE   H9R16317   0.387   2.244   7.201 -0.0423 -1.5755  2.2178
  148SAPE  C21016318   0.581   2.344   7.241 -0.5166  0.1191  0.2793
  148SAPE  H10R16319   0.520   2.437   7.235 -0.4302  0.0234 -2.6588
  148SAPE  H10S16320   0.656   2.364   7.162 -2.5274 -0.2783 -1.7678
  148SAPE  C21116321   0.657   2.343   7.375  0.1738  0.0797  0.2197
  148SAPE  H11R16322   0.742   2.275   7.367 -0.1483 -0.1912 -1.1066
  148SAPE  C21216323   0.619   2.392   7.492 -0.3323  0.1178  0.9789
  148SAPE  H12R16324   0.691   2.400   7.576 -2.0548 -3.0113  2.8397
  148SAPE  C21316325   0.494   2.465   7.520 -0.4885 -0.2316  0.0944
  148SAPE  H13R16326   0.410   2.420   7.463 -0.8122 -1.6228  1.6474
  148SAPE  H13S16327   0.509   2.559   7.463 -1.8661  0.0598  0.1844
  148SAPE  C21416328   0.452   2.486   7.663  0.0596 -0.3360 -0.3452
  148SAPE  H14R16329   0.472   2.588   7.700 -1.4015  0.5161 -1.8345
  148SAPE  C21516330   0.395   2.396   7.747 -0.1747  0.1690  0.9693
  148SAPE  H15R16331   0.359   2.429   7.845  0.4844  2.7950  0.3750
  148SAPE  C21616332   0.372   2.263   7.695  0.4785 -0.4931  0.2227
  148SAPE  H16R16333   0.352   2.199   7.784 -1.1324  1.0078  0.9761
  148SAPE  H16S16334   0.455   2.217   7.637 -0.1668 -1.2897 -0.0902
  148SAPE  C21716335   0.247   2.243   7.611 -0.2653 -0.6813 -0.0451
  148SAPE  H17R16336   0.248   2.141   7.569  3.2836 -0.3590 -0.8967
  148SAPE  H17S16337   0.248   2.321   7.531 -0.4260  0.8787  1.4285
  148SAPE  C21816338   0.113   2.272   7.687 -0.1028  0.2955 -0.3219
  148SAPE  H18R16339   0.120   2.366   7.745  0.9155  0.0108  0.0234
  148SAPE  H18S16340   0.099   2.179   7.745 -1.7297  0.6317 -0.1358
  148SAPE  C21916341  -0.012   2.283   7.592 -0.5806 -0.5899 -0.8855
  148SAPE  H19R16342   0.012   2.372   7.531  0.8797  1.4875  2.5504
  148SAPE  H19S16343  -0.107   2.301   7.645 -1.3368  0.5716 -2.5949
  148SAPE  C22016344  -0.029   2.153   7.504  0.5585 -0.3519 -0.5019
  148SAPE  H20R16345  -0.114   2.175   7.436 -0.4774  0.1008  0.9297
  148SAPE  H20S16346  -0.067   2.075   7.574 -0.7546  0.2093 -0.5807
  148SAPE  H20T16347   0.062   2.119   7.449  0.9147  0.2011 -0.2553
  148SAPE   C3316348  -0.186   2.484   7.341 -0.1093 -0.1364  0.7447
  148SAPE   H3X16349  -0.174   2.594   7.348 -1.1875  0.1814 -2.1984
  148SAPE   H3Y16350  -0.089   2.450   7.384  0.2480  0.3221  0.2972
  148SAPE   C3416351  -0.306   2.440   7.420 -0.6038  0.0162  0.4402
  148SAPE   H4X16352  -0.304   2.329   7.427  1.4700 -0.1364 -2.0400
  148SAPE   H4Y16353  -0.396   2.470   7.362 -1.3208 -1.9604  0.4889
  148SAPE   C3516354  -0.308   2.497   7.570 -0.0529  0.2878  0.7451
  148SAPE   H5X16355  -0.324   2.607   7.565  1.2139  0.4961  1.0202
  148SAPE   H5Y16356  -0.204   2.481   7.605 -0.9692 -2.8632  2.1302
  148SAPE   C3616357  -0.418   2.436   7.661 -0.3565  0.2826 -0.0762
  148SAPE   H6X16358  -0.391   2.330   7.681  1.0341  0.4211 -1.1581
  148SAPE   H6Y16359  -0.518   2.427   7.613 -0.2803  0.5407 -0.2833
  148SAPE   C3716360  -0.429   2.498   7.800  0.0406 -0.5098  0.6747
  148SAPE   H7X16361  -0.524   2.460   7.843 -1.1940  0.2079 -1.3403
  148SAPE   H7Y16362  -0.424   2.608   7.785  0.3441 -0.6096  0.0437
  148SAPE   C3816363  -0.305   2.468   7.889  0.8805  0.1821  0.8002
  148SAPE   H8X16364  -0.210   2.504   7.843  0.1906  1.3924  0.2819
  148SAPE   H8Y16365  -0.305   2.357   7.888 -2.9214  0.1484 -0.6978
  148SAPE   C3916366  -0.319   2.515   8.029 -0.4522 -0.2855  0.0159
  148SAPE   H9X16367  -0.409   2.464   8.068  0.8955 -1.3325  1.7906
  148SAPE   H9Y16368  -0.349   2.622   8.023 -3.2607 -1.0979 -0.8914
  148SAPE  C31016369  -0.187   2.492   8.109 -0.4067  0.1170  0.0617
  148SAPE  H10X16370  -0.104   2.555   8.073 -0.7934  0.8095  0.3840
  148SAPE  H10Y16371  -0.160   2.385   8.095  0.5423  0.2350  0.9364
  148SAPE  C31116372  -0.210   2.504   8.259 -0.8271  1.0259 -0.7081
  148SAPE  H11X16373  -0.279   2.418   8.270  1.0751 -1.0867 -4.2123
  148SAPE  H11Y16374  -0.253   2.601   8.289 -1.4092  0.4717  0.2685
  148SAPE  C31216375  -0.089   2.495   8.344  0.8571  0.2613 -0.2102
  148SAPE  H12X16376  -0.008   2.557   8.302  0.0247  2.4885  1.3620
  148SAPE  H12Y16377  -0.040   2.397   8.323 -1.2102 -0.6743 -0.7521
  148SAPE  C31316378  -0.119   2.519   8.497  1.1779  0.0462 -0.3985
  148SAPE  H13X16379  -0.200   2.452   8.531  1.4324 -0.7838 -1.4006
  148SAPE  H13Y16380  -0.159   2.622   8.513  0.2224  0.0226 -2.5143
  148SAPE  C31416381   0.006   2.506   8.588 -0.3436  0.4189  0.3676
  148SAPE  H14X16382  -0.041   2.543   8.682  0.7753 -1.5093  1.7219
  148SAPE  H14Y16383   0.090   2.575   8.564  1.7324 -1.4581  2.0365
  148SAPE  C31516384   0.075   2.367   8.598 -0.5563  0.1719 -0.2687
  148SAPE  H15X16385   0.145   2.371   8.684  0.0633  3.8858 -0.8673
  148SAPE  H15Y16386   0.147   2.355   8.514 -1.4077  2.1865 -1.3027
  148SAPE  C31616387  -0.027   2.250   8.614 -0.2639 -0.1410  0.5331
  148SAPE  H16X16388  -0.079   2.247   8.516  1.1862  1.0449 -0.3045
  148SAPE  H16Y16389  -0.098   2.270   8.696 -0.2119 -1.0288  0.7900
  148SAPE  C31716390   0.042   2.124   8.648  0.4126 -0.0347 -0.1294
  148SAPE  H17X16391   0.104   2.139   8.739  1.1770  2.3518 -0.9979
  148SAPE  H17Y16392   0.101   2.101   8.557  2.9430 -0.4718  1.5843
  148SAPE  C31816393  -0.052   1.995   8.668 -0.5083 -0.5563  0.1127
  148SAPE  H18X16394  -0.125   2.015   8.749  1.2403 -0.8207  1.7824
  148SAPE  H18Y16395  -0.001   1.901   8.699 -1.4215 -0.4929  1.8706
  148SAPE  H18Z16396  -0.113   1.977   8.577  0.0916  5.0609 -1.6045
  149SAPE     N16397   0.594   2.868   6.554 -0.2695  0.0029  0.9514
  149SAPE   HN116398   0.670   2.912   6.609 -1.1251  0.1833  2.0229
  149SAPE   HN216399   0.637   2.813   6.477 -0.7068 -0.0605  0.7518
  149SAPE   HN316400   0.528   2.941   6.519  0.5083  1.0910  1.7205
  149SAPE   C1216401   0.526   2.785   6.651 -0.0756 -0.2695  0.1145
  149SAPE  H12A16402   0.475   2.848   6.727  0.5111 -1.3869  1.4536
  149SAPE  H12B16403   0.587   2.713   6.708  0.6236 -0.4404 -0.8280
  149SAPE   C1116404   0.418   2.700   6.580 -0.5929  0.3447 -0.6625
  149SAPE  H11A16405   0.376   2.647   6.669  0.4295 -0.1159 -0.4488
  149SAPE  H11B16406   0.473   2.626   6.517  0.7123 -1.5038  2.5083
  149SAPE     P16407   0.222   2.683   6.431  0.0066  0.1700  0.3716
  149SAPE   O1316408   0.118   2.758   6.356 -0.0498  0.3489 -0.2623
  149SAPE   O1416409   0.309   2.584   6.355  0.5587  0.3583 -0.0542
  149SAPE   O1216410   0.314   2.780   6.514  0.0419  0.2271 -0.0867
  149SAPE   O1116411   0.167   2.603   6.548  0.3651  0.0615  0.3036
  149SAPE    C116412   0.032   2.549   6.541  0.1942  0.1377 -0.8091
  149SAPE    HA16413  -0.018   2.562   6.443 -0.2172 -1.7494 -0.8641
  149SAPE    HB16414   0.046   2.441   6.560  0.4539  0.3104 -0.0010
  149SAPE    C216415  -0.059   2.607   6.654 -0.7932 -0.6312  0.0759
  149SAPE    HS16416  -0.088   2.712   6.631  1.3416  0.1531  0.8306
  149SAPE   O2116417   0.012   2.602   6.782 -0.4561  0.5110 -0.4248
  149SAPE   C2116418   0.092   2.701   6.806  0.4234  0.8026 -0.4438
  149SAPE   O2216419   0.097   2.807   6.745 -0.3832 -0.6589  0.1365
  149SAPE   C2216420   0.189   2.665   6.917 -0.1005  0.2465  0.4765
  149SAPE   H2R16421   0.216   2.558   6.905 -0.7380 -0.0999  1.9505
  149SAPE   H2S16422   0.283   2.724   6.920 -0.3963  0.7502  0.0399
  149SAPE    C316423  -0.188   2.526   6.654  0.4538 -0.2425  0.3860
  149SAPE    HX16424  -0.152   2.440   6.715  2.6386  0.2391 -0.2002
  149SAPE    HY16425  -0.204   2.490   6.550  0.0962 -1.1389  0.7369
  149SAPE   O3116426  -0.306   2.598   6.689  0.0072  0.3965 -1.0142
  149SAPE   C3116427  -0.334   2.590   6.819 -0.1256 -0.4145 -0.9831
  149SAPE   O3216428  -0.268   2.532   6.906  0.3029 -0.2490 -0.2520
  149SAPE   C3216429  -0.448   2.684   6.846 -0.1265  0.2465  0.1042
  149SAPE   H2X16430  -0.534   2.659   6.781 -0.8073 -0.7852  1.3648
  149SAPE   H2Y16431  -0.410   2.787   6.833  2.7892 -0.6755  0.7878
  149SAPE   C2316432   0.130   2.678   7.060  0.6729 -0.2116 -0.1788
  149SAPE   H3R16433   0.024   2.644   7.059  0.8008 -0.5968 -0.6232
  149SAPE   H3S16434   0.127   2.787   7.083  0.3626  0.2430 -2.2187
  149SAPE   C2416435   0.204   2.588   7.162  0.7725  0.2147  0.4819
  149SAPE   H4R16436   0.249   2.497   7.116 -1.6229 -0.9269  0.2888
  149SAPE   H4S16437   0.148   2.570   7.257 -0.5565  1.1385 -0.1076
  149SAPE   C2516438   0.322   2.651   7.211  0.2367 -0.7627 -0.5316
  149SAPE   H5R16439   0.414   2.631   7.153  0.5148  2.5129 -1.3603
  149SAPE   C2616440   0.336   2.752   7.300  0.4058 -0.0072 -0.5734
  149SAPE   H6R16441   0.438   2.789   7.315  1.2132 -1.9301 -1.2427
  149SAPE   C2716442   0.226   2.828   7.364  0.2942 -0.7624 -0.2984
  149SAPE   H7R16443   0.135   2.767   7.379 -0.3810  0.2029 -0.4184
  149SAPE   H7S16444   0.179   2.898   7.291 -3.2398 -1.9209  0.7557
  149SAPE   C2816445   0.269   2.911   7.482 -0.1945  0.2709  0.4005
  149SAPE   H8R16446   0.310   3.010   7.459  1.0217 -0.5833 -1.2468
  149SAPE   C2916447   0.275   2.875   7.619  0.2098 -0.7182 -0.3771
  149SAPE   H9R16448   0.277   2.951   7.698  0.0841 -1.4619  0.3448
  149SAPE  C21016449   0.231   2.748   7.680  0.5283  0.4741  0.3399
  149SAPE  H10R16450   0.284   2.739   7.776 -0.6443 -0.3653  0.9216
  149SAPE  H10S16451   0.266   2.663   7.619 -0.3639 -0.2555  0.8295
  149SAPE  C21116452   0.081   2.731   7.700 -0.1991 -0.1516 -0.0951
  149SAPE  H11R16453   0.035   2.695   7.606 -1.9821 -0.6112  0.9297
  149SAPE  C21216454  -0.004   2.743   7.805 -0.7473 -0.0677  0.1352
  149SAPE  H12R16455  -0.110   2.738   7.778 -0.3333 -3.4504 -1.0501
  149SAPE  C21316456   0.028   2.789   7.947  0.1351  0.1628  0.6937
  149SAPE  H13R16457   0.111   2.862   7.941 -1.0055  1.4678  0.6477
  149SAPE  H13S16458   0.059   2.692   7.992 -1.3518 -0.1566  1.0465
  149SAPE  C21416459  -0.098   2.843   8.017 -0.7722 -0.2703 -0.0043
  149SAPE  H14R16460  -0.193   2.806   7.978 -0.9505 -2.0106  2.0215
  149SAPE  C21516461  -0.100   2.918   8.126 -0.6017 -0.0336  0.2544
  149SAPE  H15R16462  -0.199   2.938   8.170  0.2162  2.4459  1.0699
  149SAPE  C21616463   0.019   2.962   8.206 -0.4513 -0.3469  0.5304
  149SAPE  H16R16464   0.018   3.071   8.224 -0.0707 -0.5698  1.9072
  149SAPE  H16S16465   0.119   2.934   8.165  0.3581  2.2822  0.6547
  149SAPE  C21716466   0.023   2.900   8.345 -0.0088 -0.1395  0.9700
  149SAPE  H17R16467   0.033   2.790   8.333 -0.2961 -0.1109  0.4774
  149SAPE  H17S16468  -0.071   2.924   8.400 -1.2289 -1.7401 -0.3697
  149SAPE  C21816469   0.137   2.949   8.431  0.0002 -0.6041  0.3859
  149SAPE  H18R16470   0.224   2.940   8.363  0.2836  2.6734  0.2449
  149SAPE  H18S16471   0.153   2.879   8.516  0.0157 -1.7257 -0.5263
  149SAPE  C21916472   0.128   3.086   8.490  0.3098  0.9861 -0.3432
  149SAPE  H19R16473   0.070   3.086   8.585  0.2091  0.6203 -0.4019
  149SAPE  H19S16474   0.056   3.143   8.428  1.3708 -0.1616 -2.7021
  149SAPE  C22016475   0.257   3.170   8.508 -0.3023  0.2140 -0.1954
  149SAPE  H20R16476   0.282   3.174   8.616 -0.3375 -0.0860 -0.1740
  149SAPE  H20S16477   0.240   3.267   8.457 -3.6963 -0.4045 -0.3699
  149SAPE  H20T16478   0.342   3.122   8.455 -0.0511  0.4793 -0.0308
  149SAPE   C3316479  -0.499   2.670   6.999  0.0451  0.4324 -0.0049
  149SAPE   H3X16480  -0.412   2.679   7.067 -0.2443 -3.1087  0.9024
  149SAPE   H3Y16481  -0.532   2.565   7.012  1.7385 -0.5940 -3.2899
  149SAPE   C3416482  -0.621   2.769   7.024  0.3657  0.6517 -1.5219
  149SAPE   H4X16483  -0.705   2.748   6.954 -0.0650 -0.2255 -0.7601
  149SAPE   H4Y16484  -0.577   2.868   7.001  1.0526  0.1223 -2.5107
  149SAPE   C3516485  -0.680   2.763   7.165 -0.3708 -0.1256  0.0119
  149SAPE   H5X16486  -0.723   2.665   7.194 -0.4689  0.3931  1.6905
  149SAPE   H5Y16487  -0.770   2.829   7.173 -1.2669 -1.4669  1.1935
  149SAPE   C3616488  -0.578   2.809   7.279 -0.4533  0.5505  0.1748
  149SAPE   H6X16489  -0.526   2.901   7.245  0.2270  0.3297  0.6049
  149SAPE   H6Y16490  -0.511   2.720   7.285 -2.9705 -1.4156 -0.2344
  149SAPE   C3716491  -0.643   2.819   7.420  0.1403  0.0205  0.1723
  149SAPE   H7X16492  -0.679   2.719   7.453 -0.9677  0.1456 -0.5858
  149SAPE   H7Y16493  -0.731   2.885   7.403 -0.3321 -0.8404 -0.8267
  149SAPE   C3816494  -0.542   2.879   7.523 -0.2161  0.2150  0.0453
  149SAPE   H8X16495  -0.516   2.982   7.491 -0.7868  0.5269  0.5704
  149SAPE   H8Y16496  -0.450   2.818   7.514 -0.7987 -0.6489 -0.0800
  149SAPE   C3916497  -0.602   2.895   7.665 -0.4348  0.0276  0.4712
  149SAPE   H9X16498  -0.611   2.795   7.714 -2.6564  0.3141  0.7021
  149SAPE   H9Y16499  -0.699   2.947   7.665 -0.1357  0.6502  2.3452
  149SAPE  C31016500  -0.514   2.975   7.760 -0.1858  0.3021  0.1394
  149SAPE  H10X16501  -0.514   3.079   7.722  1.5156  1.6312  3.5773
  149SAPE  H10Y16502  -0.410   2.935   7.756 -0.6563 -0.8124 -1.9339
  149SAPE  C31116503  -0.572   2.959   7.899  0.3841  0.1621  0.8763
  149SAPE  H11X16504  -0.583   2.857   7.939  2.9013  0.0484  1.3019
  149SAPE  H11Y16505  -0.675   3.003   7.896 -0.5716 -2.1137 -1.1638
  149SAPE  C31216506  -0.497   3.047   7.995 -0.9935  0.4373 -0.8435
  149SAPE  H12X16507  -0.493   3.150   7.955 -2.8559 -0.2977 -3.0368
  149SAPE  H12Y16508  -0.394   3.006   8.007 -1.4738  0.1268  2.5959
  149SAPE  C31316509  -0.575   3.065   8.130  0.2081 -0.0378 -0.5673
  149SAPE  H13X16510  -0.572   2.969   8.187  2.5386  0.9045  0.9933
  149SAPE  H13Y16511  -0.685   3.078   8.125  0.4795  1.5975 -2.7934
  149SAPE  C31416512  -0.523   3.172   8.224 -0.1204 -0.3228 -0.1892
  149SAPE  H14X16513  -0.587   3.172   8.314 -1.7756 -1.1562 -1.3333
  149SAPE  H14Y16514  -0.544   3.272   8.180  0.8887  0.4120  0.9772
  149SAPE  C31516515  -0.376   3.162   8.245 -0.0399  0.0357 -0.1810
  149SAPE  H15X16516  -0.314   3.173   8.154 -0.3403 -0.5760 -0.4644
  149SAPE  H15Y16517  -0.350   3.064   8.291 -2.5069 -0.5656  0.0318
  149SAPE  C31616518  -0.348   3.267   8.355  0.7456  0.2107  0.4321
  149SAPE  H16X16519  -0.429   3.269   8.430  1.8975  1.7722  1.6790
  149SAPE  H16Y16520  -0.358   3.364   8.300  2.0569 -0.7002 -1.5026
  149SAPE  C31716521  -0.205   3.268   8.410 -0.2490  0.4529  0.4960
  149SAPE  H17X16522  -0.143   3.287   8.320 -1.5821 -0.7608 -0.6991
  149SAPE  H17Y16523  -0.185   3.170   8.459  0.6738  0.0886 -0.5784
  149SAPE  C31816524  -0.167   3.377   8.514  0.5302 -0.1612  0.4489
  149SAPE  H18X16525  -0.057   3.391   8.521  0.4123  0.0374  2.0661
  149SAPE  H18Y16526  -0.210   3.344   8.611 -2.1971  0.7063 -0.4072
  149SAPE  H18Z16527  -0.212   3.477   8.499 -0.7419 -0.5873  1.2832
  150SAPE     N16528   0.035   3.042   6.641 -0.0092 -0.3182  0.0614
  150SAPE   HN116529   0.037   2.944   6.675 -1.7763  0.6515  3.1372
  150SAPE   HN216530   0.085   3.106   6.707 -1.7011  2.4870 -1.2697
  150SAPE   HN316531  -0.065   3.071   6.636 -0.0676 -0.5881 -0.3289
  150SAPE   C1216532   0.090   3.053   6.505 -0.1319  0.7672 -0.4255
  150SAPE  H12A16533   0.003   3.026   6.440  1.4716 -1.8564 -1.5769
  150SAPE  H12B16534   0.182   2.991   6.506  0.8877  2.2286  2.8099
  150SAPE   C1116535   0.134   3.203   6.484 -0.4484  0.2442  0.2658
  150SAPE  H11A16536   0.169   3.209   6.379 -0.2821 -2.5099  0.1160
  150SAPE  H11B16537   0.230   3.232   6.532  1.0975 -0.3567 -2.3578
  150SAPE     P16538  -0.049   3.373   6.425 -0.1298 -0.4613  0.4380
  150SAPE   O1316539  -0.059   3.284   6.308 -0.1053 -0.1212 -0.2145
  150SAPE   O1416540  -0.167   3.439   6.488 -0.2222 -0.3366  0.3673
  150SAPE   O1216541   0.032   3.289   6.533 -0.4181 -0.1426 -0.8133
  150SAPE   O1116542   0.050   3.487   6.388  0.6345  0.1789 -0.0407
  150SAPE    C116543   0.137   3.541   6.490  0.4270 -0.6248 -0.9690
  150SAPE    HA16544   0.213   3.468   6.527  2.1059  2.0061  0.9506
  150SAPE    HB16545   0.202   3.623   6.453 -0.8185  0.6283 -0.4031
  150SAPE    C216546   0.077   3.603   6.619 -0.1442 -0.7476  0.3790
  150SAPE    HS16547   0.028   3.517   6.671  1.9125 -0.7970  2.3035
  150SAPE   O2116548  -0.010   3.709   6.582 -0.0757  0.5114  0.1999
  150SAPE   C2116549  -0.109   3.718   6.670 -0.6585  0.4292  0.1533
  150SAPE   O2216550  -0.142   3.637   6.753 -0.1299 -0.2631  0.2241
  150SAPE   C2216551  -0.180   3.850   6.652 -0.3550 -0.4821 -0.3084
  150SAPE   H2R16552  -0.109   3.935   6.660  1.2624 -1.8721  0.3739
  150SAPE   H2S16553  -0.226   3.856   6.551  0.4348  1.0446 -0.6062
  150SAPE    C316554   0.187   3.654   6.710  0.2534  0.4502  0.1712
  150SAPE    HX16555   0.233   3.746   6.667  3.7397 -0.9389  0.7067
  150SAPE    HY16556   0.270   3.580   6.714 -0.6678 -0.5396  1.9432
  150SAPE   O3116557   0.139   3.684   6.842 -0.2791 -0.4450 -0.0774
  150SAPE   C3116558   0.121   3.575   6.916 -0.2432 -0.3730 -0.3610
  150SAPE   O3216559   0.161   3.469   6.871  0.3036  0.7260 -0.4121
  150SAPE   C3216560   0.061   3.599   7.058  0.7427  0.0739  0.6518
  150SAPE   H2X16561   0.092   3.698   7.098 -0.0604  0.0585  1.3338
  150SAPE   H2Y16562   0.104   3.514   7.116 -0.1387 -0.7869  0.0420
  150SAPE   C2316563  -0.293   3.867   6.758 -0.1571  0.1181 -0.3347
  150SAPE   H3R16564  -0.334   3.766   6.776  2.0923 -0.7800 -0.0726
  150SAPE   H3S16565  -0.377   3.928   6.717  0.6150  2.1233  1.0065
  150SAPE   C2416566  -0.255   3.927   6.891  0.1027  0.2630  0.3167
  150SAPE   H4R16567  -0.177   3.873   6.948  0.5273  0.7525  0.2004
  150SAPE   H4S16568  -0.347   3.917   6.953  1.2231 -1.0226  1.8190
  150SAPE   C2516569  -0.224   4.075   6.883 -0.1070 -0.3343 -0.3479
  150SAPE   H5R16570  -0.132   4.099   6.827  0.3926  1.7599  1.3249
  150SAPE   C2616571  -0.303   4.178   6.925 -0.0737 -0.2092 -0.3151
  150SAPE   H6R16572  -0.280   4.286   6.920 -0.0223 -0.2294 -0.5302
  150SAPE   C2716573  -0.433   4.152   7.011 -0.4015 -0.2637  0.4402
  150SAPE   H7R16574  -0.482   4.072   6.952  0.8987  0.9097 -2.3789
  150SAPE   H7S16575  -0.504   4.238   7.008 -1.2036 -0.8369  2.4052
  150SAPE   C2816576  -0.399   4.111   7.152 -0.1087  0.3839  0.1683
  150SAPE   H8R16577  -0.321   4.033   7.153 -0.1773  0.2526 -1.8908
  150SAPE   C2916578  -0.463   4.144   7.268 -0.1980  0.0928  0.2121
  150SAPE   H9R16579  -0.426   4.110   7.366  0.4578 -0.1852 -0.1344
  150SAPE  C21016580  -0.575   4.239   7.287  0.1544  0.1024 -0.5938
  150SAPE  H10R16581  -0.629   4.224   7.383  1.5815 -0.6917  0.1048
  150SAPE  H10S16582  -0.648   4.215   7.208  0.0325 -0.7004 -0.2439
  150SAPE  C21116583  -0.534   4.384   7.271  0.5910 -0.4720 -0.7708
  150SAPE  H11R16584  -0.533   4.420   7.167 -0.2385 -2.1429 -1.3789
  150SAPE  C21216585  -0.530   4.475   7.368 -0.4981 -0.1442  0.2262
  150SAPE  H12R16586  -0.515   4.576   7.329  0.9278  0.4109  2.1532
  150SAPE  C21316587  -0.546   4.462   7.521 -0.5195  0.0235 -0.9042
  150SAPE  H13R16588  -0.461   4.508   7.576 -0.2082 -1.2478 -0.2978
  150SAPE  H13S16589  -0.545   4.352   7.535 -1.2925  0.0343 -0.7367
  150SAPE  C21416590  -0.678   4.520   7.573 -0.7039  0.5227 -0.3094
  150SAPE  H14R16591  -0.758   4.511   7.497 -2.5559 -1.8190  1.8302
  150SAPE  C21516592  -0.706   4.583   7.694  0.4447 -0.1288 -0.3389
  150SAPE  H15R16593  -0.802   4.637   7.703  0.6521  0.0003  1.1864
  150SAPE  C21616594  -0.604   4.601   7.802 -0.8492 -0.5140 -0.4111
  150SAPE  H16R16595  -0.605   4.709   7.830 -0.8000 -0.2232 -1.5198
  150SAPE  H16S16596  -0.502   4.573   7.769 -0.1858  0.1653  1.0262
  150SAPE  C21716597  -0.625   4.540   7.944  0.2868  0.6246  0.3932
  150SAPE  H17R16598  -0.636   4.432   7.920 -0.1597  0.9651 -0.9687
  150SAPE  H17S16599  -0.730   4.564   7.973  0.2247 -0.2759  0.9462
  150SAPE  C21816600  -0.522   4.556   8.052 -0.1932 -0.3882 -0.0151
  150SAPE  H18R16601  -0.575   4.500   8.132 -3.4076  1.0541 -1.0431
  150SAPE  H18S16602  -0.523   4.661   8.088 -1.5172 -0.3929 -0.0042
  150SAPE  C21916603  -0.385   4.488   8.028  0.1868  0.4133  0.4244
  150SAPE  H19R16604  -0.334   4.545   7.948  0.7008 -0.2487  0.2721
  150SAPE  H19S16605  -0.408   4.383   8.000 -0.7489  0.7979 -0.2831
  150SAPE  C22016606  -0.287   4.492   8.146  0.4011  0.1326  0.7624
  150SAPE  H20R16607  -0.280   4.598   8.179 -0.8379  0.1487  0.9865
  150SAPE  H20S16608  -0.182   4.468   8.117  0.4662 -1.8723  2.5674
  150SAPE  H20T16609  -0.313   4.426   8.231 -0.7759  1.3149  1.3446
  150SAPE   C3316610  -0.089   3.600   7.062 -0.6422 -0.2208  0.6440
  150SAPE   H3X16611  -0.131   3.501   7.038 -0.5957  0.0176 -0.4522
  150SAPE   H3Y16612  -0.135   3.656   6.978  1.6756  1.3834  0.4009
  150SAPE   C3416613  -0.150   3.683   7.178 -0.5306  0.5345  0.2972
  150SAPE   H4X16614  -0.141   3.787   7.139 -1.5710  1.2598  1.9299
  150SAPE   H4Y16615  -0.094   3.666   7.272 -0.7583  1.9525  0.7109
  150SAPE   C3516616  -0.301   3.653   7.199 -0.1131 -0.4106 -0.1476
  150SAPE   H5X16617  -0.301   3.542   7.206  0.6644 -0.4024  0.0209
  150SAPE   H5Y16618  -0.350   3.664   7.100  0.7398 -0.6819 -0.6015
  150SAPE   C3616619  -0.382   3.712   7.315  0.4399 -0.0719  0.1330
  150SAPE   H6X16620  -0.412   3.817   7.296 -0.6913 -0.2085  1.1310
  150SAPE   H6Y16621  -0.308   3.709   7.398  1.3253 -1.9415 -0.6969
  150SAPE   C3716622  -0.500   3.627   7.345 -0.4759  0.1066 -0.1939
  150SAPE   H7X16623  -0.461   3.527   7.372 -0.2936 -0.0576 -1.0794
  150SAPE   H7Y16624  -0.566   3.631   7.256  1.0369 -0.3136 -1.3491
  150SAPE   C3816625  -0.574   3.683   7.473 -0.4029 -0.2016  0.4484
  150SAPE   H8X16626  -0.684   3.674   7.461 -0.9452 -0.4537  4.7750
  150SAPE   H8Y16627  -0.552   3.791   7.482  0.6554 -0.2567 -1.2732
  150SAPE   C3916628  -0.534   3.597   7.594 -0.5781 -0.3469 -0.4468
  150SAPE   H9X16629  -0.426   3.610   7.615 -0.7986  2.7542 -0.9119
  150SAPE   H9Y16630  -0.560   3.490   7.582  0.2983 -0.4210 -1.7932
  150SAPE  C31016631  -0.585   3.649   7.728 -0.2513  0.1187 -0.4170
  150SAPE  H10X16632  -0.685   3.605   7.747  0.7337 -1.9153  0.1952
  150SAPE  H10Y16633  -0.599   3.759   7.720 -4.0697 -0.3103 -0.8726
  150SAPE  C31116634  -0.493   3.625   7.851 -0.0706  0.8857  0.6524
  150SAPE  H11X16635  -0.405   3.692   7.839  2.0245 -2.0772 -1.2009
  150SAPE  H11Y16636  -0.451   3.522   7.850 -1.7010  0.1975 -2.3360
  150SAPE  C31216637  -0.554   3.663   7.985  0.4839  0.1670 -0.3799
  150SAPE  H12X16638  -0.635   3.589   8.004 -0.9693  1.4190 -1.5460
  150SAPE  H12Y16639  -0.583   3.770   7.976 -0.0821  0.4142  3.4531
  150SAPE  C31316640  -0.453   3.671   8.096 -0.0826 -0.0508 -0.1427
  150SAPE  H13X16641  -0.376   3.750   8.081  0.0493 -0.5905 -2.5764
  150SAPE  H13Y16642  -0.416   3.567   8.108  1.7267  0.5906  0.1294
  150SAPE  C31416643  -0.508   3.702   8.236 -0.6139 -0.0270 -0.3318
  150SAPE  H14X16644  -0.589   3.631   8.262 -0.0782 -0.2166  0.8834
  150SAPE  H14Y16645  -0.543   3.808   8.233 -0.7639 -0.0661  0.0467
  150SAPE  C31516646  -0.390   3.681   8.344 -0.2724  0.1526 -0.1284
  150SAPE  H15X16647  -0.289   3.697   8.300  0.0810 -1.5543  0.0257
  150SAPE  H15Y16648  -0.403   3.577   8.381 -1.2950 -0.7634 -2.9531
  150SAPE  C31616649  -0.399   3.774   8.467  0.3023  0.1058 -0.1293
  150SAPE  H16X16650  -0.491   3.745   8.522 -0.1797  0.6886 -0.6286
  150SAPE  H16Y16651  -0.413   3.880   8.436 -1.7681  0.7778  2.8567
  150SAPE  C31716652  -0.275   3.761   8.561 -0.0938 -0.0373  0.6177
  150SAPE  H17X16653  -0.179   3.791   8.513  0.4851 -0.3796  1.5486
  150SAPE  H17Y16654  -0.260   3.652   8.573  0.8079  0.0265  0.0743
  150SAPE  C31816655  -0.286   3.835   8.698 -0.1932  0.0871  0.0944
  150SAPE  H18X16656  -0.375   3.807   8.758  1.9037 -0.5614  3.0685
  150SAPE  H18Y16657  -0.309   3.938   8.666 -0.4270  1.0577  3.2013
  150SAPE  H18Z16658  -0.189   3.828   8.752 -0.3223 -1.1653  0.1888
  151SAPE     N16659   1.950   1.971   6.422 -0.4259  0.0215 -0.0886
  151SAPE   HN116660   2.044   1.984   6.379  1.8066 -0.7416  4.3450
  151SAPE   HN216661   1.907   1.885   6.382 -1.5846  1.2282 -1.5380
  151SAPE   HN316662   1.889   2.043   6.377 -0.8419  0.4800  1.1830
  151SAPE   C1216663   1.927   1.985   6.570  0.2441 -0.5634  0.1723
  151SAPE  H12A16664   1.995   2.062   6.612 -1.2658  0.2906  1.0892
  151SAPE  H12B16665   1.936   1.891   6.629  1.6926 -0.7021 -0.2544
  151SAPE   C1116666   1.790   2.051   6.601 -0.5800  0.1230 -0.1278
  151SAPE  H11A16667   1.790   2.094   6.703  3.2880  1.3035 -0.5162
  151SAPE  H11B16668   1.709   1.977   6.610 -1.1353  0.9706  1.9682
  151SAPE     P16669   1.615   2.226   6.529 -0.0499 -0.0677  0.2567
  151SAPE   O1316670   1.624   2.355   6.457 -0.1192  0.2935  0.2502
  151SAPE   O1416671   1.514   2.133   6.477 -0.3263  0.4164 -0.7202
  151SAPE   O1216672   1.754   2.149   6.508  0.5250 -0.8033  0.3431
  151SAPE   O1116673   1.606   2.260   6.682  0.3365  0.1072 -0.1095
  151SAPE    C116674   1.587   2.393   6.725 -0.5923  0.0017 -0.4071
  151SAPE    HA16675   1.513   2.444   6.659  1.4322  1.6430 -1.4656
  151SAPE    HB16676   1.539   2.388   6.825  0.7833  0.5544  0.2904
  151SAPE    C216677   1.720   2.461   6.747  0.0832  0.4217 -0.4839
  151SAPE    HS16678   1.772   2.444   6.650 -2.8161 -2.2266 -1.6710
  151SAPE   O2116679   1.778   2.382   6.854  0.0574 -0.0083 -0.4211
  151SAPE   C2116680   1.905   2.390   6.864  1.2875  0.0360  1.0250
  151SAPE   O2216681   1.988   2.438   6.784  0.3728 -0.7483  0.0235
  151SAPE   C2216682   1.955   2.335   6.992 -0.2871 -0.2690  0.6468
  151SAPE   H2R16683   2.046   2.396   7.012  1.1431 -2.4867  1.2319
  151SAPE   H2S16684   1.874   2.357   7.065 -1.1746 -0.9151 -0.1256
  151SAPE    C316685   1.718   2.619   6.768  0.2180  0.0211 -0.5394
  151SAPE    HX16686   1.672   2.664   6.678  0.5779  1.0562 -0.2160
  151SAPE    HY16687   1.821   2.662   6.765 -0.0179  0.6520  0.1142
  151SAPE   O3116688   1.656   2.659   6.887 -0.2960 -0.8008  0.1527
  151SAPE   C3116689   1.730   2.668   6.992  0.2491  0.5143 -0.2601
  151SAPE   O3216690   1.845   2.637   7.000 -0.0143 -0.1351  0.3164
  151SAPE   C3216691   1.648   2.736   7.097 -0.2382 -0.2626  0.4167
  151SAPE   H2X16692   1.538   2.732   7.081 -0.0426 -0.3765 -0.9600
  151SAPE   H2Y16693   1.687   2.840   7.094  0.9270 -0.7324 -0.8227
  151SAPE   C2316694   2.000   2.190   6.990 -0.2159  0.7964  0.0909
  151SAPE   H3R16695   2.063   2.163   7.077 -1.6923 -2.6106  0.2082
  151SAPE   H3S16696   2.062   2.182   6.898 -0.3829  3.1695 -0.2481
  151SAPE   C2416697   1.893   2.080   6.986  0.4655 -0.3718  0.6220
  151SAPE   H4R16698   1.813   2.099   6.911  1.9153  0.7525 -0.6878
  151SAPE   H4S16699   1.843   2.074   7.085  0.1828 -4.0110  0.3528
  151SAPE   C2516700   1.950   1.944   6.950 -0.3417 -0.2081  0.0713
  151SAPE   H5R16701   2.030   1.947   6.875 -0.7072 -1.3548 -0.3746
  151SAPE   C2616702   1.900   1.825   6.998 -0.1854 -0.6908  0.4132
  151SAPE   H6R16703   1.947   1.731   6.967  0.4275 -0.2714  0.0438
  151SAPE   C2716704   1.787   1.804   7.102  0.4706 -0.0777 -1.0209
  151SAPE   H7R16705   1.807   1.883   7.178  1.3154  0.1274 -1.4580
  151SAPE   H7S16706   1.802   1.708   7.156  1.4295  0.6670  0.0623
  151SAPE   C2816707   1.648   1.831   7.062  0.5491  0.6228  0.3852
  151SAPE   H8R16708   1.625   1.898   6.978 -0.9444 -2.0661 -1.4542
  151SAPE   C2916709   1.541   1.764   7.120 -0.1939 -0.1333  0.2469
  151SAPE   H9R16710   1.439   1.798   7.093  0.1446 -0.7472 -1.9105
  151SAPE  C21016711   1.550   1.671   7.239 -0.3496 -1.0633 -0.2613
  151SAPE  H10R16712   1.640   1.703   7.296 -0.6802 -0.2355 -0.1895
  151SAPE  H10S16713   1.574   1.570   7.200  0.3284 -1.6336  1.6216
  151SAPE  C21116714   1.415   1.642   7.311  0.0460 -0.2528 -0.1980
  151SAPE  H11R16715   1.339   1.604   7.240 -0.2970  2.3540 -1.3064
  151SAPE  C21216716   1.378   1.660   7.437  0.8458  0.1591 -0.6514
  151SAPE  H12R16717   1.273   1.633   7.453  0.6221  0.1691 -2.0197
  151SAPE  C21316718   1.462   1.703   7.557  0.4162  0.5017 -0.1214
  151SAPE  H13R16719   1.480   1.813   7.563  0.9482  0.3697  0.7380
  151SAPE  H13S16720   1.565   1.663   7.546  0.9054  1.4588  0.8776
  151SAPE  C21416721   1.416   1.627   7.675  0.3021 -0.4467  0.1671
  151SAPE  H14R16722   1.398   1.520   7.656  2.3004 -0.6241 -0.8967
  151SAPE  C21516723   1.406   1.675   7.805  0.3851 -0.6845 -0.4139
  151SAPE  H15R16724   1.398   1.610   7.893 -0.1001 -0.8487 -0.5788
  151SAPE  C21616725   1.430   1.817   7.842  0.1412 -0.5144  0.8455
  151SAPE  H16R16726   1.336   1.874   7.829  0.3026 -0.3813  0.2374
  151SAPE  H16S16727   1.513   1.863   7.784  0.7926 -1.3134  1.1279
  151SAPE  C21716728   1.459   1.848   7.989 -0.6639 -0.1979 -0.3212
  151SAPE  H17R16729   1.487   1.955   7.996  0.3855 -0.5614  1.5409
  151SAPE  H17S16730   1.549   1.791   8.022 -1.4258 -2.8099 -2.5634
  151SAPE  C21816731   1.332   1.820   8.077  0.1356  0.0871 -0.8253
  151SAPE  H18R16732   1.301   1.716   8.054 -1.7572  0.3126  0.5760
  151SAPE  H18S16733   1.248   1.882   8.039  0.4714  0.0947 -1.5645
  151SAPE  C21916734   1.338   1.841   8.236  0.0642  0.5107 -0.1117
  151SAPE  H19R16735   1.390   1.748   8.269 -0.4053  1.1076  2.3600
  151SAPE  H19S16736   1.240   1.846   8.287  0.3412  0.1243  0.4573
  151SAPE  C22016737   1.416   1.971   8.276  0.0690 -0.5549  0.6876
  151SAPE  H20R16738   1.518   1.976   8.232 -0.0232  1.5455  0.6740
  151SAPE  H20S16739   1.360   2.061   8.242  0.0294 -1.1025 -0.7431
  151SAPE  H20T16740   1.427   1.982   8.386  0.6937  2.2580  0.3629
  151SAPE   C3316741   1.671   2.673   7.234  0.4271  0.0946  0.3091
  151SAPE   H3X16742   1.774   2.702   7.264  0.4012  0.8865 -0.3436
  151SAPE   H3Y16743   1.662   2.563   7.242  1.1406 -0.2385 -2.7497
  151SAPE   C3416744   1.582   2.726   7.341  0.0325  0.2087  0.2054
  151SAPE   H4X16745   1.477   2.718   7.308  0.1086 -1.0115  0.2631
  151SAPE   H4Y16746   1.599   2.836   7.341 -0.0773  0.2271  1.6651
  151SAPE   C3516747   1.615   2.662   7.475  0.3245 -0.8671 -0.4439
  151SAPE   H5X16748   1.723   2.672   7.499  0.0131  1.2037  0.2052
  151SAPE   H5Y16749   1.607   2.552   7.465 -0.3385 -0.9085  0.4800
  151SAPE   C3616750   1.546   2.707   7.595  0.1046 -0.3262  0.0911
  151SAPE   H6X16751   1.437   2.721   7.574  0.2424 -0.4359 -0.7176
  151SAPE   H6Y16752   1.576   2.812   7.619 -1.0168  0.2436 -0.9063
  151SAPE   C3716753   1.566   2.605   7.709  0.5523  0.7626 -0.2026
  151SAPE   H7X16754   1.673   2.589   7.734  0.8152 -0.2494 -1.9164
  151SAPE   H7Y16755   1.534   2.506   7.669 -0.3771  0.5537  1.0288
  151SAPE   C3816756   1.501   2.647   7.844 -0.0462  0.4950  0.5459
  151SAPE   H8X16757   1.391   2.658   7.835 -0.5420 -2.6561  2.1149
  151SAPE   H8Y16758   1.536   2.749   7.870  0.4591 -0.4398  3.8142
  151SAPE   C3916759   1.527   2.546   7.957 -0.5626  0.4644 -0.0389
  151SAPE   H9X16760   1.490   2.447   7.924  0.0110  0.9258 -2.0948
  151SAPE   H9Y16761   1.465   2.575   8.044 -1.1271  1.8141 -0.8731
  151SAPE  C31016762   1.673   2.535   8.001 -0.7343  0.0177  0.0565
  151SAPE  H10X16763   1.726   2.630   8.022  0.1264 -0.1578 -1.2274
  151SAPE  H10Y16764   1.736   2.495   7.918  0.7518  2.8553 -0.2719
  151SAPE  C31116765   1.683   2.432   8.119 -0.2334 -0.0281  0.1298
  151SAPE  H11X16766   1.620   2.480   8.197  0.0949  0.3166  0.1894
  151SAPE  H11Y16767   1.789   2.446   8.150 -0.3333  2.1415 -0.4102
  151SAPE  C31216768   1.660   2.280   8.082 -0.1022 -0.7900  0.5533
  151SAPE  H12X16769   1.554   2.257   8.060 -0.4883 -0.8555  2.3371
  151SAPE  H12Y16770   1.683   2.228   8.178  0.2737 -0.5773  0.5828
  151SAPE  C31316771   1.763   2.229   7.983  0.0156 -0.3132 -1.1072
  151SAPE  H13X16772   1.861   2.280   7.995  0.7987 -1.6767 -1.7040
  151SAPE  H13Y16773   1.724   2.273   7.889 -0.2766  1.5967 -0.1328
  151SAPE  C31416774   1.768   2.078   7.970 -0.3393 -0.0834  0.8948
  151SAPE  H14X16775   1.835   2.047   7.886 -0.8875 -1.3688  0.9243
  151SAPE  H14Y16776   1.667   2.040   7.944  0.3341 -0.5653 -1.1148
  151SAPE  C31516777   1.824   2.002   8.099 -0.5526  0.5185 -0.9147
  151SAPE  H15X16778   1.867   1.905   8.065 -0.2483 -0.1166  1.2120
  151SAPE  H15Y16779   1.739   1.970   8.163 -1.3941  0.8550 -1.8518
  151SAPE  C31616780   1.936   2.068   8.171  0.5666 -0.2352 -0.0049
  151SAPE  H16X16781   1.911   2.169   8.209 -1.5282  0.3258 -2.6861
  151SAPE  H16Y16782   2.012   2.102   8.097  0.9023  0.5660  0.7052
  151SAPE  C31716783   2.000   1.983   8.275  0.1080 -0.0592 -0.3873
  151SAPE  H17X16784   2.099   2.032   8.288 -0.0579  0.2138 -0.1212
  151SAPE  H17Y16785   1.997   1.881   8.232 -2.5368 -0.0992 -0.1996
  151SAPE  C31816786   1.923   1.976   8.403 -0.4092  0.3101  0.2565
  151SAPE  H18X16787   1.929   2.075   8.454  0.8769  1.2362 -1.6403
  151SAPE  H18Y16788   1.968   1.898   8.468 -2.1757 -1.2089 -0.2983
  151SAPE  H18Z16789   1.819   1.939   8.386 -0.0399 -1.0551  0.9479
  152SAPE     N16790   5.314   4.949   6.381 -0.3032  0.4994  0.1304
  152SAPE   HN116791   5.257   5.023   6.335 -1.9478 -0.5919  0.3507
  152SAPE   HN216792   5.380   4.899   6.318  1.0680 -0.3096  2.1735
  152SAPE   HN316793   5.244   4.881   6.417  0.2557  0.2293  0.7167
  152SAPE   C1216794   5.390   5.007   6.498 -0.9596  0.2295  0.2208
  152SAPE  H12A16795   5.448   4.926   6.548 -2.1219 -1.4940 -1.1578
  152SAPE  H12B16796   5.313   5.041   6.571  2.5637  3.4456  2.6566
  152SAPE   C1116797   5.482   5.116   6.444  0.0031 -0.1478 -0.0264
  152SAPE  H11A16798   5.540   5.149   6.532  0.2514 -2.7523  0.8079
  152SAPE  H11B16799   5.414   5.196   6.408  1.9071  1.2340 -0.6269
  152SAPE     P16800   5.697   5.131   6.290 -0.0909 -0.4107  0.0812
  152SAPE   O1316801   5.750   5.063   6.173 -0.1862  0.0737  0.2522
  152SAPE   O1416802   5.651   5.268   6.276  0.4473  0.0873  0.4787
  152SAPE   O1216803   5.571   5.053   6.347  0.6130 -0.5405 -0.8400
  152SAPE   O1116804   5.801   5.123   6.410 -0.2441 -0.7554  0.2223
  152SAPE    C116805   5.886   5.013   6.441  0.5606  0.4386  1.1378
  152SAPE    HA16806   5.914   4.961   6.348 -0.8404  1.2638  0.2409
  152SAPE    HB16807   5.977   5.048   6.495  2.3325 -2.4878  0.1475
  152SAPE    C216808   5.802   4.913   6.531 -0.5738 -0.4157 -0.0979
  152SAPE    HS16809   5.724   4.870   6.465 -0.8782  1.8901 -1.2927
  152SAPE   O2116810   5.735   4.985   6.638 -0.4829 -0.3349 -0.0524
  152SAPE   C2116811   5.804   5.026   6.744  0.5471  0.6841  0.5357
  152SAPE   O2216812   5.922   5.019   6.757 -0.2605  0.4541 -0.4633
  152SAPE   C2216813   5.707   5.070   6.850 -0.1401  0.4742  0.1526
  152SAPE   H2R16814   5.679   5.172   6.817  0.1536  1.0768  1.7194
  152SAPE   H2S16815   5.618   5.005   6.852  0.5255 -0.5122 -1.2214
  152SAPE    C316816   5.895   4.801   6.576  0.3936 -0.5627  0.5699
  152SAPE    HX16817   5.989   4.855   6.597 -0.6710  0.9858  1.4210
  152SAPE    HY16818   5.903   4.727   6.493  2.1019 -0.4493  0.6181
  152SAPE   O3116819   5.848   4.742   6.695 -0.2916 -0.9036  0.0847
  152SAPE   C3116820   5.923   4.658   6.760 -0.5271 -0.3555 -0.5267
  152SAPE   O3216821   6.034   4.619   6.739  0.5598 -0.1598 -0.4005
  152SAPE   C3216822   5.832   4.588   6.864  0.0212 -0.1921  0.1765
  152SAPE   H2X16823   5.745   4.550   6.806  0.5868  1.4026 -1.7731
  152SAPE   H2Y16824   5.800   4.674   6.927 -1.0155 -0.3751 -0.0927
  152SAPE   C2316825   5.777   5.089   6.989 -0.0190 -0.4012 -0.7541
  152SAPE   H3R16826   5.819   4.992   7.024  0.1322  0.5601  1.8698
  152SAPE   H3S16827   5.700   5.100   7.068  1.7918  0.1223  0.9982
  152SAPE   C2416828   5.861   5.213   7.011 -0.2584  0.0507 -0.1075
  152SAPE   H4R16829   5.953   5.206   6.949 -1.4155  2.6131 -2.2059
  152SAPE   H4S16830   5.896   5.208   7.116 -0.1850  1.6849 -0.0430
  152SAPE   C2516831   5.792   5.347   6.984  0.3920 -0.1632 -0.4608
  152SAPE   H5R16832   5.780   5.378   6.880 -2.2144  0.7827  0.0761
  152SAPE   C2616833   5.771   5.432   7.083 -0.7622 -0.4290  0.4097
  152SAPE   H6R16834   5.718   5.523   7.051 -0.3208  0.5631  2.4164
  152SAPE   C2716835   5.792   5.415   7.233 -0.1837  0.0209  0.4623
  152SAPE   H7R16836   5.784   5.309   7.267 -1.6056  0.5963  2.0077
  152SAPE   H7S16837   5.704   5.465   7.279 -0.2003 -1.9957  2.7602
  152SAPE   C2816838   5.928   5.466   7.274 -0.2134 -1.0528  0.8538
  152SAPE   H8R16839   5.987   5.513   7.194 -0.8962  2.8909  2.5156
  152SAPE   C2916840   5.970   5.487   7.404 -0.1909  0.0004 -0.5386
  152SAPE   H9R16841   6.075   5.517   7.417 -0.1602 -0.1216 -0.5069
  152SAPE  C21016842   5.903   5.455   7.533  0.2631  0.6519  1.2054
  152SAPE  H10R16843   5.796   5.430   7.515  0.5310  1.9932 -2.7769
  152SAPE  H10S16844   5.903   5.547   7.595 -0.1285  0.7093  1.1221
  152SAPE  C21116845   5.957   5.327   7.590  0.1775  0.3671 -0.2768
  152SAPE  H11R16846   5.939   5.242   7.524  0.2006  0.0479  0.1251
  152SAPE  C21216847   6.030   5.321   7.701 -0.1446 -0.1512 -0.5948
  152SAPE  H12R16848   6.070   5.221   7.723  2.8092  1.4808  1.7271
  152SAPE  C21316849   6.073   5.428   7.794 -0.4363 -0.1397 -0.0680
  152SAPE  H13R16850   6.085   5.396   7.900  1.0128  1.2980  0.2261
  152SAPE  H13S16851   5.985   5.496   7.801 -0.9136 -0.4226 -2.6740
  152SAPE  C21416852   6.191   5.502   7.745 -0.1787  0.1802 -0.2493
  152SAPE  H14R16853   6.275   5.444   7.706  0.3156  1.4683 -1.1463
  152SAPE  C21516854   6.194   5.640   7.741 -1.0655  0.6123  0.4262
  152SAPE  H15R16855   6.288   5.687   7.707 -0.4052 -1.0266 -0.1166
  152SAPE  C21616856   6.091   5.743   7.786  0.1496 -0.3715  0.5374
  152SAPE  H16R16857   6.114   5.774   7.890 -2.3474 -0.4553  1.1632
  152SAPE  H16S16858   5.984   5.712   7.791  0.0847 -0.0588  1.1974
  152SAPE  C21716859   6.105   5.873   7.697  0.1568  0.2492  0.0456
  152SAPE  H17R16860   6.198   5.928   7.724 -0.8610  2.7841 -1.3836
  152SAPE  H17S16861   6.029   5.949   7.725 -0.2470  0.6113 -1.9552
  152SAPE  C21816862   6.068   5.850   7.548 -1.1057 -0.1580  0.1413
  152SAPE  H18R16863   6.016   5.942   7.511 -1.1323 -0.5433 -0.7869
  152SAPE  H18S16864   5.995   5.767   7.545 -0.6689 -0.5655  0.8725
  152SAPE  C21916865   6.170   5.831   7.443  0.0721 -0.2217  0.4616
  152SAPE  H19R16866   6.233   5.741   7.462  0.5243 -0.0800 -0.3273
  152SAPE  H19S16867   6.246   5.911   7.458 -0.1383  0.3201 -1.2163
  152SAPE  C22016868   6.121   5.836   7.301  0.2804  0.4668  0.0020
  152SAPE  H20R16869   6.042   5.759   7.285  0.9873  0.0992 -1.8437
  152SAPE  H20S16870   6.199   5.807   7.227  0.5436 -1.2639  0.9443
  152SAPE  H20T16871   6.079   5.936   7.276 -1.2410 -0.0862  0.2847
  152SAPE   C3316872   5.902   4.483   6.941  0.5463 -0.2685 -0.0884
  152SAPE   H3X16873   6.005   4.517   6.963  0.3788  1.6879 -2.1664
  152SAPE   H3Y16874   5.913   4.388   6.884 -0.1127 -0.5259  0.1978
  152SAPE   C3416875   5.822   4.448   7.069 -1.2623 -0.5414 -0.0855
  152SAPE   H4X16876   5.721   4.407   7.048 -1.8985  2.0178 -2.4152
  152SAPE   H4Y16877   5.809   4.543   7.124  2.1820 -0.0086 -0.0980
  152SAPE   C3516878   5.919   4.369   7.165 -0.0381  0.3895  0.3610
  152SAPE   H5X16879   6.018   4.413   7.189  0.8014 -1.3183  0.0869
  152SAPE   H5Y16880   5.937   4.272   7.115 -1.1537  0.2690  0.1769
  152SAPE   C3616881   5.847   4.340   7.299 -0.0160 -0.2478 -0.8227
  152SAPE   H6X16882   5.917   4.276   7.357  0.2455  1.7844  1.1382
  152SAPE   H6Y16883   5.748   4.291   7.283 -1.3149  1.5297  1.4955
  152SAPE   C3716884   5.828   4.475   7.377  0.3631 -0.7087 -0.6155
  152SAPE   H7X16885   5.742   4.521   7.323  2.0577 -1.2454 -3.9208
  152SAPE   H7Y16886   5.910   4.549   7.368  1.0581 -1.5258 -1.1098
  152SAPE   C3816887   5.798   4.449   7.525  0.2692 -0.4479 -0.1335
  152SAPE   H8X16888   5.833   4.535   7.586  1.9439 -1.0958 -0.1685
  152SAPE   H8Y16889   5.854   4.355   7.546  1.4296 -0.1804 -2.0073
  152SAPE   C3916890   5.644   4.441   7.549  0.4059  0.0131 -0.1781
  152SAPE   H9X16891   5.605   4.353   7.492 -1.0039 -0.2747  1.1840
  152SAPE   H9Y16892   5.585   4.529   7.517 -0.3824 -0.5968 -0.4377
  152SAPE  C31016893   5.612   4.402   7.698 -0.0773 -0.1106 -0.2801
  152SAPE  H10X16894   5.636   4.294   7.707 -0.8128 -0.1981  0.7003
  152SAPE  H10Y16895   5.503   4.425   7.700 -0.3224 -1.0878 -1.7424
  152SAPE  C31116896   5.688   4.475   7.812 -0.6926  0.1512 -0.3922
  152SAPE  H11X16897   5.670   4.585   7.806  0.5154  0.3273 -1.0323
  152SAPE  H11Y16898   5.797   4.459   7.801 -0.6615  1.0211 -1.4738
  152SAPE  C31216899   5.639   4.438   7.954  0.6729 -0.4454  0.3979
  152SAPE  H12X16900   5.668   4.336   7.985  1.2014 -0.2116  0.6697
  152SAPE  H12Y16901   5.528   4.435   7.951  0.6753 -0.0383 -0.1997
  152SAPE  C31316902   5.666   4.537   8.066 -0.0319 -0.4609 -0.0980
  152SAPE  H13X16903   5.614   4.513   8.161  1.6236 -1.0478  0.6792
  152SAPE  H13Y16904   5.632   4.638   8.034 -0.6069 -0.5661  0.1868
  152SAPE  C31416905   5.815   4.543   8.100 -0.5472  0.3114 -0.3109
  152SAPE  H14X16906   5.875   4.541   8.006  0.5179  0.2994  0.3590
  152SAPE  H14Y16907   5.843   4.447   8.149  3.4934  2.2656  1.4491
  152SAPE  C31516908   5.845   4.663   8.189 -0.6598  0.1087 -0.0649
  152SAPE  H15X16909   5.762   4.670   8.263 -0.2718 -0.0237  0.3824
  152SAPE  H15Y16910   5.858   4.763   8.142  0.1856  0.6118  1.2107
  152SAPE  C31616911   5.976   4.637   8.268 -0.0914  0.6282  0.2175
  152SAPE  H16X16912   6.055   4.609   8.195 -0.1357  1.3032 -0.0900
  152SAPE  H16Y16913   5.964   4.540   8.321 -2.0958  0.9855  0.4515
  152SAPE  C31716914   6.027   4.752   8.347 -0.8407  0.7670 -0.8423
  152SAPE  H17X16915   6.062   4.832   8.277  1.3921  1.0976  0.5984
  152SAPE  H17Y16916   6.115   4.715   8.403 -1.1053  0.2700 -0.7601
  152SAPE  C31816917   5.930   4.818   8.445  0.2241  0.4709 -0.6809
  152SAPE  H18X16918   5.974   4.916   8.472  1.9125 -1.2173  3.0943
  152SAPE  H18Y16919   5.911   4.757   8.536 -2.1760 -1.5225 -2.4338
  152SAPE  H18Z16920   5.832   4.834   8.396 -0.9040  2.0675  1.9773
  153SAPE     N16921   2.061   5.860   6.290  0.3251 -0.7237 -0.4992
  153SAPE   HN116922   2.021   5.832   6.198  2.0370 -0.4105 -1.3529
  153SAPE   HN216923   1.998   5.937   6.322 -0.1639 -1.2285 -0.2379
  153SAPE   HN316924   2.153   5.907   6.277  0.5281 -0.2091  2.4113
  153SAPE   C1216925   2.086   5.744   6.377  0.8810  0.5598  0.9488
  153SAPE  H12A16926   1.991   5.703   6.417  1.6522 -1.8875  0.3390
  153SAPE  H12B16927   2.146   5.760   6.468  3.2885  0.9207 -0.6488
  153SAPE   C1116928   2.155   5.631   6.294 -0.3997  0.1139  0.0650
  153SAPE  H11A16929   2.092   5.597   6.208  0.6100  0.4730 -0.8282
  153SAPE  H11B16930   2.156   5.540   6.358  0.8568 -0.1385 -0.3160
  153SAPE     P16931   2.403   5.584   6.276  0.1185 -0.0225  0.1922
  153SAPE   O1316932   2.372   5.455   6.216  0.3662 -0.0686  0.1160
  153SAPE   O1416933   2.523   5.657   6.223  0.0961 -0.1696  0.0510
  153SAPE   O1216934   2.280   5.676   6.241 -0.2863 -0.3459  0.3248
  153SAPE   O1116935   2.399   5.577   6.434 -0.3763 -0.1276  1.0007
  153SAPE    C116936   2.444   5.680   6.519 -1.1196 -0.4176  0.0423
  153SAPE    HA16937   2.427   5.783   6.480  0.3175  1.0272  3.0253
  153SAPE    HB16938   2.407   5.675   6.624 -1.7199 -0.0551 -0.1538
  153SAPE    C216939   2.603   5.657   6.535 -0.1504 -0.1769  0.1090
  153SAPE    HS16940   2.642   5.666   6.431 -0.8722 -0.1406 -0.1633
  153SAPE   O2116941   2.628   5.519   6.576  0.3067  0.0964  0.0976
  153SAPE   C2116942   2.744   5.474   6.547 -0.0497  1.4572 -0.2646
  153SAPE   O2216943   2.835   5.534   6.491 -0.5141 -0.8881 -0.0111
  153SAPE   C2216944   2.751   5.331   6.601 -0.2799 -0.4878  0.1115
  153SAPE   H2R16945   2.649   5.289   6.607 -0.2356 -0.7336 -0.8133
  153SAPE   H2S16946   2.798   5.267   6.523  0.0813 -2.2358  1.7170
  153SAPE    C316947   2.654   5.763   6.635 -0.2707 -0.4131 -1.1015
  153SAPE    HX16948   2.612   5.858   6.597  1.1054  1.0507  0.9343
  153SAPE    HY16949   2.764   5.766   6.618 -0.1098 -1.4304 -0.3276
  153SAPE   O3116950   2.620   5.736   6.774  0.1639  0.1207 -0.4972
  153SAPE   C3116951   2.528   5.816   6.827 -0.6669 -0.0253 -0.0553
  153SAPE   O3216952   2.467   5.895   6.758 -0.7983 -0.7448  0.5511
  153SAPE   C3216953   2.517   5.787   6.971 -0.0287 -0.2842 -0.7606
  153SAPE   H2X16954   2.599   5.719   7.002 -1.5313 -0.7881  2.2898
  153SAPE   H2Y16955   2.417   5.742   6.989  0.0348 -0.5444 -1.0648
  153SAPE   C2316956   2.816   5.321   6.731 -0.8645  0.6535 -1.1831
  153SAPE   H3R16957   2.800   5.412   6.792  0.1958 -0.1139  0.2908
  153SAPE   H3S16958   2.925   5.319   6.709 -0.4505 -0.9874  0.8791
  153SAPE   C2416959   2.769   5.209   6.815  0.8153  0.4998  0.1299
  153SAPE   H4R16960   2.658   5.202   6.804  0.3765  0.2918  3.9895
  153SAPE   H4S16961   2.798   5.225   6.922  0.3669 -1.9060  0.6369
  153SAPE   C2516962   2.832   5.081   6.785  0.6708  0.2196 -0.2459
  153SAPE   H5R16963   2.873   5.075   6.683 -0.8093  0.0698 -0.8368
  153SAPE   C2616964   2.843   4.975   6.868 -0.8395 -0.1042 -0.5587
  153SAPE   H6R16965   2.867   4.879   6.820  0.1875  0.7720 -1.8178
  153SAPE   C2716966   2.784   4.968   7.001 -0.3852  0.4184 -0.5555
  153SAPE   H7R16967   2.713   4.884   7.009  0.9750 -0.4716  3.2534
  153SAPE   H7S16968   2.719   5.055   7.027 -0.0766  0.6257 -0.4680
  153SAPE   C2816969   2.891   4.957   7.104 -1.0649  0.3927  0.1788
  153SAPE   H8R16970   2.986   4.923   7.058  0.0235  0.3004  2.4255
  153SAPE   C2916971   2.893   4.990   7.232  0.5439  0.4849  0.0886
  153SAPE   H9R16972   2.985   4.971   7.289 -0.4806 -0.6065  1.4256
  153SAPE  C21016973   2.775   5.045   7.311 -0.7979  0.5589  0.3830
  153SAPE  H10R16974   2.768   4.982   7.402  0.7461 -0.4332 -0.1773
  153SAPE  H10S16975   2.678   5.009   7.268 -0.9067  2.0133 -0.6288
  153SAPE  C21116976   2.767   5.190   7.343 -0.1903  0.3781 -0.9252
  153SAPE  H11R16977   2.768   5.249   7.250  1.1034  0.3068 -0.9678
  153SAPE  C21216978   2.753   5.243   7.463  0.7419 -0.3529  0.0767
  153SAPE  H12R16979   2.753   5.352   7.476 -1.8096 -0.1640 -1.0998
  153SAPE  C21316980   2.736   5.171   7.595  0.5101 -1.0617 -0.4290
  153SAPE  H13R16981   2.682   5.075   7.585 -1.4257 -0.2460  1.6547
  153SAPE  H13S16982   2.676   5.237   7.662 -1.0909 -0.5648 -2.3152
  153SAPE  C21416983   2.864   5.127   7.668 -0.3599 -0.7945  0.7690
  153SAPE  H14R16984   2.933   5.056   7.621  1.7464  0.5961  1.6925
  153SAPE  C21516985   2.903   5.177   7.785  1.1679  0.2316 -0.4992
  153SAPE  H15R16986   2.999   5.136   7.821  0.7516  0.9909  1.6031
  153SAPE  C21616987   2.834   5.281   7.864 -0.3578  0.0626 -0.7457
  153SAPE  H16R16988   2.759   5.250   7.941 -0.5388  2.4060  0.0710
  153SAPE  H16S16989   2.779   5.356   7.803 -3.3877 -1.5582 -0.1031
  153SAPE  C21716990   2.929   5.355   7.959 -0.5210  0.5099  0.3217
  153SAPE  H17R16991   3.015   5.405   7.908  0.2202 -0.8529  0.2131
  153SAPE  H17S16992   2.974   5.273   8.020  1.1601  0.2037 -1.2666
  153SAPE  C21816993   2.873   5.455   8.048  1.1927  0.0435  0.0220
  153SAPE  H18R16994   2.784   5.414   8.101  0.0597  2.7387  0.2895
  153SAPE  H18S16995   2.828   5.533   7.982 -0.8897 -2.2862 -1.4424
  153SAPE  C21916996   2.964   5.502   8.156 -0.1527 -0.1976 -0.1330
  153SAPE  H19R16997   3.046   5.570   8.123 -0.0858  0.5920  1.6090
  153SAPE  H19S16998   3.003   5.411   8.207 -0.2138 -0.4321 -0.5069
  153SAPE  C22016999   2.897   5.573   8.273  0.0136  0.0762  0.0654
  153SAPE  H20R17000   2.959   5.577   8.365 -1.1800 -0.5467  0.9002
  153SAPE  H20S17001   2.792   5.541   8.289 -0.4544  2.3239  1.6621
  153SAPE  H20T17002   2.879   5.678   8.240 -0.9119  0.1665  0.8528
  153SAPE   C3317003   2.516   5.914   7.060  0.1898  0.1118 -0.1228
  153SAPE   H3X17004   2.444   5.984   7.013  1.2737 -0.2529 -2.4037
  153SAPE   H3Y17005   2.608   5.976   7.061 -0.5939  1.2818 -0.3464
  153SAPE   C3417006   2.478   5.891   7.207 -0.0943 -1.3156 -0.4736
  153SAPE   H4X17007   2.555   5.836   7.265  1.3628  0.6016 -0.5375
  153SAPE   H4Y17008   2.375   5.850   7.212 -0.9524  0.8928  0.1964
  153SAPE   C3517009   2.460   6.030   7.282  0.1079 -0.9884  0.2887
  153SAPE   H5X17010   2.384   6.080   7.218 -0.5139 -1.3253  0.7621
  153SAPE   H5Y17011   2.553   6.090   7.271 -1.4518  1.7235  1.4572
  153SAPE   C3617012   2.417   6.026   7.431 -0.4513 -0.2172  0.2320
  153SAPE   H6X17013   2.322   5.970   7.442 -0.0354 -1.3290 -1.5734
  153SAPE   H6Y17014   2.403   6.123   7.483 -1.4881  0.6751 -1.6491
  153SAPE   C3717015   2.511   5.942   7.520  0.2229 -0.2975  0.1444
  153SAPE   H7X17016   2.566   5.865   7.463  2.4977  0.6572  1.0135
  153SAPE   H7Y17017   2.448   5.889   7.595 -1.7022 -0.6049 -1.6391
  153SAPE   C3817018   2.609   6.034   7.590 -0.7414 -0.0744  0.9086
  153SAPE   H8X17019   2.561   6.130   7.618 -1.2869 -0.8113  2.5294
  153SAPE   H8Y17020   2.704   6.050   7.535 -1.0916 -1.9988 -0.3222
  153SAPE   C3917021   2.660   5.960   7.710 -0.5758  0.2825 -0.7994
  153SAPE   H9X17022   2.679   5.854   7.683 -0.9676  0.1374 -0.5174
  153SAPE   H9Y17023   2.582   5.969   7.789 -0.1381 -0.0452 -0.3246
  153SAPE  C31017024   2.776   6.022   7.780 -0.2930 -0.8163  0.8046
  153SAPE  H10X17025   2.755   6.130   7.793  1.4989 -0.2538 -0.5929
  153SAPE  H10Y17026   2.869   6.024   7.718 -1.1764  1.2962 -0.5016
  153SAPE  C31117027   2.792   5.953   7.911 -0.3037  0.3063 -0.4155
  153SAPE  H11X17028   2.774   5.844   7.896 -0.1266  0.0801  0.9360
  153SAPE  H11Y17029   2.711   5.998   7.971 -0.4086 -0.9087  0.3767
  153SAPE  C31217030   2.934   5.975   7.969  0.6870  0.5838 -0.4303
  153SAPE  H12X17031   2.940   6.083   7.992 -3.1496  0.9191 -0.7859
  153SAPE  H12Y17032   3.003   5.943   7.888 -1.7443 -2.5803 -1.3804
  153SAPE  C31317033   2.963   5.885   8.081  0.4729 -0.1182 -0.2150
  153SAPE  H13X17034   2.979   5.777   8.062 -1.1041 -0.4619  0.3708
  153SAPE  H13Y17035   2.893   5.894   8.166 -0.1988 -1.1201 -0.6550
  153SAPE  C31417036   3.102   5.927   8.146 -0.4733 -0.0286 -0.2799
  153SAPE  H14X17037   3.092   6.034   8.174 -0.0487 -0.3170  1.0001
  153SAPE  H14Y17038   3.181   5.906   8.070 -0.3247 -0.4993  0.0032
  153SAPE  C31517039   3.145   5.830   8.263  0.0038  0.4704  0.9316
  153SAPE  H15X17040   3.255   5.814   8.261  0.2820  2.4042  0.2345
  153SAPE  H15Y17041   3.120   5.723   8.244 -0.4962  0.3967  1.9654
  153SAPE  C31617042   3.078   5.876   8.396 -0.3607  0.4391  0.6515
  153SAPE  H16X17043   2.967   5.868   8.385 -0.3582  1.3696 -0.1362
  153SAPE  H16Y17044   3.099   5.984   8.409  0.4581  0.5267 -1.2996
  153SAPE  C31717045   3.105   5.786   8.511 -0.3775 -1.0577 -0.1694
  153SAPE  H17X17046   3.108   5.679   8.482 -2.9735 -1.1229 -0.3110
  153SAPE  H17Y17047   3.020   5.791   8.583 -1.8890  2.2908 -2.0588
  153SAPE  C31817048   3.234   5.832   8.579  0.0347 -0.4373  0.7686
  153SAPE  H18X17049   3.282   5.744   8.627  2.5658  1.5776  2.0282
  153SAPE  H18Y17050   3.208   5.906   8.657 -1.5262  1.8420 -1.8085
  153SAPE  H18Z17051   3.304   5.881   8.507  1.1914  0.1659  2.2800
  154SAPE     N17052   6.669   4.996   5.877 -0.4488 -0.8344  0.1595
  154SAPE   HN117053   6.566   5.007   5.889 -0.4832 -1.1661  0.1647
  154SAPE   HN217054   6.719   5.045   5.954  2.4974 -1.0105 -1.5838
  154SAPE   HN317055   6.685   5.057   5.794 -1.8613  2.9966  2.5488
  154SAPE   C1217056   6.720   4.857   5.876 -0.1946  0.1864 -0.3346
  154SAPE  H12A17057   6.828   4.864   5.850  0.1498 -0.9233  0.7217
  154SAPE  H12B17058   6.667   4.799   5.797 -1.3432  1.9476 -0.8767
  154SAPE   C1117059   6.695   4.779   6.007 -0.0862 -0.0355 -0.1973
  154SAPE  H11A17060   6.717   4.671   5.991  0.7154  0.0532  0.2489
  154SAPE  H11B17061   6.587   4.784   6.031  0.1673  0.1331  0.9161
  154SAPE     P17062   6.893   4.747   6.182  0.4295 -0.4743 -0.3010
  154SAPE   O1317063   6.999   4.720   6.082 -0.0587 -0.8344  0.2539
  154SAPE   O1417064   6.931   4.834   6.297 -0.0975 -0.0517 -0.4181
  154SAPE   O1217065   6.776   4.824   6.112  0.2741  0.3417 -0.0172
  154SAPE   O1117066   6.822   4.619   6.227  0.4607  0.2748  0.3329
  154SAPE    C117067   6.768   4.602   6.359  0.3065  0.1807  0.4113
  154SAPE    HA17068   6.727   4.697   6.399  0.8081  1.5693 -2.2894
  154SAPE    HB17069   6.694   4.519   6.355  0.9101 -0.5042  2.4247
  154SAPE    C217070   6.868   4.535   6.458  0.1312  0.2932 -0.3875
  154SAPE    HS17071   6.804   4.500   6.542 -1.2147  0.8740 -1.1551
  154SAPE   O2117072   6.959   4.636   6.500 -0.0771 -0.0088 -0.4181
  154SAPE   C2117073   7.003   4.624   6.625  0.7575  0.3414  0.3533
  154SAPE   O2217074   6.973   4.541   6.710 -0.0977  0.7077  0.1147
  154SAPE   C2217075   7.093   4.742   6.657 -0.0174 -0.7471  0.3375
  154SAPE   H2R17076   7.149   4.771   6.565  1.4302  0.4195  1.5668
  154SAPE   H2S17077   7.023   4.825   6.679 -0.8392 -1.3909  0.2179
  154SAPE    C317078   6.926   4.409   6.393 -0.5530  0.4681  0.1364
  154SAPE    HX17079   6.981   4.439   6.301  0.1388  0.1196  0.4324
  154SAPE    HY17080   6.839   4.347   6.364  0.6414 -0.3597 -1.7463
  154SAPE   O3117081   7.018   4.344   6.481  0.2194 -0.1705 -0.2321
  154SAPE   C3117082   6.965   4.250   6.559  0.9364  0.0784  0.6810
  154SAPE   O3217083   6.843   4.236   6.573 -0.1251 -0.5064  0.4120
  154SAPE   C3217084   7.086   4.169   6.620  0.6447  0.3364  0.3261
  154SAPE   H2X17085   7.152   4.249   6.660 -0.2871  1.4053 -0.2217
  154SAPE   H2Y17086   7.133   4.114   6.536 -0.2130 -1.3044  0.8963
  154SAPE   C2317087   7.196   4.726   6.767  0.9496 -0.0720  0.3482
  154SAPE   H3R17088   7.267   4.650   6.729  0.7118  0.0124 -0.2602
  154SAPE   H3S17089   7.150   4.686   6.860  1.5619 -0.1508  0.6251
  154SAPE   C2417090   7.266   4.857   6.797  0.1582  0.2537 -0.4102
  154SAPE   H4R17091   7.278   4.912   6.701  4.2419 -0.5085 -0.4362
  154SAPE   H4S17092   7.369   4.843   6.838  0.5511 -1.8055 -2.0029
  154SAPE   C2517093   7.185   4.940   6.897 -0.1119  0.0939  0.1953
  154SAPE   H5R17094   7.113   5.008   6.849  2.1880  3.0979  0.8945
  154SAPE   C2617095   7.197   4.951   7.030  0.7696  0.5432 -0.1227
  154SAPE   H6R17096   7.134   5.025   7.083 -1.0194 -2.4885  2.1182
  154SAPE   C2717097   7.284   4.875   7.122  0.2581 -0.0961 -0.2008
  154SAPE   H7R17098   7.322   4.785   7.068 -1.1303 -1.7878  1.5623
  154SAPE   H7S17099   7.213   4.838   7.198  0.4547 -0.7314 -0.3144
  154SAPE   C2817100   7.398   4.952   7.186 -0.2450  0.0341  0.0756
  154SAPE   H8R17101   7.432   5.040   7.130  0.0779 -0.3297 -0.3093
  154SAPE   C2917102   7.462   4.932   7.303  0.7861 -0.3860  0.0973
  154SAPE   H9R17103   7.545   5.000   7.325  0.8431 -0.5225  0.3074
  154SAPE  C21017104   7.445   4.815   7.397  0.0619  0.1886 -0.0849
  154SAPE  H10R17105   7.531   4.792   7.464  1.7873  0.2666 -2.2330
  154SAPE  H10S17106   7.452   4.729   7.328  3.7378 -1.1656  1.8325
  154SAPE  C21117107   7.314   4.798   7.469  0.3037  0.2042 -0.1140
  154SAPE  H11R17108   7.226   4.834   7.413 -1.9349 -0.2712  2.9677
  154SAPE  C21217109   7.302   4.748   7.592  0.3709 -0.3933  0.3443
  154SAPE  H12R17110   7.205   4.750   7.643  0.0584 -1.9444 -0.1706
  154SAPE  C21317111   7.410   4.682   7.671 -0.5562 -0.1948 -0.4836
  154SAPE  H13R17112   7.444   4.608   7.595  0.4748  0.2323 -0.4551
  154SAPE  H13S17113   7.364   4.628   7.756  0.1147  0.4965  0.3312
  154SAPE  C21417114   7.529   4.761   7.730  0.3457  0.2289 -0.0890
  154SAPE  H14R17115   7.631   4.753   7.689  0.5208  1.1008  0.1588
  154SAPE  C21517116   7.527   4.844   7.835  0.4899 -0.9063  0.1669
  154SAPE  H15R17117   7.616   4.899   7.871  1.6630 -0.2062 -3.5240
  154SAPE  C21617118   7.401   4.857   7.919  0.1587  0.1618  0.0817
  154SAPE  H16R17119   7.338   4.765   7.920 -1.5009  1.2681  0.4538
  154SAPE  H16S17120   7.334   4.933   7.875  1.9034  1.3821 -0.5153
  154SAPE  C21717121   7.430   4.889   8.061  0.2051 -0.0854 -0.7500
  154SAPE  H17R17122   7.336   4.896   8.120 -0.3214  1.8766 -1.7773
  154SAPE  H17S17123   7.477   4.990   8.064 -0.0592  0.1367 -3.2165
  154SAPE  C21817124   7.528   4.792   8.130  0.5713 -0.0922  0.2696
  154SAPE  H18R17125   7.615   4.783   8.061 -0.8937 -0.8839 -1.5157
  154SAPE  H18S17126   7.477   4.693   8.134  0.8748 -0.3138 -1.0065
  154SAPE  C21917127   7.583   4.834   8.267 -0.8585  0.1510  0.0961
  154SAPE  H19R17128   7.627   4.936   8.263  0.5940 -0.3687  2.0719
  154SAPE  H19S17129   7.670   4.767   8.285 -1.2489 -0.6285 -0.8810
  154SAPE  C22017130   7.475   4.827   8.372  0.4001 -0.2626 -0.2563
  154SAPE  H20R17131   7.447   4.721   8.391  0.7931 -0.2976  0.1230
  154SAPE  H20S17132   7.384   4.876   8.331 -1.6410 -2.9852  0.8646
  154SAPE  H20T17133   7.504   4.875   8.467 -0.4842  0.9557 -0.5870
  154SAPE   C3317134   7.042   4.065   6.735  0.2218  0.0434 -0.1802
  154SAPE   H3X17135   7.131   4.001   6.753 -2.0628 -2.9573  0.8769
  154SAPE   H3Y17136   6.962   3.995   6.701 -1.4809  1.0588  1.6153
  154SAPE   C3417137   6.997   4.134   6.871 -0.0800 -0.5431  0.3704
  154SAPE   H4X17138   6.910   4.196   6.839  0.3202 -0.3325 -0.3286
  154SAPE   H4Y17139   7.077   4.201   6.908 -0.0100 -1.0107  1.0835
  154SAPE   C3517140   6.971   4.026   6.971 -0.1597 -0.3045  0.8355
  154SAPE   H5X17141   7.057   3.957   6.986  0.0565  0.2603  2.2319
  154SAPE   H5Y17142   6.882   3.965   6.942  0.6668 -2.1597  2.0959
  154SAPE   C3617143   6.950   4.087   7.111  0.7263 -0.0362  0.0791
  154SAPE   H6X17144   6.906   4.188   7.098  0.4213  0.0813  1.8610
  154SAPE   H6Y17145   7.049   4.119   7.150  0.2446 -0.1469  1.4158
  154SAPE   C3717146   6.897   3.988   7.216 -0.1398  0.0718 -0.0755
  154SAPE   H7X17147   6.970   3.908   7.238  0.1744  0.4623  0.3037
  154SAPE   H7Y17148   6.807   3.937   7.175 -0.3376 -0.9972  1.6334
  154SAPE   C3817149   6.874   4.062   7.350  0.6406  0.4369  0.0070
  154SAPE   H8X17150   6.771   4.101   7.361  1.2060  1.6075  1.3342
  154SAPE   H8Y17151   6.942   4.149   7.336  1.6913 -0.2520  0.7494
  154SAPE   C3917152   6.925   3.985   7.467  0.3060 -0.6438 -0.0424
  154SAPE   H9X17153   6.937   4.061   7.547  0.7052 -1.1299  0.3581
  154SAPE   H9Y17154   7.019   3.927   7.453  0.5881 -0.1003 -0.4201
  154SAPE  C31017155   6.823   3.881   7.521 -0.3189  0.2864 -0.1763
  154SAPE  H10X17156   6.855   3.840   7.619  4.2875  1.6747 -0.9619
  154SAPE  H10Y17157   6.813   3.798   7.447  0.4954 -0.2842  0.3520
  154SAPE  C31117158   6.680   3.933   7.547  0.1743  0.5506  0.1742
  154SAPE  H11X17159   6.613   3.848   7.574  1.2216 -0.0277  0.9985
  154SAPE  H11Y17160   6.638   3.971   7.451  0.4842 -3.0681 -1.4451
  154SAPE  C31217161   6.674   4.047   7.644  0.3131  0.9400 -0.0422
  154SAPE  H12X17162   6.739   4.129   7.607  0.3016  0.5978 -0.8205
  154SAPE  H12Y17163   6.711   4.014   7.744  0.3027  0.7170 -0.1119
  154SAPE  C31317164   6.531   4.110   7.673  0.4752 -0.8214 -0.1613
  154SAPE  H13X17165   6.493   4.133   7.572 -1.0733 -2.4792  0.0329
  154SAPE  H13Y17166   6.541   4.211   7.719  1.0337 -0.2092 -1.6117
  154SAPE  C31417167   6.418   4.025   7.744  0.3949  0.1620  0.4873
  154SAPE  H14X17168   6.441   3.920   7.717 -0.4646 -0.5163  2.2692
  154SAPE  H14Y17169   6.327   4.051   7.684  1.6900  0.7323 -1.2628
  154SAPE  C31517170   6.409   4.056   7.893  0.3670  0.4565  0.5452
  154SAPE  H15X17171   6.342   3.985   7.948  0.5061  2.5361  3.5497
  154SAPE  H15Y17172   6.383   4.163   7.909  1.8242  0.8759  0.1768
  154SAPE  C31617173   6.536   4.028   7.975 -0.4770 -0.8840  0.5673
  154SAPE  H16X17174   6.617   4.097   7.944 -1.7467  1.7134  2.8524
  154SAPE  H16Y17175   6.583   3.927   7.966  0.3911 -0.4504  0.1580
  154SAPE  C31717176   6.521   4.053   8.128 -0.1288 -0.3923 -0.5786
  154SAPE  H17X17177   6.446   3.983   8.170 -0.4837  0.5615  0.3881
  154SAPE  H17Y17178   6.476   4.154   8.128 -1.7964 -1.1223 -1.1246
  154SAPE  C31817179   6.654   4.048   8.206 -0.8458  0.6102  0.0676
  154SAPE  H18X17180   6.713   3.956   8.188 -2.8987 -0.4514 -1.5414
  154SAPE  H18Y17181   6.626   4.039   8.314  0.4864  0.1900  0.3919
  154SAPE  H18Z17182   6.721   4.135   8.193 -1.8555  1.4257  0.2091
  155SAPE     N17183   6.681   5.011   6.340 -0.1196  0.0059  0.6703
  155SAPE   HN117184   6.676   5.084   6.267  3.0279 -0.2306  0.1637
  155SAPE   HN217185   6.768   4.957   6.320  0.2019  0.9073 -0.4339
  155SAPE   HN317186   6.605   4.942   6.324  0.8950 -1.5986  2.5213
  155SAPE   C1217187   6.685   5.067   6.481 -0.3955 -0.2798  0.3282
  155SAPE  H12A17188   6.616   5.006   6.543 -0.4741  0.5075  1.0287
  155SAPE  H12B17189   6.645   5.170   6.471 -0.6337 -0.7194 -4.1741
  155SAPE   C1117190   6.824   5.074   6.551 -0.4849 -0.0979 -0.0300
  155SAPE  H11A17191   6.849   4.966   6.563 -0.6488 -0.1215  0.1018
  155SAPE  H11B17192   6.818   5.133   6.645 -1.3296  1.0220 -0.7789
  155SAPE     P17193   6.941   5.275   6.427  0.2597  0.1759  0.4107
  155SAPE   O1317194   7.065   5.299   6.352 -0.2946 -0.1612 -0.3870
  155SAPE   O1417195   6.817   5.318   6.361  0.1028  0.3297  0.7356
  155SAPE   O1217196   6.932   5.127   6.468 -0.1053  0.7463  0.0672
  155SAPE   O1117197   6.951   5.346   6.566  0.7214  0.1336  0.4047
  155SAPE    C117198   7.040   5.308   6.676  0.1926 -0.0521 -0.1551
  155SAPE    HA17199   6.996   5.359   6.765 -2.6880 -2.3404 -0.1994
  155SAPE    HB17200   7.032   5.198   6.693  0.8505 -0.8393 -4.4823
  155SAPE    C217201   7.197   5.336   6.656  0.7407 -0.8165 -0.4647
  155SAPE    HS17202   7.239   5.292   6.562 -0.1987 -0.1220 -1.2068
  155SAPE   O2117203   7.265   5.270   6.770 -0.2293 -0.3147  0.9950
  155SAPE   C2117204   7.399   5.290   6.771  0.7489 -0.3485 -0.2536
  155SAPE   O2217205   7.470   5.312   6.676  0.4473  0.0706  0.1065
  155SAPE   C2217206   7.439   5.249   6.908  0.1588 -0.3051 -0.7541
  155SAPE   H2R17207   7.406   5.143   6.915  1.9799 -0.8299  0.3801
  155SAPE   H2S17208   7.549   5.261   6.913 -0.0753  2.0580 -0.5773
  155SAPE    C317209   7.206   5.496   6.659  0.8206 -0.0153 -0.2715
  155SAPE    HX17210   7.138   5.537   6.581  0.7134  3.1654  1.4013
  155SAPE    HY17211   7.308   5.528   6.627  0.3985  1.3294 -0.3389
  155SAPE   O3117212   7.181   5.541   6.787  0.0512 -0.3776  0.1860
  155SAPE   C3117213   7.132   5.659   6.804 -0.2620 -0.2866 -0.6218
  155SAPE   O3217214   7.112   5.744   6.726  0.3133 -0.0643  0.2828
  155SAPE   C3217215   7.127   5.693   6.954 -0.3971  0.0118 -0.3014
  155SAPE   H2X17216   7.235   5.691   6.984 -0.3116  0.2140 -0.5987
  155SAPE   H2Y17217   7.078   5.604   6.998  1.1704  0.8652  3.3166
  155SAPE   C2317218   7.377   5.344   7.010  0.1787 -0.0603  0.7049
  155SAPE   H3R17219   7.267   5.327   7.021  0.0500  0.1741 -0.1732
  155SAPE   H3S17220   7.406   5.446   6.978  1.1431 -1.1181 -1.9433
  155SAPE   C2417221   7.434   5.347   7.153 -0.1421  0.3449  0.1155
  155SAPE   H4R17222   7.536   5.383   7.129  0.5515 -1.1896  0.7419
  155SAPE   H4S17223   7.442   5.244   7.194 -0.0021  1.1902  2.3155
  155SAPE   C2517224   7.387   5.444   7.263  0.9120 -0.8973  0.1190
  155SAPE   H5R17225   7.304   5.515   7.246  1.2395 -0.3281  0.8851
  155SAPE   C2617226   7.444   5.445   7.382  0.3768  0.0137  0.3126
  155SAPE   H6R17227   7.406   5.508   7.464  0.6888 -0.0860  0.5348
  155SAPE   C2717228   7.555   5.359   7.434  0.4455  0.6864 -0.2112
  155SAPE   H7R17229   7.616   5.424   7.500  0.0229 -0.1127  0.9723
  155SAPE   H7S17230   7.625   5.316   7.359  0.4223 -0.6398  0.5121
  155SAPE   C2817231   7.498   5.254   7.523  0.0240 -0.3590  0.1690
  155SAPE   H8R17232   7.412   5.198   7.482  1.3431 -1.8600 -0.5843
  155SAPE   C2917233   7.523   5.226   7.651  0.4332 -0.7116  0.6320
  155SAPE   H9R17234   7.456   5.152   7.697 -1.7470  1.6649  1.3563
  155SAPE  C21017235   7.622   5.288   7.750 -0.0308 -0.2398  0.2220
  155SAPE  H10R17236   7.677   5.371   7.701 -4.0934  1.0826 -2.4178
  155SAPE  H10S17237   7.701   5.220   7.787  2.2536  0.9891 -2.2770
  155SAPE  C21117238   7.563   5.364   7.868  0.6857  0.3548  1.0401
  155SAPE  H11R17239   7.483   5.437   7.850  0.4508 -0.4428 -1.1877
  155SAPE  C21217240   7.602   5.362   7.998 -0.5370 -0.1219  0.4500
  155SAPE  H12R17241   7.546   5.429   8.065 -0.2907 -0.7203  1.2538
  155SAPE  C21317242   7.723   5.289   8.054 -0.4498  0.2127  0.0068
  155SAPE  H13R17243   7.797   5.270   7.973  0.2213  0.7629  0.4845
  155SAPE  H13S17244   7.679   5.191   8.085 -1.1973  0.8839  1.0925
  155SAPE  C21417245   7.791   5.346   8.176 -0.4183  0.1984 -0.0109
  155SAPE  H14R17246   7.776   5.455   8.178 -0.0127  0.2424  1.5418
  155SAPE  C21517247   7.867   5.279   8.268 -0.2381 -0.3207 -0.0199
  155SAPE  H15R17248   7.923   5.330   8.348  1.3155 -1.8009 -0.1358
  155SAPE  C21617249   7.902   5.128   8.270 -0.3855  0.2647  0.2408
  155SAPE  H16R17250   8.012   5.128   8.254 -0.4074 -0.0062  0.0848
  155SAPE  H16S17251   7.854   5.070   8.189  0.2606  0.3590 -0.2214
  155SAPE  C21717252   7.850   5.061   8.396 -0.3117 -1.1112  0.1158
  155SAPE  H17R17253   7.739   5.048   8.392 -0.3897  0.1365 -2.7185
  155SAPE  H17S17254   7.886   5.118   8.484  0.1257 -0.2310 -0.6330
  155SAPE  C21817255   7.914   4.925   8.423  1.1108 -0.7156 -0.2566
  155SAPE  H18R17256   8.025   4.932   8.423  0.9830  2.1117  1.8979
  155SAPE  H18S17257   7.891   4.851   8.344  2.7086 -1.1570 -0.3308
  155SAPE  C21917258   7.858   4.870   8.563 -0.0821 -0.2315 -0.1637
  155SAPE  H19R17259   7.748   4.863   8.555 -0.3936 -1.4127  3.8349
  155SAPE  H19S17260   7.884   4.944   8.643 -0.7324 -2.3084  2.0259
  155SAPE  C22017261   7.903   4.725   8.589  0.7474  0.0194 -0.6285
  155SAPE  H20R17262   8.010   4.720   8.560  0.7359  1.6237 -0.9816
  155SAPE  H20S17263   7.835   4.663   8.528  0.4886 -0.0831 -0.2409
  155SAPE  H20T17264   7.887   4.694   8.695 -0.3852 -2.9960 -1.6507
  155SAPE   C3317265   7.044   5.816   6.994  0.4552 -0.1425  0.3154
  155SAPE   H3X17266   6.948   5.803   6.940 -0.2365  1.7489  1.0648
  155SAPE   H3Y17267   7.079   5.905   6.938  0.7134  0.2046  1.0219
  155SAPE   C3417268   7.034   5.842   7.144 -0.3964  0.0224 -0.1180
  155SAPE   H4X17269   6.964   5.926   7.157  0.2597  0.7393 -1.1123
  155SAPE   H4Y17270   7.134   5.860   7.190 -0.3136 -0.5011 -0.0903
  155SAPE   C3517271   6.984   5.715   7.221 -0.2398  0.5024 -0.1275
  155SAPE   H5X17272   7.068   5.643   7.226 -0.8865 -0.3039 -0.6903
  155SAPE   H5Y17273   6.902   5.662   7.168 -1.0633  1.9993 -0.3781
  155SAPE   C3617274   6.944   5.736   7.358  0.1490  0.0109 -0.4658
  155SAPE   H6X17275   6.916   5.633   7.389 -0.3234 -0.5088 -2.5406
  155SAPE   H6Y17276   6.854   5.799   7.375  0.7011 -0.0947  3.3498
  155SAPE   C3717277   7.057   5.794   7.444  0.3752  0.3936  0.4631
  155SAPE   H7X17278   7.101   5.883   7.395 -0.5487 -0.4521 -1.9830
  155SAPE   H7Y17279   7.130   5.713   7.465  0.2441  0.2389  0.3151
  155SAPE   C3817280   7.024   5.841   7.584 -0.8075 -0.4076  0.3585
  155SAPE   H8X17281   6.933   5.906   7.585 -1.3081 -1.1189  1.8624
  155SAPE   H8Y17282   7.109   5.905   7.615  0.9585 -1.8225 -1.4113
  155SAPE   C3917283   7.014   5.717   7.674 -0.5557  0.2205  0.2798
  155SAPE   H9X17284   7.119   5.679   7.675 -0.6418 -0.0456 -0.3618
  155SAPE   H9Y17285   6.944   5.648   7.621  0.0896 -1.4428  1.5321
  155SAPE  C31017286   6.983   5.756   7.812 -0.4092  0.0415 -0.1023
  155SAPE  H10X17287   6.886   5.809   7.813 -0.3746  0.1067 -0.3062
  155SAPE  H10Y17288   7.055   5.839   7.829  1.6671 -1.2565 -2.2932
  155SAPE  C31117289   6.996   5.652   7.925 -0.0182  0.2778 -0.0575
  155SAPE  H11X17290   7.103   5.624   7.919 -0.0946  0.3114 -2.1452
  155SAPE  H11Y17291   6.941   5.561   7.894  1.1532 -0.0500 -1.2275
  155SAPE  C31217292   6.963   5.703   8.068 -0.3962  0.2523  0.1391
  155SAPE  H12X17293   6.856   5.692   8.096  0.1875 -2.7532  1.3738
  155SAPE  H12Y17294   6.985   5.812   8.068  1.0345 -0.0271 -0.5240
  155SAPE  C31317295   7.044   5.650   8.189 -0.0830 -0.0258  0.3961
  155SAPE  H13X17296   7.153   5.654   8.168 -0.2281  3.3531 -0.0700
  155SAPE  H13Y17297   7.018   5.542   8.198 -2.3842  0.4478 -0.1449
  155SAPE  C31417298   7.006   5.720   8.320  0.6440  0.3895  0.1924
  155SAPE  H14X17299   7.024   5.644   8.399  0.9246 -1.5562 -1.6679
  155SAPE  H14Y17300   6.895   5.730   8.318  0.6729  0.8825  0.8375
  155SAPE  C31517301   7.076   5.857   8.342  0.0069  0.4531  0.2484
  155SAPE  H15X17302   7.036   5.925   8.263  0.5605  1.5306  0.8910
  155SAPE  H15Y17303   7.185   5.847   8.322  0.4845  0.2638  2.8670
  155SAPE  C31617304   7.049   5.914   8.481  0.0243 -0.2850  0.5185
  155SAPE  H16X17305   7.098   5.838   8.546  2.1785  0.2818 -0.3964
  155SAPE  H16Y17306   6.940   5.921   8.501  0.0313 -1.4322  1.0365
  155SAPE  C31717307   7.110   6.054   8.513  0.2975  0.4023 -0.3284
  155SAPE  H17X17308   7.086   6.115   8.423  0.0722 -0.3509 -0.7895
  155SAPE  H17Y17309   7.219   6.036   8.524 -0.3343 -2.0675  2.6774
  155SAPE  C31817310   7.061   6.121   8.637 -0.5057 -0.2029 -0.2529
  155SAPE  H18X17311   7.039   6.045   8.715  0.6994  0.4778  0.7727
  155SAPE  H18Y17312   6.966   6.174   8.615  0.0156  1.8211  2.1175
  155SAPE  H18Z17313   7.142   6.190   8.672 -1.3310  1.6355 -1.8992
  156SAPE     N17314   5.275   6.091   6.652  0.3134 -0.2877 -0.2746
  156SAPE   HN117315   5.350   6.058   6.589  0.9563 -1.0329  0.8556
  156SAPE   HN217316   5.300   6.073   6.751  0.8192  0.9535 -0.1712
  156SAPE   HN317317   5.187   6.039   6.629 -0.2534  0.7970 -0.6051
  156SAPE   C1217318   5.256   6.238   6.628 -0.1139  0.0594  0.2481
  156SAPE  H12A17319   5.354   6.290   6.619 -0.3488  0.5062  0.3119
  156SAPE  H12B17320   5.220   6.274   6.726  0.2223 -0.8552  0.7195
  156SAPE   C1117321   5.153   6.270   6.521 -0.5071 -0.2017  0.1336
  156SAPE  H11A17322   5.202   6.249   6.424  0.6004  3.1408 -0.0899
  156SAPE  H11B17323   5.131   6.379   6.519 -1.5738 -0.3673  1.6700
  156SAPE     P17324   4.925   6.207   6.435 -0.1031  0.1069 -0.2645
  156SAPE   O1317325   4.858   6.341   6.427  0.4007  0.0049  0.1628
  156SAPE   O1417326   4.988   6.156   6.304  0.5059 -0.0141 -0.0699
  156SAPE   O1217327   5.029   6.199   6.556 -0.3756  1.0691  0.1705
  156SAPE   O1117328   4.820   6.088   6.473 -0.4313  0.1047 -0.0635
  156SAPE    C117329   4.719   6.104   6.574  0.1932 -0.1141  0.6227
  156SAPE    HA17330   4.655   6.194   6.561  0.1474 -0.4204 -1.3183
  156SAPE    HB17331   4.658   6.011   6.572 -0.2938  0.2365 -1.0005
  156SAPE    C217332   4.772   6.094   6.725  0.3427 -0.1504 -0.6958
  156SAPE    HS17333   4.688   6.059   6.789 -1.4546  1.8247 -1.8750
  156SAPE   O2117334   4.820   6.228   6.763  0.1005  0.3373 -0.6385
  156SAPE   C2117335   4.731   6.311   6.800  0.6198  0.9398  0.2180
  156SAPE   O2217336   4.610   6.285   6.804 -0.2123 -0.2729  0.0030
  156SAPE   C2217337   4.774   6.452   6.849  0.4784 -0.0863  0.1444
  156SAPE   H2R17338   4.818   6.493   6.756 -0.5755  1.7422  0.4262
  156SAPE   H2S17339   4.683   6.512   6.867  0.3582  0.6981 -2.9216
  156SAPE    C317340   4.879   5.993   6.747  0.3401 -0.2661  0.2665
  156SAPE    HX17341   4.970   6.026   6.692  0.9754 -0.0203  1.4346
  156SAPE    HY17342   4.841   5.903   6.693  0.0307 -0.7149  1.2113
  156SAPE   O3117343   4.888   5.959   6.893 -0.3336  0.6726  0.5323
  156SAPE   C3117344   4.987   6.019   6.952 -0.0674  0.1511 -0.8236
  156SAPE   O3217345   5.083   6.065   6.898 -0.1386  0.2569 -1.0513
  156SAPE   C3217346   4.961   6.021   7.097 -0.1147  0.2512  0.2223
  156SAPE   H2X17347   4.910   5.926   7.124  0.9136 -0.1929  0.6232
  156SAPE   H2Y17348   4.878   6.095   7.104 -0.6022 -0.3081  0.4470
  156SAPE   C2317349   4.895   6.448   6.946  0.0632  0.4817  0.4393
  156SAPE   H3R17350   4.942   6.548   6.943  0.0957  0.4706  0.5406
  156SAPE   H3S17351   4.976   6.375   6.925  0.2936  0.6940  0.5986
  156SAPE   C2417352   4.851   6.436   7.093 -0.0715  0.5662  0.2501
  156SAPE   H4R17353   4.813   6.331   7.094 -1.6454  1.0982 -0.7470
  156SAPE   H4S17354   4.773   6.511   7.118  0.9563  0.9546  2.3609
  156SAPE   C2517355   4.977   6.441   7.178 -0.0642  0.2347  0.1731
  156SAPE   H5R17356   5.067   6.476   7.126 -0.1233 -0.6352 -0.5302
  156SAPE   C2617357   4.989   6.399   7.309  0.4287 -0.7431 -0.6565
  156SAPE   H6R17358   5.076   6.406   7.376  1.7668  0.3148 -2.4585
  156SAPE   C2717359   4.873   6.347   7.398 -0.3276 -0.3468 -0.2421
  156SAPE   H7R17360   4.909   6.249   7.437  0.9291  0.9217  1.9040
  156SAPE   H7S17361   4.792   6.326   7.325 -0.4030  0.9008 -0.5222
  156SAPE   C2817362   4.811   6.426   7.507 -0.3590  0.0029 -0.4412
  156SAPE   H8R17363   4.822   6.534   7.490  1.5029  0.0870  1.1164
  156SAPE   C2917364   4.755   6.379   7.626  0.4853  0.4607  0.4786
  156SAPE   H9R17365   4.708   6.449   7.697  0.6882 -0.7386  1.8359
  156SAPE  C21017366   4.748   6.236   7.665 -0.3000 -0.6740 -0.2366
  156SAPE  H10R17367   4.788   6.170   7.586  1.7499  0.9778 -0.6148
  156SAPE  H10S17368   4.645   6.204   7.693 -0.5278 -0.4989 -0.8679
  156SAPE  C21117369   4.848   6.215   7.778 -0.1664  0.1765  0.4912
  156SAPE  H11R17370   4.950   6.207   7.738 -0.6418 -0.3964 -0.6506
  156SAPE  C21217371   4.803   6.194   7.907 -0.6191  0.4996  0.3117
  156SAPE  H12R17372   4.875   6.186   7.990 -0.0957  2.1627  0.0330
  156SAPE  C21317373   4.663   6.184   7.963 -0.0333  0.3127  0.3709
  156SAPE  H13R17374   4.655   6.120   8.053  1.1820 -0.3332  0.0307
  156SAPE  H13S17375   4.597   6.150   7.881  0.4293  0.1348  0.0697
  156SAPE  C21417376   4.609   6.317   8.008 -0.3892  0.1066  0.5179
  156SAPE  H14R17377   4.665   6.399   7.961 -2.1260 -0.3060 -2.3848
  156SAPE  C21517378   4.506   6.337   8.096  0.0380  0.1148 -0.0998
  156SAPE  H15R17379   4.480   6.440   8.126  1.8352  0.2877  0.9422
  156SAPE  C21617380   4.427   6.227   8.162 -0.7827  0.1837  1.1199
  156SAPE  H16R17381   4.440   6.240   8.272 -1.2087  0.9049  1.0865
  156SAPE  H16S17382   4.468   6.125   8.149 -0.2854  0.7277 -1.8606
  156SAPE  C21717383   4.281   6.227   8.124  0.2057  0.4823  0.3614
  156SAPE  H17R17384   4.262   6.213   8.015  2.5070 -0.4592  0.0486
  156SAPE  H17S17385   4.239   6.328   8.142  1.1905  0.8583  0.6109
  156SAPE  C21817386   4.206   6.121   8.205 -0.2222 -0.2075 -0.9660
  156SAPE  H18R17387   4.212   6.133   8.315 -0.1089  0.5723 -1.0537
  156SAPE  H18S17388   4.252   6.024   8.178  0.1644  0.2994 -2.1417
  156SAPE  C21917389   4.059   6.124   8.174 -0.3900  0.2836 -0.0326
  156SAPE  H19R17390   4.003   6.029   8.183 -0.9351  0.6573  0.5292
  156SAPE  H19S17391   4.045   6.154   8.067  0.2099 -2.0130 -0.7886
  156SAPE  C22017392   3.979   6.219   8.267 -0.1172  0.5295  0.1912
  156SAPE  H20R17393   3.977   6.187   8.373 -0.9466 -0.9368 -0.2491
  156SAPE  H20S17394   3.871   6.222   8.240  0.2228 -1.9078 -1.6668
  156SAPE  H20T17395   4.009   6.326   8.263  0.4939  0.3586  0.2245
  156SAPE   C3317396   5.087   6.043   7.189 -0.0963 -0.7538 -0.5495
  156SAPE   H3X17397   5.122   6.148   7.186  0.4333 -0.8713  0.9369
  156SAPE   H3Y17398   5.173   5.979   7.161  1.6103  1.2271  0.0055
  156SAPE   C3417399   5.057   6.006   7.331  0.5900  0.2179 -0.5030
  156SAPE   H4X17400   4.961   6.053   7.361 -1.3859 -2.9389 -1.7117
  156SAPE   H4Y17401   5.130   6.051   7.402  0.1707  0.3762 -0.1662
  156SAPE   C3517402   5.057   5.863   7.375  0.0430  0.3465 -0.0902
  156SAPE   H5X17403   5.083   5.792   7.293  0.7142 -2.0427  2.1313
  156SAPE   H5Y17404   4.965   5.828   7.426  0.2675 -0.9256 -0.5254
  156SAPE   C3617405   5.176   5.840   7.474  0.2425 -0.5144  0.1271
  156SAPE   H6X17406   5.274   5.886   7.446 -0.5030  0.1002 -1.5245
  156SAPE   H6Y17407   5.196   5.731   7.479  3.6783 -0.0260 -1.3684
  156SAPE   C3717408   5.132   5.884   7.611 -0.0047  0.5606 -0.0785
  156SAPE   H7X17409   5.029   5.846   7.626 -0.2007  0.7737 -0.8705
  156SAPE   H7Y17410   5.121   5.995   7.612  0.2225  0.5813  0.0769
  156SAPE   C3817411   5.220   5.831   7.724 -0.5102 -0.1294  0.1259
  156SAPE   H8X17412   5.325   5.861   7.701 -0.2989 -1.2870 -0.4294
  156SAPE   H8Y17413   5.224   5.720   7.715  1.3081 -0.0624 -0.1211
  156SAPE   C3917414   5.177   5.878   7.867  0.2582 -0.3323 -0.3418
  156SAPE   H9X17415   5.157   5.987   7.877 -1.2382 -0.4119 -2.1680
  156SAPE   H9Y17416   5.272   5.865   7.923  0.4538  1.7956 -0.1193
  156SAPE  C31017417   5.059   5.795   7.926 -0.1806 -0.5154 -0.3934
  156SAPE  H10X17418   5.095   5.690   7.936  0.5602 -0.0473  2.3785
  156SAPE  H10Y17419   4.972   5.795   7.856  0.6014  2.3219 -1.4213
  156SAPE  C31117420   5.008   5.852   8.066  0.1136  0.8030  1.0613
  156SAPE  H11X17421   4.914   5.795   8.085 -0.5607  1.1930 -1.0100
  156SAPE  H11Y17422   4.990   5.960   8.052 -0.3831  0.6638  0.6009
  156SAPE  C31217423   5.110   5.829   8.180  0.1870  0.2659  0.0876
  156SAPE  H12X17424   5.152   5.923   8.220  1.2081 -0.3397  0.4299
  156SAPE  H12Y17425   5.188   5.763   8.137 -0.2834  0.2775 -0.8068
  156SAPE  C31317426   5.064   5.748   8.305  0.2856 -0.6296 -0.5109
  156SAPE  H13X17427   5.157   5.733   8.364  1.0210 -1.6942 -1.9051
  156SAPE  H13Y17428   5.006   5.656   8.281 -0.0682 -1.0242  1.7307
  156SAPE  C31417429   4.966   5.828   8.394  0.2693 -0.4220 -0.3497
  156SAPE  H14X17430   4.887   5.865   8.324  0.8069  2.5785  0.5783
  156SAPE  H14Y17431   5.017   5.920   8.431  0.6403 -0.3442 -1.0429
  156SAPE  C31517432   4.920   5.736   8.506 -0.0342  0.2031  0.1606
  156SAPE  H15X17433   5.016   5.718   8.559 -0.5158 -1.8814  0.3665
  156SAPE  H15Y17434   4.879   5.640   8.469 -0.8232  0.1345  1.1960
  156SAPE  C31617435   4.827   5.819   8.606  0.9176  0.1201 -0.5483
  156SAPE  H16X17436   4.752   5.876   8.546  2.6863  1.7034 -1.2824
  156SAPE  H16Y17437   4.900   5.889   8.649 -0.7613  1.4911  0.1258
  156SAPE  C31717438   4.755   5.751   8.723 -0.1605  0.2476 -0.1142
  156SAPE  H17X17439   4.824   5.686   8.782  1.1629  0.2301 -1.6276
  156SAPE  H17Y17440   4.671   5.690   8.684 -0.6270  0.7454  0.1160
  156SAPE  C31817441   4.698   5.866   8.808 -0.5813 -0.2532  0.2348
  156SAPE  H18X17442   4.606   5.906   8.759 -1.7021  1.6461  3.7067
  156SAPE  H18Y17443   4.772   5.945   8.830  0.0781 -0.0408 -2.5414
  156SAPE  H18Z17444   4.665   5.827   8.907 -0.9778 -0.5642 -0.0168
  157SAPE     N17445   2.384   1.181   5.874 -0.8372 -0.1623 -0.4537
  157SAPE   HN117446   2.326   1.264   5.851 -1.5728 -0.6266 -0.3048
  157SAPE   HN217447   2.487   1.187   5.859 -0.9632  3.4872 -0.1045
  157SAPE   HN317448   2.354   1.107   5.807 -1.5481  0.2903 -0.6430
  157SAPE   C1217449   2.372   1.137   6.027  1.0307  0.1840 -0.5465
  157SAPE  H12A17450   2.440   1.050   6.036  0.4323 -0.3447 -1.0436
  157SAPE  H12B17451   2.269   1.096   6.040  1.8625 -1.0934  2.2923
  157SAPE   C1117452   2.397   1.253   6.127 -0.0153  0.2215  0.5484
  157SAPE  H11A17453   2.492   1.306   6.109  0.2582 -0.7691 -0.9992
  157SAPE  H11B17454   2.402   1.211   6.230  0.8434 -1.0021  0.0158
  157SAPE     P17455   2.316   1.500   6.121 -0.0154  0.0759 -0.3878
  157SAPE   O1317456   2.402   1.540   6.009  0.3007  0.1057 -0.0678
  157SAPE   O1417457   2.190   1.570   6.130 -0.1399 -0.4009  0.0001
  157SAPE   O1217458   2.285   1.344   6.112  0.1267  0.2193  0.5433
  157SAPE   O1117459   2.397   1.516   6.252  0.0538  0.4062 -0.7152
  157SAPE    C117460   2.441   1.654   6.285  0.0152 -0.3631 -0.3135
  157SAPE    HA17461   2.542   1.663   6.240 -0.3700  1.5040 -0.8449
  157SAPE    HB17462   2.375   1.736   6.249 -0.6235 -1.1005 -0.8200
  157SAPE    C217463   2.459   1.672   6.438  0.2394 -0.1236  0.2275
  157SAPE    HS17464   2.528   1.757   6.454 -0.3709  0.3801  0.2148
  157SAPE   O2117465   2.516   1.559   6.513 -0.1120  0.1236  0.2432
  157SAPE   C2117466   2.633   1.517   6.493 -0.2554  0.1683 -0.4471
  157SAPE   O2217467   2.708   1.551   6.404 -0.6073 -0.4623  0.5925
  157SAPE   C2217468   2.672   1.412   6.593 -0.9391  0.2520  0.4851
  157SAPE   H2R17469   2.585   1.359   6.638 -0.0777 -1.1512  0.5286
  157SAPE   H2S17470   2.718   1.334   6.529  2.0483  2.3734 -0.0594
  157SAPE    C317471   2.313   1.698   6.501  0.0624 -0.8951 -0.0584
  157SAPE    HX17472   2.254   1.607   6.476  0.5469 -0.5411 -2.6312
  157SAPE    HY17473   2.261   1.779   6.445 -0.7807 -2.4569 -1.5992
  157SAPE   O3117474   2.310   1.725   6.645 -0.2964  0.1402  0.3366
  157SAPE   C3117475   2.309   1.617   6.727 -0.1030 -0.2738 -0.1998
  157SAPE   O3217476   2.316   1.509   6.685 -0.3730  0.8892  0.3829
  157SAPE   C3217477   2.318   1.670   6.869 -0.0586 -1.1527  0.2524
  157SAPE   H2X17478   2.216   1.701   6.903 -0.6043 -1.4264 -1.1034
  157SAPE   H2Y17479   2.391   1.752   6.878 -0.0271 -1.1441 -0.0678
  157SAPE   C2317480   2.777   1.459   6.693  0.4150  0.2005  0.3642
  157SAPE   H3R17481   2.727   1.535   6.756 -2.0053 -0.2065 -0.9660
  157SAPE   H3S17482   2.857   1.516   6.642  0.5977  0.0517  0.4848
  157SAPE   C2417483   2.848   1.350   6.766 -0.0912  0.4206  0.1189
  157SAPE   H4R17484   2.904   1.396   6.851 -0.9552  1.6853  0.0027
  157SAPE   H4S17485   2.930   1.298   6.711 -1.3620 -2.4716  0.8409
  157SAPE   C2517486   2.760   1.241   6.822 -0.0848  0.7004  0.9205
  157SAPE   H5R17487   2.746   1.154   6.756 -2.1034  1.6804  0.0253
  157SAPE   C2617488   2.716   1.241   6.946  0.1498 -0.3995 -0.0114
  157SAPE   H6R17489   2.640   1.172   6.986 -0.1909 -0.4468 -0.7359
  157SAPE   C2717490   2.742   1.352   7.048 -0.3123 -0.6663  0.0402
  157SAPE   H7R17491   2.650   1.386   7.100  0.1250 -0.8199  0.9346
  157SAPE   H7S17492   2.770   1.448   6.998 -0.7918  0.4901  1.9115
  157SAPE   C2817493   2.849   1.316   7.144 -0.0566  0.2107  0.7727
  157SAPE   H8R17494   2.950   1.356   7.123  0.4161 -0.4160  1.7537
  157SAPE   C2917495   2.830   1.237   7.240  0.3692  0.4559  0.2366
  157SAPE   H9R17496   2.917   1.231   7.308  0.9616  2.1015 -0.3571
  157SAPE  C21017497   2.705   1.179   7.287  0.3369  0.3049  0.3196
  157SAPE  H10R17498   2.644   1.156   7.198  2.6371 -1.5060 -0.8209
  157SAPE  H10S17499   2.654   1.254   7.352 -0.7373 -0.1847  0.0425
  157SAPE  C21117500   2.719   1.056   7.363 -0.5368 -0.2535  0.6989
  157SAPE  H11R17501   2.719   0.970   7.295 -0.4078 -0.2384  0.6812
  157SAPE  C21217502   2.742   1.037   7.493  0.1785 -0.3524 -0.7151
  157SAPE  H12R17503   2.758   0.934   7.529  0.1376 -0.3181 -0.5988
  157SAPE  C21317504   2.759   1.145   7.595  0.5587 -0.0075  0.4374
  157SAPE  H13R17505   2.716   1.238   7.553 -0.0579 -0.0500  0.9743
  157SAPE  H13S17506   2.867   1.148   7.624  1.0085 -1.2343 -1.0116
  157SAPE  C21417507   2.665   1.100   7.707 -0.2967  0.9291 -0.0094
  157SAPE  H14R17508   2.631   0.995   7.708 -0.3224  0.9226 -1.3785
  157SAPE  C21517509   2.626   1.173   7.812 -0.3035  0.0504 -0.1656
  157SAPE  H15R17510   2.561   1.121   7.884 -1.4744  2.3063  0.4546
  157SAPE  C21617511   2.672   1.310   7.845  0.0137  0.0978 -0.2339
  157SAPE  H16R17512   2.656   1.386   7.765  0.7636  1.8813  1.2909
  157SAPE  H16S17513   2.782   1.296   7.854 -0.3461 -2.0200  1.3226
  157SAPE  C21717514   2.614   1.360   7.977  0.1470 -0.5814  0.0371
  157SAPE  H17R17515   2.665   1.454   8.009  1.1808 -0.6206 -1.4554
  157SAPE  H17S17516   2.627   1.290   8.062 -0.0213  1.9163  2.1885
  157SAPE  C21817517   2.458   1.384   7.981  0.1435  0.4049 -0.4005
  157SAPE  H18R17518   2.444   1.415   8.086 -1.1605 -0.6179 -0.2470
  157SAPE  H18S17519   2.394   1.297   7.953 -4.6216  3.2079  1.2624
  157SAPE  C21917520   2.425   1.510   7.906  0.2740 -0.5135 -0.4760
  157SAPE  H19R17521   2.326   1.508   7.857 -1.9952  2.5412  3.6109
  157SAPE  H19S17522   2.509   1.526   7.835  0.2054  1.0168 -0.2301
  157SAPE  C22017523   2.426   1.635   8.003 -0.3625  0.4331  0.4031
  157SAPE  H20R17524   2.526   1.651   8.049  0.3144  1.0672 -1.2337
  157SAPE  H20S17525   2.340   1.622   8.072 -0.6323  1.3648  0.2599
  157SAPE  H20T17526   2.422   1.725   7.937  1.8205 -0.8145 -1.5280
  157SAPE   C3317527   2.362   1.567   6.976  0.2479 -0.1362  0.7009
  157SAPE   H3X17528   2.468   1.537   6.961  1.4172  1.9708  4.0853
  157SAPE   H3Y17529   2.290   1.484   6.960  0.6288 -0.3973  0.2989
  157SAPE   C3417530   2.360   1.621   7.122  0.6654  0.7222 -0.0963
  157SAPE   H4X17531   2.432   1.706   7.125  0.8715  0.5673 -0.5878
  157SAPE   H4Y17532   2.401   1.542   7.188 -2.6526 -1.4591 -0.5008
  157SAPE   C3517533   2.221   1.645   7.169 -0.3577  0.2237  0.3400
  157SAPE   H5X17534   2.153   1.563   7.137  0.8552  0.3519 -2.7401
  157SAPE   H5Y17535   2.187   1.749   7.146  1.2388  0.7089  0.1494
  157SAPE   C3617536   2.214   1.632   7.322  0.0787  0.4704  0.3822
  157SAPE   H6X17537   2.304   1.686   7.357  0.2416  0.2489  0.3105
  157SAPE   H6Y17538   2.222   1.524   7.348  0.3547  0.3929 -0.0326
  157SAPE   C3717539   2.091   1.698   7.382 -0.4269 -0.0745  0.9569
  157SAPE   H7X17540   2.003   1.651   7.332  0.8281 -1.7586  0.3035
  157SAPE   H7Y17541   2.087   1.805   7.351 -0.5049 -0.4628 -0.4217
  157SAPE   C3817542   2.071   1.694   7.536  0.0136 -0.2384 -0.1900
  157SAPE   H8X17543   2.163   1.739   7.580  1.1341  0.6622 -3.3562
  157SAPE   H8Y17544   2.067   1.587   7.566 -2.2011  0.3330  1.7717
  157SAPE   C3917545   1.939   1.754   7.583  1.0500 -0.0857  0.4521
  157SAPE   H9X17546   1.853   1.688   7.559  1.9172 -0.5702 -1.4288
  157SAPE   H9Y17547   1.917   1.856   7.544 -1.5244 -0.9762 -0.5451
  157SAPE  C31017548   1.947   1.768   7.738  0.4600  0.2173 -0.1928
  157SAPE  H10X17549   1.847   1.810   7.762  1.3413  1.3567  1.6208
  157SAPE  H10Y17550   2.027   1.835   7.775  2.6580 -1.9593 -0.8539
  157SAPE  C31117551   1.956   1.634   7.807  0.3180 -0.2886 -0.4694
  157SAPE  H11X17552   2.049   1.574   7.813 -0.3585 -1.1950  2.0944
  157SAPE  H11Y17553   1.884   1.571   7.751 -0.6986 -0.9702  1.5372
  157SAPE  C31217554   1.897   1.642   7.951 -0.9310  0.7644  0.6007
  157SAPE  H12X17555   1.802   1.700   7.949  0.2821  2.8175  0.9870
  157SAPE  H12Y17556   1.971   1.698   8.012  1.5241 -1.7588  0.0158
  157SAPE  C31317557   1.885   1.505   8.026 -0.1130  0.9555 -0.5134
  157SAPE  H13X17558   1.952   1.423   7.991  0.2757  0.2864  1.7076
  157SAPE  H13Y17559   1.785   1.459   8.017 -0.7044  2.1483 -0.1463
  157SAPE  C31417560   1.901   1.542   8.176  0.5130 -0.0821 -0.2645
  157SAPE  H14X17561   1.992   1.604   8.192 -1.0737  2.0084  0.9394
  157SAPE  H14Y17562   1.918   1.448   8.233 -1.7460 -0.1114  0.4136
  157SAPE  C31517563   1.782   1.619   8.239 -0.1439  0.6107  0.3868
  157SAPE  H15X17564   1.721   1.666   8.158 -0.6345  1.6359  1.3490
  157SAPE  H15Y17565   1.813   1.705   8.302  1.4579  0.8376 -0.6652
  157SAPE  C31617566   1.686   1.524   8.319  0.0236  0.2339 -0.1926
  157SAPE  H16X17567   1.651   1.450   8.244  2.4445 -0.4325 -0.6994
  157SAPE  H16Y17568   1.605   1.593   8.353 -0.7399 -0.2304 -1.0567
  157SAPE  C31717569   1.733   1.455   8.448  0.0555  0.0239  0.7991
  157SAPE  H17X17570   1.798   1.369   8.419  0.6259  0.5669  0.4308
  157SAPE  H17Y17571   1.642   1.410   8.493 -0.3962  0.2320  0.1067
  157SAPE  C31817572   1.811   1.551   8.538  0.0005 -0.9537 -0.0450
  157SAPE  H18X17573   1.849   1.500   8.629  2.5373 -1.4074 -1.3268
  157SAPE  H18Y17574   1.752   1.637   8.577 -0.7301 -2.0921  1.3953
  157SAPE  H18Z17575   1.900   1.587   8.481 -1.2297  1.3139 -0.6069
  158SAPE     N17576   5.615   5.498   6.392 -0.7580  0.5424 -0.5834
  158SAPE   HN117577   5.697   5.546   6.433  1.3216 -0.0256 -3.8473
  158SAPE   HN217578   5.639   5.399   6.370 -1.1107  0.2515  0.3325
  158SAPE   HN317579   5.599   5.545   6.300  0.5581  1.3614 -0.4014
  158SAPE   C1217580   5.494   5.515   6.472 -0.2279 -0.2124 -0.1049
  158SAPE  H12A17581   5.510   5.603   6.536 -0.2827 -1.0102  1.0183
  158SAPE  H12B17582   5.464   5.427   6.533 -3.5081  0.8968 -0.0237
  158SAPE   C1117583   5.383   5.559   6.376  0.5817  0.1232 -0.1222
  158SAPE  H11A17584   5.306   5.598   6.446  0.7674 -1.1770  0.8035
  158SAPE  H11B17585   5.347   5.477   6.311 -0.7073  1.5000 -1.2032
  158SAPE     P17586   5.333   5.720   6.172 -0.1864 -0.1942 -0.0213
  158SAPE   O1317587   5.372   5.860   6.143  0.1466  0.4884  0.9632
  158SAPE   O1417588   5.341   5.629   6.061  0.1212 -0.0992  0.0093
  158SAPE   O1217589   5.427   5.670   6.292 -0.1881  0.0196 -0.2005
  158SAPE   O1117590   5.193   5.714   6.233 -0.3817 -0.1710 -0.1358
  158SAPE    C117591   5.161   5.826   6.325 -0.6627 -0.0318  0.2994
  158SAPE    HA17592   5.241   5.843   6.400 -1.4913  2.1239  0.7188
  158SAPE    HB17593   5.146   5.919   6.266  1.6918  0.4145  0.3533
  158SAPE    C217594   5.028   5.796   6.405 -0.3384 -0.0306  0.0667
  158SAPE    HS17595   4.996   5.890   6.455 -1.7022  0.7324 -2.1976
  158SAPE   O2117596   5.059   5.692   6.496 -0.0132 -0.4848 -0.5278
  158SAPE   C2117597   5.118   5.740   6.604 -1.0763 -0.4273  0.0002
  158SAPE   O2217598   5.169   5.851   6.618 -0.1742  0.7454  0.1562
  158SAPE   C2217599   5.101   5.636   6.713  0.3163  0.2011  0.9984
  158SAPE   H2R17600   4.993   5.608   6.712  1.0952 -3.2056 -2.7903
  158SAPE   H2S17601   5.150   5.545   6.673 -2.4625 -0.6439 -0.6550
  158SAPE    C317602   4.916   5.741   6.316  0.4578  0.0644 -0.0437
  158SAPE    HX17603   4.934   5.644   6.265 -3.5490 -0.7873  0.0197
  158SAPE    HY17604   4.922   5.818   6.237  1.5702  0.3979  0.3590
  158SAPE   O3117605   4.786   5.761   6.378 -0.1660  0.4683 -0.1673
  158SAPE   C3117606   4.753   5.650   6.443 -0.0602  0.4135  0.4561
  158SAPE   O3217607   4.813   5.545   6.435 -0.6174  0.3206  0.3720
  158SAPE   C3217608   4.631   5.678   6.535  0.2737 -0.6166  0.3303
  158SAPE   H2X17609   4.543   5.651   6.472  1.0461 -1.7404 -0.2941
  158SAPE   H2Y17610   4.627   5.785   6.562  2.2202 -0.7145  1.1060
  158SAPE   C2317611   5.140   5.659   6.863 -0.3499 -0.6303  0.0696
  158SAPE   H3R17612   5.190   5.758   6.875  2.2153 -1.6755 -1.6081
  158SAPE   H3S17613   5.224   5.598   6.902  1.9488  2.2101 -0.2315
  158SAPE   C2417614   5.022   5.647   6.960 -0.6979 -0.8365 -0.0261
  158SAPE   H4R17615   4.948   5.725   6.934  0.3920  1.1610  2.6224
  158SAPE   H4S17616   5.056   5.681   7.060 -1.2567 -2.5687  0.7582
  158SAPE   C2517617   4.972   5.503   6.960  0.4729  0.4634 -0.1434
  158SAPE   H5R17618   4.967   5.454   6.862  3.2717  0.7462 -0.4443
  158SAPE   C2617619   4.906   5.446   7.061 -0.3786 -0.7301  0.1796
  158SAPE   H6R17620   4.858   5.349   7.040  1.0978 -1.3851 -0.2133
  158SAPE   C2717621   4.882   5.511   7.196 -0.1883  0.4556 -0.3729
  158SAPE   H7R17622   4.798   5.457   7.245 -1.0710 -0.0984 -2.4661
  158SAPE   H7S17623   4.860   5.620   7.186  3.1254  0.8661 -4.0964
  158SAPE   C2817624   5.008   5.505   7.276 -0.0656  0.3728  0.9471
  158SAPE   H8R17625   5.107   5.508   7.228 -0.9590  1.9089 -0.8955
  158SAPE   C2917626   5.008   5.497   7.409 -0.3584 -0.5851  0.3032
  158SAPE   H9R17627   5.111   5.493   7.449 -0.1520  0.0079 -0.1675
  158SAPE  C21017628   4.896   5.497   7.507  0.2445 -0.5904  0.5749
  158SAPE  H10R17629   4.793   5.511   7.467 -0.2273  0.5050  2.1273
  158SAPE  H10S17630   4.915   5.579   7.580  1.9665  1.3795 -2.0142
  158SAPE  C21117631   4.889   5.361   7.575 -0.3311  0.9246 -0.6065
  158SAPE  H11R17632   4.932   5.277   7.519  1.7411  1.4023  0.2227
  158SAPE  C21217633   4.844   5.339   7.701 -1.1683 -0.7328  0.0318
  158SAPE  H12R17634   4.870   5.248   7.758  0.4801  1.2505  2.5657
  158SAPE  C21317635   4.798   5.442   7.793 -0.5939  0.0034  0.9099
  158SAPE  H13R17636   4.715   5.387   7.843  0.0293 -0.7876  1.0852
  158SAPE  H13S17637   4.761   5.526   7.731  3.0022  0.2670 -0.9804
  158SAPE  C21417638   4.906   5.479   7.889  0.8864 -0.1229 -0.1633
  158SAPE  H14R17639   4.959   5.572   7.866  0.1639  1.0764  2.8529
  158SAPE  C21517640   4.934   5.425   8.007  0.4853  0.0248 -0.5342
  158SAPE  H15R17641   5.019   5.468   8.062  0.3675  0.6575 -0.8393
  158SAPE  C21617642   4.869   5.301   8.066 -0.2547  0.1082  0.6994
  158SAPE  H16R17643   4.951   5.237   8.104  0.1437  1.3581  1.9772
  158SAPE  H16S17644   4.807   5.240   7.996 -1.6416  0.1422  1.8658
  158SAPE  C21717645   4.786   5.340   8.190 -0.4093 -0.1841 -0.0330
  158SAPE  H17R17646   4.699   5.272   8.200 -0.2750 -0.1209  1.7402
  158SAPE  H17S17647   4.733   5.437   8.176 -0.5878  0.0387  2.1326
  158SAPE  C21817648   4.862   5.355   8.319 -0.5343  0.2552 -0.9227
  158SAPE  H18R17649   4.918   5.452   8.320 -1.8355  1.0219 -1.5843
  158SAPE  H18S17650   4.935   5.273   8.336 -1.5425 -0.2177  1.2685
  158SAPE  C21917651   4.767   5.348   8.444 -0.0626  0.1720 -0.3394
  158SAPE  H19R17652   4.712   5.252   8.433 -2.2916  1.5320 -1.1900
  158SAPE  H19S17653   4.684   5.421   8.444 -2.9287 -2.9739  0.5032
  158SAPE  C22017654   4.835   5.355   8.581 -0.2875  0.5809  0.0591
  158SAPE  H20R17655   4.761   5.313   8.653 -0.2269  1.1674  0.4686
  158SAPE  H20S17656   4.852   5.460   8.613 -1.4030  0.4329  1.1889
  158SAPE  H20T17657   4.925   5.290   8.584 -0.6418  0.1262  1.0600
  158SAPE   C3317658   4.635   5.589   6.662  0.0579  0.3249  0.5806
  158SAPE   H3X17659   4.718   5.626   6.726 -1.2045  0.2630  2.2840
  158SAPE   H3Y17660   4.665   5.487   6.629 -1.7326  0.1758 -0.6670
  158SAPE   C3417661   4.508   5.592   6.743 -0.2652 -0.3553  0.2819
  158SAPE   H4X17662   4.418   5.556   6.688  0.8027 -0.1577 -1.6636
  158SAPE   H4Y17663   4.484   5.697   6.770  1.6939  0.0356  0.5584
  158SAPE   C3517664   4.534   5.507   6.865 -0.0428  0.0833  0.5382
  158SAPE   H5X17665   4.644   5.509   6.883 -0.2901 -1.4176  2.4411
  158SAPE   H5Y17666   4.514   5.405   6.824  2.4692 -0.4660  0.6095
  158SAPE   C3617667   4.443   5.534   6.979 -0.4166 -0.4921  0.7473
  158SAPE   H6X17668   4.333   5.535   6.964 -0.6342  2.0464  2.2072
  158SAPE   H6Y17669   4.468   5.637   7.011 -1.4407 -0.4800  1.5419
  158SAPE   C3717670   4.463   5.444   7.098  0.3211 -0.5823  0.6019
  158SAPE   H7X17671   4.445   5.335   7.083 -0.3023 -0.7040  2.1440
  158SAPE   H7Y17672   4.572   5.445   7.120  0.2863  0.3478  0.7324
  158SAPE   C3817673   4.394   5.494   7.227 -0.2357  0.0731  0.7892
  158SAPE   H8X17674   4.286   5.469   7.220 -0.0224 -0.5270 -0.3316
  158SAPE   H8Y17675   4.408   5.604   7.236 -1.4278  0.2913  0.1059
  158SAPE   C3917676   4.458   5.426   7.351  0.5453  0.0823  0.0938
  158SAPE   H9X17677   4.561   5.467   7.346  0.0255  1.3953 -0.2994
  158SAPE   H9Y17678   4.437   5.317   7.345  0.7740 -0.0463  1.3973
  158SAPE  C31017679   4.396   5.473   7.484 -0.3919  0.1938  0.5801
  158SAPE  H10X17680   4.288   5.445   7.480  0.5682 -3.9658  1.1335
  158SAPE  H10Y17681   4.400   5.582   7.502  0.4867  0.7752 -2.8775
  158SAPE  C31117682   4.435   5.407   7.613 -0.2989 -0.0198  0.2607
  158SAPE  H11X17683   4.540   5.437   7.635  0.1159 -0.6542 -0.8347
  158SAPE  H11Y17684   4.437   5.296   7.616  0.1507 -0.0091  0.3052
  158SAPE  C31217685   4.351   5.449   7.736  0.1720  0.3063  0.0520
  158SAPE  H12X17686   4.242   5.435   7.725 -0.3336  1.9771  2.5020
  158SAPE  H12Y17687   4.346   5.560   7.732 -1.7338  0.2380  0.3625
  158SAPE  C31317688   4.401   5.391   7.878 -0.5310  0.5210 -0.8779
  158SAPE  H13X17689   4.511   5.402   7.868 -0.6825  0.3604 -3.0010
  158SAPE  H13Y17690   4.381   5.282   7.885  2.1609  0.1668  3.1281
  158SAPE  C31417691   4.344   5.471   7.998 -0.7547  0.2199 -0.0001
  158SAPE  H14X17692   4.240   5.507   7.980 -1.0824 -1.4675 -1.6451
  158SAPE  H14Y17693   4.416   5.555   8.003  0.0945 -0.6069  2.4307
  158SAPE  C31517694   4.347   5.381   8.121 -0.0111 -0.4159  0.4779
  158SAPE  H15X17695   4.446   5.332   8.130  0.0698 -0.1931  0.8410
  158SAPE  H15Y17696   4.277   5.298   8.100  0.3672 -0.4818 -0.5747
  158SAPE  C31617697   4.306   5.449   8.249  0.3266 -0.0883  0.2164
  158SAPE  H16X17698   4.220   5.519   8.253  0.0287 -0.4431  0.0717
  158SAPE  H16Y17699   4.391   5.505   8.295  0.3083 -0.5831  0.8661
  158SAPE  C31717700   4.280   5.341   8.359  0.0941  0.3023 -0.0048
  158SAPE  H17X17701   4.203   5.271   8.321 -0.3673 -0.0045  1.4472
  158SAPE  H17Y17702   4.235   5.401   8.441  0.0138  2.2617 -1.4685
  158SAPE  C31817703   4.407   5.269   8.399  0.2339 -0.4238 -0.0581
  158SAPE  H18X17704   4.394   5.181   8.465  0.5326 -0.1715  0.3356
  158SAPE  H18Y17705   4.467   5.342   8.458 -2.1167  1.6857 -0.2127
  158SAPE  H18Z17706   4.459   5.224   8.311  2.9892 -0.4705  1.5218
  159SAPE     N17707   3.703   2.028   6.105  0.0992 -0.7414 -0.1022
  159SAPE   HN117708   3.647   2.036   6.192  1.2225 -0.8906  0.6425
  159SAPE   HN217709   3.802   2.001   6.122 -0.5991 -2.2563  1.7757
  159SAPE   HN317710   3.702   2.120   6.056  2.7459  0.1685  1.4455
  159SAPE   C1217711   3.646   1.912   6.026  0.0969  0.9459 -1.2804
  159SAPE  H12A17712   3.651   1.945   5.920  0.3120  0.4798 -1.4175
  159SAPE  H12B17713   3.543   1.886   6.058  1.2014 -1.9495  0.0525
  159SAPE   C1117714   3.727   1.788   6.050 -0.0799 -0.5680 -0.2892
  159SAPE  H11A17715   3.682   1.721   5.974 -0.4053 -1.5462  0.7536
  159SAPE  H11B17716   3.705   1.749   6.152 -0.1241 -0.0816 -0.1106
  159SAPE     P17717   3.966   1.701   6.090 -0.3341  0.0671 -0.3975
  159SAPE   O1317718   3.940   1.579   6.003  0.5658  0.7404 -0.5763
  159SAPE   O1417719   4.105   1.754   6.096  0.0843  0.0444  0.2230
  159SAPE   O1217720   3.866   1.810   6.036 -0.0301 -0.4050  0.1144
  159SAPE   O1117721   3.918   1.675   6.238  0.0974 -0.3734  0.1785
  159SAPE    C117722   3.988   1.728   6.347 -0.0494 -0.8303 -0.2378
  159SAPE    HA17723   4.074   1.795   6.323 -0.7151 -0.0312 -0.4148
  159SAPE    HB17724   3.912   1.781   6.407 -0.9819 -1.5303 -0.7856
  159SAPE    C217725   4.055   1.622   6.440  0.0182  0.2001  0.5428
  159SAPE    HS17726   4.137   1.576   6.380 -1.5135 -1.2809 -0.4784
  159SAPE   O2117727   3.972   1.512   6.465 -0.0990  0.2562 -0.3630
  159SAPE   C2117728   3.862   1.551   6.536  0.5845 -0.8386 -0.8834
  159SAPE   O2217729   3.846   1.657   6.592  0.4158  0.1614 -0.0508
  159SAPE   C2217730   3.773   1.430   6.553  0.1441  0.4065  0.7216
  159SAPE   H2R17731   3.754   1.391   6.451 -1.3452 -2.9237  2.2092
  159SAPE   H2S17732   3.815   1.359   6.627  0.3940  1.2758  1.4327
  159SAPE    C317733   4.130   1.688   6.559 -0.9340 -0.3130 -0.1223
  159SAPE    HX17734   4.064   1.770   6.594 -1.8554 -0.3790 -1.6425
  159SAPE    HY17735   4.218   1.742   6.518 -1.2911  0.2625 -0.1316
  159SAPE   O3117736   4.166   1.598   6.668 -0.0765 -0.2354  0.2328
  159SAPE   C3117737   4.231   1.653   6.772 -0.2137  0.3436 -0.5300
  159SAPE   O3217738   4.279   1.768   6.765  0.0793 -0.4016  0.2675
  159SAPE   C3217739   4.220   1.568   6.898 -0.2454  0.3628 -0.4529
  159SAPE   H2X17740   4.275   1.474   6.875  3.3702  2.2326  0.1548
  159SAPE   H2Y17741   4.113   1.551   6.922  0.4439 -2.7652  0.5504
  159SAPE   C2317742   3.631   1.480   6.600  0.0842  0.1290  0.5989
  159SAPE   H3R17743   3.599   1.543   6.514  1.5416 -1.4674 -1.1493
  159SAPE   H3S17744   3.634   1.546   6.690 -0.6852  0.6577  0.2425
  159SAPE   C2417745   3.543   1.364   6.630  0.3839  0.8355 -0.1347
  159SAPE   H4R17746   3.573   1.317   6.726 -1.7315 -1.7342 -0.6786
  159SAPE   H4S17747   3.560   1.285   6.554  1.7425  0.8715  0.1282
  159SAPE   C2517748   3.404   1.417   6.625 -0.0390  0.8574  0.0687
  159SAPE   H5R17749   3.366   1.438   6.524 -1.2162  1.5194  0.6330
  159SAPE   C2617750   3.316   1.429   6.729 -0.1391  0.0522 -0.2501
  159SAPE   H6R17751   3.212   1.458   6.710 -0.8526 -0.8619  2.0650
  159SAPE   C2717752   3.339   1.403   6.877  0.0278 -0.3295 -0.2433
  159SAPE   H7R17753   3.444   1.373   6.896  0.0950 -0.1866 -0.3849
  159SAPE   H7S17754   3.265   1.325   6.906 -0.4608  0.6671  1.3084
  159SAPE   C2817755   3.315   1.524   6.961 -0.2292 -0.3166  0.6968
  159SAPE   H8R17756   3.279   1.615   6.912  2.7441 -0.0059 -1.0117
  159SAPE   C2917757   3.336   1.530   7.091  0.3218 -0.5981 -0.6767
  159SAPE   H9R17758   3.321   1.621   7.151  0.4283  0.4917 -2.2466
  159SAPE  C21017759   3.373   1.421   7.186  0.2045  0.9036  0.0831
  159SAPE  H10R17760   3.477   1.446   7.216  0.0260  3.5953 -1.4437
  159SAPE  H10S17761   3.377   1.329   7.124  1.4008  2.3681 -2.0925
  159SAPE  C21117762   3.286   1.386   7.309 -0.0089  0.0614  0.4559
  159SAPE  H11R17763   3.193   1.328   7.298  2.1737 -3.9904  2.3604
  159SAPE  C21217764   3.304   1.427   7.437  0.2083  0.4027 -0.1961
  159SAPE  H12R17765   3.240   1.387   7.517  0.8974  0.9883  0.6553
  159SAPE  C21317766   3.417   1.515   7.488 -0.2671  0.2526 -0.2502
  159SAPE  H13R17767   3.484   1.559   7.411 -1.0187  0.8527 -0.5661
  159SAPE  H13S17768   3.490   1.457   7.548 -1.4910 -0.9495  0.0929
  159SAPE  C21417769   3.376   1.622   7.579  0.1911 -0.3625  0.1143
  159SAPE  H14R17770   3.398   1.724   7.545  1.4918 -0.4727  0.6144
  159SAPE  C21517771   3.310   1.607   7.697 -0.0132 -0.1811  0.0521
  159SAPE  H15R17772   3.281   1.698   7.753  1.2045  1.0057 -1.1997
  159SAPE  C21617773   3.285   1.476   7.760  0.2545  0.6623  0.2687
  159SAPE  H16R17774   3.353   1.395   7.727 -1.3518  0.0939 -1.7625
  159SAPE  H16S17775   3.182   1.441   7.738  1.3188 -1.0535 -2.1672
  159SAPE  C21717776   3.291   1.471   7.912  0.4504  0.5746 -0.9116
  159SAPE  H17R17777   3.248   1.377   7.954  2.1521  0.4012  0.5019
  159SAPE  H17S17778   3.241   1.557   7.961 -0.2462  0.4424 -1.3929
  159SAPE  C21817779   3.437   1.478   7.972  0.7009  1.0155  0.8254
  159SAPE  H18R17780   3.465   1.585   7.965 -2.1489  1.7083 -0.8701
  159SAPE  H18S17781   3.508   1.423   7.907  0.7206  1.9984 -0.0024
  159SAPE  C21917782   3.463   1.426   8.117  0.7234  0.1319 -0.0824
  159SAPE  H19R17783   3.558   1.475   8.146  0.2819  0.9387  0.0314
  159SAPE  H19S17784   3.470   1.315   8.113 -0.0253  0.1407 -3.3590
  159SAPE  C22017785   3.359   1.474   8.214  0.1886  0.5733  0.8165
  159SAPE  H20R17786   3.369   1.584   8.216 -0.5612  0.7015 -0.9682
  159SAPE  H20S17787   3.391   1.446   8.316  3.1473  2.0016  0.3064
  159SAPE  H20T17788   3.250   1.451   8.202  0.5825 -0.4199 -1.0725
  159SAPE   C3317789   4.278   1.634   7.021 -0.4703 -0.3726 -0.1717
  159SAPE   H3X17790   4.245   1.740   7.022  1.0072  0.0788  1.9666
  159SAPE   H3Y17791   4.388   1.647   7.014 -0.5524  0.2302 -0.4437
  159SAPE   C3417792   4.238   1.572   7.157  0.1683 -0.1087 -0.9684
  159SAPE   H4X17793   4.265   1.464   7.162 -0.2206 -0.2501 -1.8145
  159SAPE   H4Y17794   4.129   1.583   7.173  0.0661 -0.5708 -1.3472
  159SAPE   C3517795   4.312   1.623   7.282  0.8362  0.1475 -0.4286
  159SAPE   H5X17796   4.307   1.733   7.296 -0.1334 -0.1897  2.2208
  159SAPE   H5Y17797   4.421   1.603   7.275  0.9418  0.1502  0.9359
  159SAPE   C3617798   4.251   1.576   7.420 -0.0656  0.2420  0.2355
  159SAPE   H6X17799   4.275   1.467   7.429  2.2564  0.7919  1.1341
  159SAPE   H6Y17800   4.141   1.589   7.419  0.2391  3.2798  0.9614
  159SAPE   C3717801   4.323   1.634   7.541  0.1644  0.4174  0.5905
  159SAPE   H7X17802   4.315   1.744   7.530  0.1876  0.2957 -0.7648
  159SAPE   H7Y17803   4.434   1.624   7.537  0.0856 -0.7463  0.9088
  159SAPE   C3817804   4.271   1.583   7.680  0.1468 -0.4172  0.6286
  159SAPE   H8X17805   4.266   1.472   7.672 -0.1774 -0.2594 -1.5887
  159SAPE   H8Y17806   4.167   1.618   7.697  0.1265  0.6269 -1.5543
  159SAPE   C3917807   4.359   1.631   7.793 -0.5000  0.3153 -0.5120
  159SAPE   H9X17808   4.378   1.740   7.782  1.0261  0.6649  4.1573
  159SAPE   H9Y17809   4.463   1.590   7.790 -0.7040 -0.3092  0.4746
  159SAPE  C31017810   4.323   1.593   7.939  0.5066  0.2251 -0.2687
  159SAPE  H10X17811   4.332   1.482   7.938  2.3145  0.3768 -1.6475
  159SAPE  H10Y17812   4.216   1.614   7.964  1.2671  0.5413  2.9694
  159SAPE  C31117813   4.407   1.660   8.047 -0.0200 -0.1365  0.1404
  159SAPE  H11X17814   4.379   1.765   8.072  0.6662 -0.0023  0.3548
  159SAPE  H11Y17815   4.507   1.679   8.003 -0.1280  1.5352  0.5732
  159SAPE  C31217816   4.415   1.566   8.163 -0.0158 -0.2122 -0.7809
  159SAPE  H12X17817   4.461   1.466   8.149  0.6146  0.0891 -0.8796
  159SAPE  H12Y17818   4.312   1.548   8.200  0.6510 -1.9208  0.2739
  159SAPE  C31317819   4.497   1.632   8.282  0.6804  0.3276  0.2061
  159SAPE  H13X17820   4.484   1.560   8.366 -1.8940  2.2300  1.4776
  159SAPE  H13Y17821   4.462   1.730   8.321  0.9336 -0.1603  1.7041
  159SAPE  C31417822   4.645   1.635   8.244 -0.0018  0.3584  0.1595
  159SAPE  H14X17823   4.670   1.726   8.184  2.0195  0.8746  1.7262
  159SAPE  H14Y17824   4.669   1.540   8.192  0.8696  1.1471 -0.9090
  159SAPE  C31517825   4.726   1.641   8.377  0.4953  0.1658  0.4423
  159SAPE  H15X17826   4.830   1.614   8.350  0.8602  1.2594  0.7480
  159SAPE  H15Y17827   4.700   1.556   8.445 -0.4148  0.5117  0.5360
  159SAPE  C31617828   4.707   1.773   8.454  0.0127 -0.5255 -0.6292
  159SAPE  H16X17829   4.600   1.802   8.452  0.3272  0.6369 -0.7417
  159SAPE  H16Y17830   4.764   1.843   8.389  2.2051  0.4251  2.2241
  159SAPE  C31717831   4.764   1.783   8.595  0.3231 -0.1998  0.7618
  159SAPE  H17X17832   4.678   1.753   8.659 -0.2392  0.8248  0.5141
  159SAPE  H17Y17833   4.787   1.890   8.614  0.5520 -0.2959  1.0279
  159SAPE  C31817834   4.876   1.693   8.626 -0.0314 -0.4063  0.5414
  159SAPE  H18X17835   4.909   1.704   8.731 -1.7750 -1.3945  1.2053
  159SAPE  H18Y17836   4.962   1.723   8.562 -0.4385  2.4354  1.2577
  159SAPE  H18Z17837   4.858   1.584   8.613  2.2776 -0.8887  1.0937
  160SAPE     N17838   4.619   6.443   6.415 -0.0191  0.3576 -0.0285
  160SAPE   HN117839   4.718   6.415   6.430  0.4679  0.1120 -3.3406
  160SAPE   HN217840   4.563   6.419   6.499  0.9124 -0.0334  0.4882
  160SAPE   HN317841   4.579   6.389   6.336 -0.8526  0.5482  0.2619
  160SAPE   C1217842   4.599   6.583   6.381 -0.3751 -0.7508  0.0385
  160SAPE  H12A17843   4.515   6.594   6.308 -0.4800 -1.2799  0.0806
  160SAPE  H12B17844   4.682   6.628   6.323  0.4868 -1.2319  0.8927
  160SAPE   C1117845   4.577   6.688   6.492  0.2795 -0.4728 -0.2621
  160SAPE  H11A17846   4.495   6.666   6.564  2.0434 -2.4446  1.1690
  160SAPE  H11B17847   4.548   6.790   6.458  0.9720  0.4184  1.7394
  160SAPE     P17848   4.809   6.792   6.569 -0.0989  0.1813 -0.3166
  160SAPE   O1317849   4.941   6.718   6.572  0.1728 -0.1822  0.3189
  160SAPE   O1417850   4.782   6.889   6.461 -0.2740  0.1496 -0.0620
  160SAPE   O1217851   4.691   6.692   6.577  0.3227  0.1842 -0.4015
  160SAPE   O1117852   4.792   6.875   6.701  0.4457 -0.4494  0.6588
  160SAPE    C117853   4.735   6.831   6.825 -0.3736 -0.3164 -0.3238
  160SAPE    HA17854   4.657   6.756   6.803 -1.2047  0.0456  1.3175
  160SAPE    HB17855   4.807   6.763   6.874  0.9685 -0.1725 -2.0510
  160SAPE    C217856   4.702   6.956   6.922 -0.0141  0.3448  0.8213
  160SAPE    HS17857   4.634   6.925   7.004 -0.5927  1.8196  0.9113
  160SAPE   O2117858   4.643   7.056   6.843 -0.0181  0.0543 -0.3906
  160SAPE   C2117859   4.520   7.036   6.815 -0.7323  0.4093 -0.6117
  160SAPE   O2217860   4.450   6.943   6.847  0.2517 -0.1656  0.1517
  160SAPE   C2217861   4.465   7.158   6.741  0.7325  0.1048  0.1086
  160SAPE   H2R17862   4.549   7.225   6.711 -1.1921  1.8204 -1.5523
  160SAPE   H2S17863   4.423   7.112   6.649  0.4708  2.3708 -0.9313
  160SAPE    C317864   4.821   7.021   6.992 -0.2827  0.1411  0.8081
  160SAPE    HX17865   4.786   7.114   7.041 -0.5440 -0.5057  1.8551
  160SAPE    HY17866   4.899   7.047   6.916 -1.7198 -2.2948 -1.5921
  160SAPE   O3117867   4.866   6.929   7.092 -0.3122 -0.2066  0.2019
  160SAPE   C3117868   4.991   6.880   7.085  0.2346 -0.1043 -0.4949
  160SAPE   O3217869   5.073   6.902   6.997  0.3540  0.2441  0.3155
  160SAPE   C3217870   5.014   6.800   7.211  0.0319 -0.6255 -0.1891
  160SAPE   H2X17871   5.048   6.698   7.182  0.4617 -0.1381 -1.4425
  160SAPE   H2Y17872   4.914   6.775   7.252 -0.2913 -3.5856 -2.5562
  160SAPE   C2317873   4.345   7.231   6.806  0.7643  0.6525  0.4403
  160SAPE   H3R17874   4.252   7.171   6.804  1.6960 -0.7996 -1.6243
  160SAPE   H3S17875   4.327   7.326   6.750  4.6858  0.7379 -0.7897
  160SAPE   C2417876   4.383   7.257   6.957  0.4921  0.0874  0.2140
  160SAPE   H4R17877   4.480   7.311   6.962  0.9918 -0.7529 -0.2806
  160SAPE   H4S17878   4.396   7.161   7.012  0.5517 -0.0441 -0.0299
  160SAPE   C2517879   4.278   7.347   7.020  0.2392  0.3585 -0.6508
  160SAPE   H5R17880   4.226   7.409   6.945 -0.5308  1.5622  0.8592
  160SAPE   C2617881   4.252   7.368   7.150 -0.5062 -0.4430  0.3191
  160SAPE   H6R17882   4.180   7.446   7.181  1.1163  0.8617  0.9103
  160SAPE   C2717883   4.329   7.295   7.260  0.0492 -0.0436  0.5993
  160SAPE   H7R17884   4.410   7.235   7.214 -2.4453 -2.6488 -0.5235
  160SAPE   H7S17885   4.251   7.227   7.299  0.5301 -0.3092  1.1028
  160SAPE   C2817886   4.389   7.382   7.370 -0.8075 -1.0149 -0.6319
  160SAPE   H8R17887   4.467   7.453   7.339 -2.0357  0.8773  0.4790
  160SAPE   C2917888   4.349   7.401   7.493 -0.2992  0.7550 -0.3384
  160SAPE   H9R17889   4.419   7.452   7.561 -2.5863  1.8949  1.2380
  160SAPE  C21017890   4.229   7.337   7.562 -0.3901 -0.0894  0.0475
  160SAPE  H10R17891   4.147   7.300   7.496 -0.5227 -0.0367  0.1841
  160SAPE  H10S17892   4.176   7.421   7.612  0.8586  1.3958 -1.0428
  160SAPE  C21117893   4.273   7.222   7.649 -1.0778  0.2404 -0.6406
  160SAPE  H11R17894   4.307   7.130   7.599 -0.5360 -1.1380  2.1381
  160SAPE  C21217895   4.274   7.218   7.785 -0.3898  0.4823  0.4473
  160SAPE  H12R17896   4.301   7.124   7.833  0.5232  0.5267  0.0341
  160SAPE  C21317897   4.227   7.337   7.873 -0.3571  0.0811  0.6315
  160SAPE  H13R17898   4.136   7.302   7.924 -1.1346  1.2144  0.0388
  160SAPE  H13S17899   4.199   7.429   7.818 -1.1957 -0.6672 -0.1959
  160SAPE  C21417900   4.307   7.400   7.985  0.0091 -0.2973 -0.0596
  160SAPE  H14R17901   4.412   7.369   7.969 -0.7479 -1.8162 -2.5090
  160SAPE  C21517902   4.265   7.487   8.080 -0.2392  0.2853 -0.0190
  160SAPE  H15R17903   4.337   7.516   8.159 -2.2509  2.7628  1.0009
  160SAPE  C21617904   4.122   7.541   8.087 -0.6167  0.4798  0.0686
  160SAPE  H16R17905   4.057   7.481   8.154  3.1347 -3.9358  0.0633
  160SAPE  H16S17906   4.076   7.543   7.986 -1.3236  1.3445  0.4003
  160SAPE  C21717907   4.105   7.682   8.144  0.4991  1.1063  0.0748
  160SAPE  H17R17908   4.018   7.726   8.090 -0.5869 -0.7263  0.2989
  160SAPE  H17S17909   4.181   7.756   8.109 -1.1246  1.8204 -2.0583
  160SAPE  C21817910   4.091   7.703   8.290 -0.8745  0.1723  0.0506
  160SAPE  H18R17911   4.182   7.667   8.343  0.6688  3.7456 -0.0033
  160SAPE  H18S17912   4.001   7.649   8.327  0.6174 -2.0655  0.5106
  160SAPE  C21917913   4.076   7.852   8.327  0.2233  0.2955 -0.0606
  160SAPE  H19R17914   3.981   7.884   8.280 -0.3179  0.1258  0.9119
  160SAPE  H19S17915   4.168   7.895   8.282  0.3111  0.0329 -0.1259
  160SAPE  C22017916   4.077   7.879   8.481  0.7778 -0.0651  0.2505
  160SAPE  H20R17917   3.980   7.848   8.525  1.7041 -2.7591  0.4812
  160SAPE  H20S17918   4.090   7.988   8.503  1.5932 -0.4554  1.7706
  160SAPE  H20T17919   4.150   7.814   8.533 -1.6250 -2.7236  0.3874
  160SAPE   C3317920   5.126   6.856   7.305 -0.1266 -0.9385  0.2436
  160SAPE   H3X17921   5.094   6.949   7.357  2.9451  0.3756 -0.0994
  160SAPE   H3Y17922   5.219   6.872   7.246 -0.3388 -2.5667 -0.5627
  160SAPE   C3417923   5.154   6.758   7.426 -0.2037 -0.0075  0.5337
  160SAPE   H4X17924   5.217   6.814   7.499 -1.4313  1.3292  0.5941
  160SAPE   H4Y17925   5.213   6.669   7.398 -2.7862 -2.1729  1.7712
  160SAPE   C3517926   5.038   6.729   7.515  0.3433 -0.0919  0.2314
  160SAPE   H5X17927   4.947   6.708   7.456  0.2165  0.1012  0.3572
  160SAPE   H5Y17928   5.005   6.826   7.559 -2.1258 -1.5956  1.7525
  160SAPE   C3617929   5.056   6.634   7.641  0.1012  0.1221 -0.7349
  160SAPE   H6X17930   5.147   6.663   7.697  0.0131 -1.3367  0.1848
  160SAPE   H6Y17931   5.055   6.531   7.599  0.3108  0.4683 -1.6000
  160SAPE   C3717932   4.944   6.647   7.748  0.9238 -0.1913  0.4588
  160SAPE   H7X17933   4.860   6.582   7.715  0.0964  1.7633 -1.3732
  160SAPE   H7Y17934   4.904   6.750   7.751 -0.8702 -0.8185 -0.7658
  160SAPE   C3817935   4.986   6.599   7.890  0.6061 -0.4488  0.5044
  160SAPE   H8X17936   5.092   6.633   7.900  0.9054  0.3229 -3.9771
  160SAPE   H8Y17937   4.999   6.489   7.890  2.0857 -0.3163 -1.4729
  160SAPE   C3917938   4.878   6.642   7.993  0.2925  0.3631  0.7344
  160SAPE   H9X17939   4.781   6.595   7.967 -0.1734  1.8601 -0.3180
  160SAPE   H9Y17940   4.863   6.752   7.981  1.3959  0.1341 -3.2539
  160SAPE  C31017941   4.914   6.627   8.134  0.7692 -0.5010 -0.6922
  160SAPE  H10X17942   4.984   6.708   8.161  1.1953 -0.0780 -2.9616
  160SAPE  H10Y17943   4.956   6.526   8.156 -1.1852 -1.5980 -1.7936
  160SAPE  C31117944   4.792   6.655   8.232 -0.2251  0.5088  0.0057
  160SAPE  H11X17945   4.729   6.563   8.231  1.5630 -0.7966  2.3497
  160SAPE  H11Y17946   4.728   6.739   8.197 -1.0801 -0.0831  0.1341
  160SAPE  C31217947   4.843   6.666   8.377  0.1416  0.4142 -0.0575
  160SAPE  H12X17948   4.927   6.739   8.380  1.8984 -1.4812 -1.1550
  160SAPE  H12Y17949   4.877   6.565   8.411 -1.4478 -0.1725 -0.1810
  160SAPE  C31317950   4.741   6.708   8.475  0.3056  0.3302 -0.1838
  160SAPE  H13X17951   4.674   6.624   8.504  2.1729 -0.5165  1.8470
  160SAPE  H13Y17952   4.676   6.780   8.420 -0.3684 -0.2892 -0.2073
  160SAPE  C31417953   4.803   6.776   8.598 -0.3878  0.4893  0.0908
  160SAPE  H14X17954   4.869   6.859   8.563  0.4281 -0.4288 -0.6008
  160SAPE  H14Y17955   4.873   6.700   8.638 -1.6225  0.0702  1.4832
  160SAPE  C31517956   4.695   6.802   8.694  0.1826  0.6552  0.0718
  160SAPE  H15X17957   4.743   6.829   8.791 -0.2576 -0.5337  0.6373
  160SAPE  H15Y17958   4.632   6.713   8.716  2.5153 -1.1858 -0.4076
  160SAPE  C31617959   4.608   6.917   8.644 -0.6736 -0.3234  0.6144
  160SAPE  H16X17960   4.550   6.884   8.555 -1.0873 -1.9437  1.4608
  160SAPE  H16Y17961   4.672   7.000   8.606 -1.6960  0.0707 -0.2691
  160SAPE  C31717962   4.515   6.974   8.755  0.5773  0.4091 -0.6503
  160SAPE  H17X17963   4.583   6.994   8.841  0.2373 -1.2064  0.0242
  160SAPE  H17Y17964   4.441   6.896   8.783  1.3334 -0.3583 -0.7816
  160SAPE  C31817965   4.462   7.113   8.722  0.8718  0.8619  0.4206
  160SAPE  H18X17966   4.543   7.188   8.708  1.5391  0.4659  2.1250
  160SAPE  H18Y17967   4.404   7.162   8.802  1.5766 -1.0865  2.1634
  160SAPE  H18Z17968   4.398   7.108   8.631 -0.8905  0.5458  1.6509
  161SOPE     N17969   2.106   2.798  10.713  0.7602  0.2236  0.3335
  161SOPE   HN117970   2.129   2.708  10.761 -1.4455 -1.8898 -2.3732
  161SOPE   HN217971   2.012   2.786  10.672  0.7191  0.2565  0.4184
  161SOPE   HN317972   2.168   2.824  10.634  1.0923  1.3277  0.9460
  161SOPE   C1217973   2.112   2.906  10.817  0.0196 -0.5347 -0.9822
  161SOPE  H12A17974   2.026   2.889  10.885  0.8425  1.4961  0.6047
  161SOPE  H12B17975   2.094   3.002  10.765  0.9693  0.5437  0.6502
  161SOPE   C1117976   2.250   2.909  10.904  0.2113  0.4567  0.1684
  161SOPE  H11A17977   2.247   2.832  10.984 -2.8712  0.6174  0.2724
  161SOPE  H11B17978   2.265   3.003  10.961  1.2161  0.6557 -0.4178
  161SOPE     P17979   2.409   2.991  10.713 -0.1000  0.4736  0.4415
  161SOPE   O1317980   2.558   2.978  10.712 -0.2095  0.4355 -0.0661
  161SOPE   O1417981   2.362   3.129  10.739  0.3256  0.4746 -0.5171
  161SOPE   O1217982   2.358   2.885  10.820 -0.0239 -0.7495  0.7530
  161SOPE   O1117983   2.346   2.927  10.577  0.6193  0.3946 -0.3265
  161SOPE    C117984   2.417   2.819  10.527 -0.0942  0.2677 -0.0900
  161SOPE    HA17985   2.421   2.731  10.594  1.3959 -0.3073 -0.9134
  161SOPE    HB17986   2.520   2.850  10.499  1.1621 -1.1212  2.7948
  161SOPE    C217987   2.344   2.746  10.409  0.6658  0.4585 -0.5796
  161SOPE    HS17988   2.312   2.825  10.338 -0.2926  0.6000  0.0035
  161SOPE   O2117989   2.231   2.683  10.478 -0.1168 -0.0211 -0.7376
  161SOPE   C2117990   2.139   2.639  10.392 -0.3427 -0.0123  0.4571
  161SOPE   O2217991   2.132   2.679  10.278 -0.1934  0.3086 -0.1880
  161SOPE   C2217992   2.052   2.523  10.457  0.6183 -0.0160 -0.5831
  161SOPE   H2R17993   1.945   2.540  10.430  0.0815 -2.0153  0.1190
  161SOPE   H2S17994   2.065   2.532  10.567 -0.1943 -2.9624 -0.1812
  161SOPE    C317995   2.428   2.644  10.321  0.4212 -0.4691 -0.3936
  161SOPE    HX17996   2.366   2.597  10.242  0.7561 -2.3232  0.4275
  161SOPE    HY17997   2.460   2.565  10.392 -1.8328 -0.5902  0.5185
  161SOPE   O3117998   2.545   2.704  10.269  0.7492  0.3491 -0.0427
  161SOPE   C3117999   2.664   2.665  10.314 -0.0846 -0.2061  0.2072
  161SOPE   O3218000   2.685   2.592  10.409 -0.3973 -0.5422 -0.2773
  161SOPE   C3218001   2.786   2.731  10.239  0.1627  0.7144  0.0069
  161SOPE   H2X18002   2.809   2.818  10.304  1.8924  0.4071 -0.1641
  161SOPE   H2Y18003   2.739   2.772  10.146 -2.6479  0.4084  1.2556
  161SOPE   C2318004   2.093   2.377  10.412  0.0581 -0.4847  0.1221
  161SOPE   H3R18005   2.026   2.308  10.468 -0.5197  1.4620  1.8569
  161SOPE   H3S18006   2.193   2.347  10.452  0.4515  1.2854  0.4863
  161SOPE   C2418007   2.081   2.363  10.258 -0.0850  0.2126  0.4707
  161SOPE   H4R18008   2.157   2.425  10.206  0.3302 -3.0493 -3.0397
  161SOPE   H4S18009   2.110   2.262  10.225 -0.5084 -0.1922  1.3070
  161SOPE   C2518010   1.951   2.396  10.188  0.2871 -0.1018 -0.0487
  161SOPE   H5R18011   1.871   2.355  10.254 -0.1747  2.0769  0.7875
  161SOPE   H5S18012   1.934   2.505  10.203 -3.0909 -0.4621 -0.7341
  161SOPE   C2618013   1.950   2.369  10.039  1.4160 -0.3159  0.2990
  161SOPE   H6R18014   2.018   2.443   9.992  0.5110  1.6109  1.9584
  161SOPE   H6S18015   1.980   2.264  10.015  1.6274  0.0005 -0.8278
  161SOPE   C2718016   1.809   2.394   9.984 -1.0082 -0.1311  0.6807
  161SOPE   H7R18017   1.738   2.319  10.025 -0.4883 -0.3993  1.1114
  161SOPE   H7S18018   1.778   2.494  10.019 -2.5190 -0.4401  0.2320
  161SOPE   C2818019   1.799   2.408   9.830 -0.3816 -0.3272 -0.0635
  161SOPE   H8R18020   1.702   2.461   9.813 -0.0415  0.5519  0.6618
  161SOPE   H8S18021   1.884   2.470   9.796 -0.9479  1.4130  1.5757
  161SOPE   C2918022   1.815   2.274   9.758  0.5613  0.0182  0.1527
  161SOPE   H9118023   1.831   2.192   9.829 -1.5526 -1.5159 -1.0766
  161SOPE  C21018024   1.801   2.257   9.627 -0.3638  0.3682 -0.3159
  161SOPE  H10118025   1.789   2.154   9.591 -0.0809 -0.3708  1.6656
  161SOPE  C21118026   1.765   2.366   9.528 -0.4371 -0.0158 -0.1959
  161SOPE  H11R18027   1.822   2.459   9.548  1.0245 -0.7696 -0.8219
  161SOPE  H11S18028   1.656   2.387   9.540 -0.6682  0.2576 -2.5079
  161SOPE  C21218029   1.792   2.317   9.381  0.0375 -1.0209 -0.2514
  161SOPE  H12R18030   1.707   2.261   9.339 -0.2694  0.0760 -1.1001
  161SOPE  H12S18031   1.880   2.249   9.376  1.5634  0.9904 -1.3503
  161SOPE  C21318032   1.839   2.432   9.283 -1.0142  0.6421  0.1202
  161SOPE  H13R18033   1.875   2.519   9.342  1.0677  0.0817 -0.2760
  161SOPE  H13S18034   1.751   2.464   9.223  0.7808  0.3128 -2.8432
  161SOPE  C21418035   1.955   2.383   9.189 -0.6800 -0.2009 -1.0635
  161SOPE  H14R18036   2.045   2.365   9.250 -1.9069 -1.7550  0.3209
  161SOPE  H14S18037   1.969   2.465   9.115 -0.7149 -0.0592 -0.9126
  161SOPE  C21518038   1.924   2.251   9.122  0.8004  0.0833  0.3119
  161SOPE  H15R18039   1.813   2.241   9.125  0.7903  0.4740  1.6083
  161SOPE  H15S18040   1.969   2.170   9.183  0.9931 -0.1022 -0.0748
  161SOPE  C21618041   1.980   2.229   8.980  0.2488 -0.7496 -0.0396
  161SOPE  H16R18042   2.090   2.238   8.986  0.0246  3.5279 -0.7778
  161SOPE  H16S18043   1.955   2.316   8.915 -2.3492  0.9292  3.0643
  161SOPE  C21718044   1.943   2.096   8.927  0.1388  0.1244 -0.1622
  161SOPE  H17R18045   1.834   2.074   8.932  0.4807 -1.7357 -0.6124
  161SOPE  H17S18046   2.001   2.018   8.982  1.0791 -0.2074 -1.6210
  161SOPE  C21818047   1.986   2.086   8.778  0.6763 -0.1030  0.8111
  161SOPE  H18R18048   1.923   2.152   8.716  1.5687 -0.2373 -0.2543
  161SOPE  H18S18049   1.968   1.982   8.745 -0.9440  0.5025 -0.2252
  161SOPE  H18T18050   2.089   2.126   8.761  0.0712  1.0331 -0.2305
  161SOPE   C3318051   2.913   2.647  10.225 -0.3635 -0.2261 -0.0968
  161SOPE   H3X18052   2.919   2.576  10.310  3.5951  0.8717  0.6674
  161SOPE   H3Y18053   3.006   2.708  10.230  0.1119 -0.8629 -0.9347
  161SOPE   C3418054   2.911   2.579  10.090 -0.6641  1.4147  0.1851
  161SOPE   H4X18055   3.017   2.565  10.057 -1.8249 -1.1890 -2.6499
  161SOPE   H4Y18056   2.865   2.647  10.015 -3.1796 -2.1781 -1.6472
  161SOPE   C3518057   2.834   2.444  10.076  0.8378  0.0529  0.4657
  161SOPE   H5X18058   2.729   2.462  10.110  0.8221  1.4855 -0.2788
  161SOPE   H5Y18059   2.881   2.376  10.151  3.2723  0.0104 -1.0493
  161SOPE   C3618060   2.844   2.369   9.945  0.2081 -0.5754  0.2897
  161SOPE   H6X18061   2.788   2.274   9.956 -0.8100  0.2314  2.3615
  161SOPE   H6Y18062   2.951   2.346   9.923  0.6317 -0.2605  1.9830
  161SOPE   C3718063   2.791   2.448   9.822 -0.8290  0.2870 -0.2820
  161SOPE   H7X18064   2.847   2.544   9.817 -1.2932  0.4793 -2.4861
  161SOPE   H7Y18065   2.684   2.466   9.848 -0.0705  0.6965  2.7522
  161SOPE   C3818066   2.808   2.373   9.693  0.0117  0.0130 -0.3208
  161SOPE   H8X18067   2.742   2.284   9.702  0.9736 -0.9175 -2.0182
  161SOPE   H8Y18068   2.910   2.332   9.676  0.6707  1.5155 -0.0021
  161SOPE   C3918069   2.764   2.446   9.564 -0.5283 -0.2026  1.2407
  161SOPE   H9X18070   2.828   2.534   9.542 -1.1630  0.2212  1.0557
  161SOPE   H9Y18071   2.662   2.490   9.565 -0.8384 -0.8008 -1.7749
  161SOPE  C31018072   2.769   2.346   9.446 -0.2126 -0.5379  0.8902
  161SOPE  H10X18073   2.701   2.260   9.465 -1.3977 -0.0141 -0.8687
  161SOPE  H10Y18074   2.871   2.304   9.429 -0.3907 -0.2270 -1.1850
  161SOPE  C31118075   2.716   2.403   9.308  0.0302  0.6740 -0.5703
  161SOPE  H11X18076   2.618   2.450   9.329 -0.9180 -1.7819  0.6881
  161SOPE  H11Y18077   2.694   2.313   9.247 -0.1556 -0.9405  1.8084
  161SOPE  C31218078   2.814   2.495   9.231  0.5341  0.1599  0.1675
  161SOPE  H12X18079   2.915   2.451   9.217  0.2703  0.0935 -1.6481
  161SOPE  H12Y18080   2.827   2.589   9.288 -0.4565 -0.2614  1.1234
  161SOPE  C31318081   2.754   2.518   9.090 -0.0331 -0.0616 -0.2111
  161SOPE  H13X18082   2.664   2.583   9.083 -2.2496 -3.0863 -1.1889
  161SOPE  H13Y18083   2.722   2.419   9.052 -2.6850 -0.5263  3.0188
  161SOPE  C31418084   2.860   2.582   9.001  0.5455 -0.2038 -0.1005
  161SOPE  H14X18085   2.959   2.531   9.006  1.0970  0.5697 -2.4224
  161SOPE  H14Y18086   2.874   2.690   9.022  0.4566 -0.4294  1.1358
  161SOPE  C31518087   2.812   2.580   8.850 -0.7291  0.4475 -0.2999
  161SOPE  H15X18088   2.705   2.610   8.850 -0.9536 -0.3022  1.0831
  161SOPE  H15Y18089   2.836   2.483   8.801 -1.4117  1.2097 -2.1857
  161SOPE  C31618090   2.897   2.682   8.764 -0.3744  0.8917 -0.4371
  161SOPE  H16X18091   3.005   2.656   8.761 -0.5259  0.0428  0.8554
  161SOPE  H16Y18092   2.889   2.787   8.801 -0.3847  0.6529  0.2536
  161SOPE  C31718093   2.832   2.692   8.623  0.4013  0.1803 -0.2126
  161SOPE  H17X18094   2.733   2.740   8.637 -0.2325 -0.9423 -0.8017
  161SOPE  H17Y18095   2.828   2.586   8.593 -0.5980 -0.6671  2.7304
  161SOPE  C31818096   2.927   2.761   8.525  0.0371  0.0063 -0.9923
  161SOPE  H18X18097   2.895   2.739   8.421 -1.8438  2.2953 -0.9375
  161SOPE  H18Y18098   3.032   2.731   8.548 -1.0258 -2.6540  0.6300
  161SOPE  H18Z18099   2.924   2.869   8.551  1.2060 -0.0846 -0.4318
  162SOPE     N18100   1.500   1.937  10.875 -0.3739 -0.2596 -0.5130
  162SOPE   HN118101   1.438   1.939  10.959  1.0230 -1.6334  0.5598
  162SOPE   HN218102   1.476   1.855  10.817  2.3742 -0.9483 -0.7536
  162SOPE   HN318103   1.599   1.907  10.888 -0.4767 -0.8755 -1.1812
  162SOPE   C1218104   1.493   2.063  10.798 -0.0676  0.3571  0.5275
  162SOPE  H12A18105   1.578   2.062  10.726 -1.7750  2.8913 -1.6169
  162SOPE  H12B18106   1.514   2.143  10.872  0.9912 -0.0690  0.6996
  162SOPE   C1118107   1.358   2.073  10.735 -0.0361  0.4673 -0.0054
  162SOPE  H11A18108   1.368   1.997  10.655  0.0068  0.5175 -0.0467
  162SOPE  H11B18109   1.347   2.172  10.686  1.0304  0.4273 -0.3292
  162SOPE     P18110   1.185   2.147  10.909  0.0467 -0.1095  0.2215
  162SOPE   O1318111   1.280   2.224  10.984 -0.1288  0.1631 -0.1677
  162SOPE   O1418112   1.074   2.085  10.983  0.1179  0.0697  0.4429
  162SOPE   O1218113   1.247   2.038  10.822  0.1067 -0.3771  1.1741
  162SOPE   O1118114   1.120   2.245  10.796 -0.5132  0.4599  0.2878
  162SOPE    C118115   1.013   2.199  10.710  0.1066 -0.1597  0.8913
  162SOPE    HA18116   0.914   2.248  10.729 -0.6787 -0.5225 -1.9138
  162SOPE    HB18117   0.985   2.092  10.716 -0.6471  0.0475  1.2191
  162SOPE    C218118   1.043   2.214  10.549  0.2241 -0.1013  0.2417
  162SOPE    HS18119   1.142   2.172  10.522 -0.8077 -2.2723 -0.3369
  162SOPE   O2118120   1.042   2.350  10.508  0.0313  0.0462 -0.0684
  162SOPE   C2118121   1.123   2.379  10.405 -0.9194  0.5695 -0.1164
  162SOPE   O2218122   1.213   2.311  10.363  0.8236  0.7871  1.0452
  162SOPE   C2218123   1.085   2.514  10.348 -0.2084 -1.2391 -0.9961
  162SOPE   H2R18124   1.068   2.588  10.429  2.7037  0.7508 -2.1327
  162SOPE   H2S18125   0.976   2.510  10.325 -0.7112 -0.1407  1.0258
  162SOPE    C318126   0.935   2.132  10.477  0.7058 -0.2589  0.5106
  162SOPE    HX18127   0.838   2.155  10.524 -0.2514 -1.0085 -1.0658
  162SOPE    HY18128   0.957   2.023  10.486 -1.0520 -0.9587 -2.6558
  162SOPE   O3118129   0.934   2.168  10.340  0.1423 -0.5008 -0.2086
  162SOPE   C3118130   1.006   2.102  10.248 -0.2188  0.6858 -0.0840
  162SOPE   O3218131   1.066   2.000  10.272  0.0110  0.4766 -0.0143
  162SOPE   C3218132   0.975   2.153  10.109  0.1231  0.0592 -0.0703
  162SOPE   H2X18133   1.004   2.260  10.098  0.2016 -0.0849 -1.3358
  162SOPE   H2Y18134   0.870   2.129  10.084 -0.6947  2.2590  1.0623
  162SOPE   C2318135   1.180   2.566  10.234  0.2230 -0.2639  0.5192
  162SOPE   H3R18136   1.202   2.482  10.164 -1.7131  1.1521 -1.9102
  162SOPE   H3S18137   1.281   2.600  10.265 -0.0369  0.8429  0.1528
  162SOPE   C2418138   1.110   2.679  10.157  0.3518  0.0609 -0.1031
  162SOPE   H4R18139   1.005   2.649  10.136  0.6697  0.8074 -2.9353
  162SOPE   H4S18140   1.105   2.767  10.224  2.3268  0.2843 -0.2285
  162SOPE   C2518141   1.190   2.700  10.030 -0.2468 -0.6659  0.0086
  162SOPE   H5R18142   1.265   2.780  10.046 -1.0672  0.2088 -0.5114
  162SOPE   H5S18143   1.233   2.602  10.000  1.5997 -0.9355  3.2607
  162SOPE   C2618144   1.100   2.763   9.918 -0.8764  0.3169 -0.0590
  162SOPE   H6R18145   1.046   2.851   9.957 -0.3306  1.0305 -0.8958
  162SOPE   H6S18146   1.167   2.803   9.838  0.7738 -2.1397  0.0325
  162SOPE   C2718147   1.001   2.663   9.856  0.4929 -0.3131 -0.7683
  162SOPE   H7R18148   1.046   2.561   9.851  0.7822 -0.2840  1.1712
  162SOPE   H7S18149   0.911   2.655   9.920  2.4276 -1.9811  1.8620
  162SOPE   C2818150   0.952   2.702   9.714 -0.1436 -0.3207  0.1474
  162SOPE   H8R18151   1.044   2.713   9.654 -1.1580  1.9328 -1.0693
  162SOPE   H8S18152   0.900   2.618   9.663 -1.0351  1.9352 -2.7897
  162SOPE   C2918153   0.865   2.829   9.696  0.3226  0.0652 -0.9731
  162SOPE   H9118154   0.767   2.833   9.747  1.4342  0.4762  1.1769
  162SOPE  C21018155   0.893   2.934   9.623  0.6334  0.1447 -0.1328
  162SOPE  H10118156   0.823   3.017   9.607  1.2900  0.9034  0.7969
  162SOPE  C21118157   1.016   2.950   9.542 -0.8117  0.2910 -0.4854
  162SOPE  H11R18158   1.107   2.900   9.583  0.7306  2.6257 -0.9530
  162SOPE  H11S18159   1.042   3.058   9.533 -0.0405  0.3477  1.9340
  162SOPE  C21218160   0.996   2.899   9.397  0.3498  0.6557 -0.4425
  162SOPE  H12R18161   0.963   2.793   9.399 -1.0466  1.0987  0.2099
  162SOPE  H12S18162   1.098   2.901   9.352 -0.2363  1.2021 -1.7691
  162SOPE  C21318163   0.889   2.954   9.299 -0.1610 -0.3428 -0.2681
  162SOPE  H13R18164   0.902   3.064   9.287  1.6637 -0.6161 -0.8847
  162SOPE  H13S18165   0.786   2.925   9.330  0.3602 -0.0169  1.8025
  162SOPE  C21418166   0.901   2.894   9.154 -0.0786  0.2592  0.2779
  162SOPE  H14R18167   0.872   2.787   9.160  0.2283  0.2182  1.1680
  162SOPE  H14S18168   1.002   2.910   9.111 -0.5859  0.8194 -0.7144
  162SOPE  C21518169   0.809   2.976   9.061  0.3883  0.5091 -1.1894
  162SOPE  H15R18170   0.790   3.068   9.121  2.6698  0.7645 -0.7852
  162SOPE  H15S18171   0.708   2.934   9.040  1.4673 -1.8681 -1.8330
  162SOPE  C21618172   0.862   3.015   8.921 -0.1721  0.1925  0.5576
  162SOPE  H16R18173   0.777   3.051   8.859 -0.5003  0.2331  1.0269
  162SOPE  H16S18174   0.906   2.929   8.867  1.4319  0.0615  2.0454
  162SOPE  C21718175   0.975   3.129   8.921 -0.3135 -0.3673 -0.1596
  162SOPE  H17R18176   1.055   3.097   8.991 -0.5733  1.5336  1.0307
  162SOPE  H17S18177   0.928   3.218   8.967  2.8704  1.2151  0.1789
  162SOPE  C21818178   1.033   3.163   8.779  0.0609 -0.7279  0.5808
  162SOPE  H18R18179   1.071   3.075   8.724  1.8120 -0.8789  1.9921
  162SOPE  H18S18180   1.121   3.230   8.789  0.1595 -0.6785 -0.5926
  162SOPE  H18T18181   0.948   3.195   8.715 -0.3639 -2.6706  0.1520
  162SOPE   C3318182   1.059   2.088   9.999 -0.3744 -0.6720  0.2366
  162SOPE   H3X18183   1.167   2.081  10.024 -0.0159  2.1655 -0.3464
  162SOPE   H3Y18184   1.056   2.142   9.902  2.0736  0.6282  0.8479
  162SOPE   C3418185   0.997   1.942   9.972 -0.3506 -0.7945 -0.4910
  162SOPE   H4X18186   0.897   1.950   9.925  0.2905  2.8663 -1.4003
  162SOPE   H4Y18187   0.982   1.894  10.071  0.7545 -1.5433 -0.6692
  162SOPE   C3518188   1.095   1.858   9.889 -0.2902  0.2541  0.4823
  162SOPE   H5X18189   1.052   1.756   9.876  0.4588  0.1747 -1.6785
  162SOPE   H5Y18190   1.192   1.840   9.941  0.2260  0.1554 -0.4981
  162SOPE   C3618191   1.109   1.904   9.747  0.2869 -0.4194  0.2862
  162SOPE   H6X18192   1.201   1.865   9.699 -0.4976 -1.2811 -0.5673
  162SOPE   H6Y18193   1.111   2.015   9.752 -0.7122 -0.3002 -1.3570
  162SOPE   C3718194   0.997   1.853   9.652 -0.3300 -0.0607  1.0572
  162SOPE   H7X18195   0.902   1.905   9.677 -0.5903 -0.5608  1.1015
  162SOPE   H7Y18196   0.976   1.744   9.656 -0.9805  0.0787  1.4043
  162SOPE   C3818197   1.033   1.869   9.505 -0.0590 -0.1073  0.8194
  162SOPE   H8X18198   0.957   1.810   9.450 -0.4267  0.4223  0.7479
  162SOPE   H8Y18199   1.135   1.831   9.483  0.2054  0.8195  0.4165
  162SOPE   C3918200   1.021   2.010   9.451  0.7214  0.6783  0.4744
  162SOPE   H9X18201   1.086   2.079   9.509 -1.9522  3.4029  0.3624
  162SOPE   H9Y18202   0.921   2.049   9.479 -0.4464  1.1268 -3.8887
  162SOPE  C31018203   1.055   2.023   9.308  0.0589 -0.2709  1.0022
  162SOPE  H10X18204   1.146   1.971   9.273  1.1373  3.1033 -1.5067
  162SOPE  H10Y18205   1.089   2.127   9.287 -0.1530 -0.1284  1.3541
  162SOPE  C31118206   0.943   1.984   9.218 -0.2098 -0.3064 -0.3745
  162SOPE  H11X18207   0.855   2.046   9.245 -2.9222 -3.8259 -0.6628
  162SOPE  H11Y18208   0.909   1.882   9.247  0.7669 -0.1372  1.4114
  162SOPE  C31218209   0.990   1.995   9.073 -0.9619  0.1265  0.0201
  162SOPE  H12X18210   0.912   1.945   9.011  1.2324 -1.9826 -1.1279
  162SOPE  H12Y18211   1.083   1.937   9.050 -1.0278  0.1424 -0.2907
  162SOPE  C31318212   0.989   2.137   9.011 -0.1337  0.0019  0.2507
  162SOPE  H13X18213   1.065   2.207   9.053 -1.0658  1.0811  0.1641
  162SOPE  H13Y18214   0.892   2.178   9.045 -0.1227  0.7531 -0.5861
  162SOPE  C31418215   0.992   2.136   8.855 -0.4891  0.2706  0.1195
  162SOPE  H14X18216   0.899   2.088   8.820  1.0257 -0.7543 -2.7271
  162SOPE  H14Y18217   1.080   2.087   8.808  0.6700  1.5457  0.9008
  162SOPE  C31518218   1.015   2.279   8.793  0.4891  0.3512  1.1030
  162SOPE  H15X18219   1.056   2.268   8.691  0.1508 -0.2743  1.0302
  162SOPE  H15Y18220   1.093   2.329   8.855  0.2385  1.9632  0.1355
  162SOPE  C31618221   0.890   2.373   8.791  0.1430 -0.4711 -0.1441
  162SOPE  H16X18222   0.837   2.386   8.888  1.6914  0.4450  0.6056
  162SOPE  H16Y18223   0.817   2.322   8.725  1.3018 -1.7299 -0.4905
  162SOPE  C31718224   0.918   2.512   8.732  0.4991 -0.4617  0.3510
  162SOPE  H17X18225   0.820   2.558   8.706  0.7086  1.5440  2.9798
  162SOPE  H17Y18226   0.987   2.490   8.648  1.0677  1.5755  0.2545
  162SOPE  C31818227   0.989   2.622   8.813  0.3314 -0.1784 -0.1241
  162SOPE  H18X18228   1.024   2.709   8.753 -1.2511  0.1480 -0.5880
  162SOPE  H18Y18229   1.072   2.581   8.875  0.9973  0.4155 -0.6111
  162SOPE  H18Z18230   0.918   2.666   8.886  1.3122 -0.0668  0.7794
  163SOPE     N18231   2.537   0.570  10.938  1.1875  0.0783  0.0016
  163SOPE   HN118232   2.564   0.542  10.841 -2.4734 -0.2867 -1.0282
  163SOPE   HN218233   2.437   0.599  10.930  1.1010 -0.0594  0.5871
  163SOPE   HN318234   2.585   0.656  10.970 -1.5803  1.2878  1.1340
  163SOPE   C1218235   2.564   0.452  11.029  1.0113  0.1539  0.1227
  163SOPE  H12A18236   2.487   0.443  11.108  0.5340  0.4404 -0.3023
  163SOPE  H12B18237   2.660   0.478  11.078 -0.3003 -0.0478  2.8857
  163SOPE   C1118238   2.584   0.328  10.932  0.1096 -0.5973  0.4265
  163SOPE  H11A18239   2.574   0.245  11.005 -0.9219 -1.4710 -0.6740
  163SOPE  H11B18240   2.687   0.335  10.892 -0.7961 -1.0212 -2.0459
  163SOPE     P18241   2.486   0.194  10.735  0.2999  0.1916 -0.4072
  163SOPE   O1318242   2.384   0.218  10.631 -0.3068  0.2271  0.2100
  163SOPE   O1418243   2.463   0.076  10.828 -0.4519 -0.3932  0.0278
  163SOPE   O1218244   2.489   0.328  10.826  0.0814 -0.4000  0.1404
  163SOPE   O1118245   2.627   0.181  10.673 -0.5977  0.1606 -0.1704
  163SOPE    C118246   2.694   0.285  10.606  0.1055 -0.4061  0.0462
  163SOPE    HA18247   2.804   0.269  10.607  0.0455 -0.9556 -1.2585
  163SOPE    HB18248   2.676   0.381  10.658  0.6027 -0.0756 -0.3942
  163SOPE    C218249   2.670   0.264  10.451  0.1814  0.6266 -0.1619
  163SOPE    HS18250   2.745   0.326  10.398 -1.3314  1.1518 -1.7345
  163SOPE   O2118251   2.539   0.303  10.408  0.2425  0.3181  0.2626
  163SOPE   C2118252   2.525   0.437  10.398 -0.0042  0.2561 -0.7636
  163SOPE   O2218253   2.598   0.525  10.443  0.7319 -0.4810  0.0502
  163SOPE   C2218254   2.399   0.474  10.323  0.1813 -0.0886  0.3905
  163SOPE   H2R18255   2.438   0.490  10.220 -0.6640 -1.4459 -0.1576
  163SOPE   H2S18256   2.357   0.562  10.376  0.4580  0.5271 -0.4122
  163SOPE    C318257   2.691   0.115  10.421  0.0727 -0.0108  0.2629
  163SOPE    HX18258   2.621   0.053  10.481  1.2764 -0.4601  1.2035
  163SOPE    HY18259   2.790   0.079  10.455  0.7793 -0.1303 -1.8191
  163SOPE   O3118260   2.689   0.079  10.281 -0.1734  0.1342 -0.2705
  163SOPE   C3118261   2.568   0.049  10.226  0.0041 -0.0929 -0.0845
  163SOPE   O3218262   2.464   0.024  10.284  0.1203 -0.2866 -0.1239
  163SOPE   C3218263   2.589   0.042  10.070 -0.1345 -0.2350 -0.4517
  163SOPE   H2X18264   2.673  -0.026  10.045 -0.1934 -0.3802 -0.2598
  163SOPE   H2Y18265   2.634   0.141  10.047 -0.7990 -0.3469 -2.2496
  163SOPE   C2318266   2.297   0.356  10.314 -0.2641 -0.2497 -0.1134
  163SOPE   H3R18267   2.268   0.342  10.420 -1.0227 -0.2663 -0.3164
  163SOPE   H3S18268   2.347   0.264  10.277  0.6394  0.0026  0.4778
  163SOPE   C2418269   2.162   0.379  10.243  0.0838 -0.4169  0.1477
  163SOPE   H4R18270   2.101   0.286  10.250 -2.3912  1.2509  1.3738
  163SOPE   H4S18271   2.106   0.466  10.281  1.3266 -0.3602  1.8972
  163SOPE   C2518272   2.182   0.377  10.087  0.2662 -0.1494  0.1962
  163SOPE   H5R18273   2.231   0.472  10.060 -1.9755  0.7267 -0.9081
  163SOPE   H5S18274   2.245   0.289  10.062 -0.5475 -1.0737  1.2762
  163SOPE   C2618275   2.047   0.382  10.011 -0.1920  0.1295 -0.3497
  163SOPE   H6R18276   1.982   0.300  10.047  0.7918 -0.4007  0.2490
  163SOPE   H6S18277   1.994   0.474  10.043  0.3662 -0.3257  1.9665
  163SOPE   C2718278   2.058   0.386   9.854 -0.9816 -0.2663  0.6543
  163SOPE   H7R18279   2.147   0.451   9.846  1.7058 -3.6458  1.8607
  163SOPE   H7S18280   2.087   0.288   9.809  0.4742 -0.0032  0.9999
  163SOPE   C2818281   1.933   0.434   9.779  0.1700 -0.1786  0.4834
  163SOPE   H8R18282   1.866   0.346   9.768  1.0628 -0.9009  0.8060
  163SOPE   H8S18283   1.881   0.513   9.838  1.6409  1.6462 -0.6232
  163SOPE   C2918284   1.944   0.509   9.647  0.0453 -0.2078 -0.1909
  163SOPE   H9118285   1.922   0.616   9.657  0.1329 -0.1243 -0.8496
  163SOPE  C21018286   1.977   0.471   9.523 -0.6772 -0.0864 -0.3010
  163SOPE  H10118287   1.967   0.544   9.442  0.4066  2.1266  1.5166
  163SOPE  C21118288   2.018   0.334   9.467 -0.1416 -0.1876  0.3700
  163SOPE  H11R18289   2.055   0.275   9.554  1.6436  1.7750  0.9817
  163SOPE  H11S18290   2.109   0.347   9.405 -1.9352  3.1943 -1.6574
  163SOPE  C21218291   1.906   0.268   9.385 -0.2532  0.9210  0.2929
  163SOPE  H12R18292   1.820   0.250   9.454  0.1263 -0.5183  0.4198
  163SOPE  H12S18293   1.928   0.165   9.348  0.4094  0.4542  1.9430
  163SOPE  C21318294   1.854   0.349   9.261 -0.0173  0.1210 -0.2809
  163SOPE  H13R18295   1.943   0.372   9.198  0.4388 -1.6685 -0.2923
  163SOPE  H13S18296   1.813   0.446   9.298  0.9603  0.1045  0.8640
  163SOPE  C21418297   1.748   0.258   9.193  0.4211  0.8288 -0.2358
  163SOPE  H14R18298   1.680   0.229   9.276  0.6671  1.3032  0.1293
  163SOPE  H14S18299   1.804   0.168   9.158 -0.2622  0.3390 -0.0874
  163SOPE  C21518300   1.676   0.330   9.082  0.2582 -0.5318 -0.1333
  163SOPE  H15R18301   1.741   0.347   8.994  0.2098 -1.1397 -0.2908
  163SOPE  H15S18302   1.646   0.425   9.131  1.3494 -1.7592  2.9821
  163SOPE  C21618303   1.557   0.254   9.029  0.3759  0.1174 -0.0842
  163SOPE  H16R18304   1.494   0.327   8.975 -2.2232 -2.1450 -0.1820
  163SOPE  H16S18305   1.506   0.222   9.122 -3.2016  1.3116 -1.5734
  163SOPE  C21718306   1.603   0.139   8.939 -0.2556 -0.0208  0.0655
  163SOPE  H17R18307   1.661   0.061   8.993 -0.9417 -1.9169 -1.8162
  163SOPE  H17S18308   1.666   0.180   8.857  0.4112  0.5191  0.8499
  163SOPE  C21818309   1.489   0.067   8.862  0.2828 -0.6681  0.1094
  163SOPE  H18R18310   1.401   0.056   8.929  2.5975  2.3599  3.9012
  163SOPE  H18S18311   1.522  -0.035   8.833  0.7915 -0.7963  1.0955
  163SOPE  H18T18312   1.471   0.131   8.774  1.5708  0.0512  0.3473
  163SOPE   C3318313   2.463   0.026   9.980 -0.1234  0.4086 -0.7391
  163SOPE   H3X18314   2.371   0.061  10.032 -0.7790 -0.7484 -1.1048
  163SOPE   H3Y18315   2.450  -0.082   9.961  0.2965  0.3061 -0.4449
  163SOPE   C3418316   2.464   0.098   9.841 -0.2359 -0.1074 -0.1693
  163SOPE   H4X18317   2.571   0.094   9.810 -0.2438  2.8084 -0.6671
  163SOPE   H4Y18318   2.428   0.202   9.856 -0.9191 -0.2949 -0.4775
  163SOPE   C3518319   2.363   0.028   9.752 -0.1955  0.3284  0.1944
  163SOPE   H5X18320   2.266   0.008   9.802 -0.3352 -1.3182 -0.7224
  163SOPE   H5Y18321   2.410  -0.070   9.730  1.2194  0.9552  0.3388
  163SOPE   C3618322   2.343   0.103   9.618 -0.0746 -0.2184  0.2869
  163SOPE   H6X18323   2.439   0.139   9.576  0.2305 -3.0575 -1.5993
  163SOPE   H6Y18324   2.268   0.184   9.627  0.9899  0.8920 -0.7448
  163SOPE   C3718325   2.286   0.003   9.522 -0.0289 -0.2819  0.2437
  163SOPE   H7X18326   2.190  -0.036   9.563  0.4063 -0.0163  1.5425
  163SOPE   H7Y18327   2.357  -0.080   9.504  0.4127 -0.2554  1.7822
  163SOPE   C3818328   2.247   0.067   9.384  0.7656 -0.3197 -0.7751
  163SOPE   H8X18329   2.347   0.098   9.346  0.6945  2.8155  1.3616
  163SOPE   H8Y18330   2.181   0.153   9.408 -0.7470 -1.1680 -1.8042
  163SOPE   C3918331   2.196  -0.032   9.284  0.4643  0.3637  0.3513
  163SOPE   H9X18332   2.093  -0.058   9.317  0.9151 -0.9818  0.7093
  163SOPE   H9Y18333   2.238  -0.135   9.282 -2.5527 -0.9450  0.6881
  163SOPE  C31018334   2.199   0.010   9.137  0.2804 -0.3373  0.1372
  163SOPE  H10X18335   2.303   0.016   9.099  0.4182 -3.2282 -0.0366
  163SOPE  H10Y18336   2.170   0.117   9.126 -1.8191 -0.8162  0.8125
  163SOPE  C31118337   2.106  -0.071   9.046 -0.3892 -0.1481 -0.4069
  163SOPE  H11X18338   2.017  -0.097   9.107  0.2056 -0.2867  0.4179
  163SOPE  H11Y18339   2.149  -0.170   9.021 -1.2049 -0.3274 -1.1227
  163SOPE  C31218340   2.074   0.005   8.918  0.0050 -0.3280  0.3991
  163SOPE  H12X18341   2.163   0.037   8.861 -0.8095  2.0551  0.4110
  163SOPE  H12Y18342   2.040   0.108   8.940  1.2683  0.1124  0.2839
  163SOPE  C31318343   1.972  -0.073   8.834  0.0660 -0.0457 -0.4035
  163SOPE  H13X18344   1.882  -0.107   8.889  0.1711  0.5179  0.1242
  163SOPE  H13Y18345   2.031  -0.156   8.788 -0.4720 -0.7458  0.1604
  163SOPE  C31418346   1.918   0.004   8.714 -0.1759  0.1209 -0.0476
  163SOPE  H14X18347   2.007   0.043   8.660 -0.8579  0.4214 -0.9630
  163SOPE  H14Y18348   1.861   0.095   8.743 -0.3690 -0.0473  0.1060
  163SOPE  C31518349   1.834  -0.083   8.629 -0.0349 -0.7207  0.6440
  163SOPE  H15X18350   1.740  -0.102   8.685 -0.5559  0.1462  0.0805
  163SOPE  H15Y18351   1.884  -0.181   8.616  0.4977 -0.7994  3.0028
  163SOPE  C31618352   1.805  -0.016   8.493 -1.0026 -0.3458 -0.4364
  163SOPE  H16X18353   1.882  -0.061   8.426 -0.5259 -0.6094  0.2880
  163SOPE  H16Y18354   1.822   0.094   8.495 -1.5952 -0.2407 -0.9218
  163SOPE  C31718355   1.675  -0.034   8.415  0.2474  0.3774  0.3014
  163SOPE  H17X18356   1.593   0.016   8.470  0.8433  2.2809 -0.5261
  163SOPE  H17Y18357   1.652  -0.142   8.432  0.6550  0.2119 -0.1818
  163SOPE  C31818358   1.677  -0.000   8.259 -0.0473  0.2061  0.3328
  163SOPE  H18X18359   1.695   0.108   8.240  0.2296 -0.0772 -1.0749
  163SOPE  H18Y18360   1.574  -0.015   8.220 -0.0064 -1.5339  0.8174
  163SOPE  H18Z18361   1.746  -0.066   8.201  0.7406  0.8823  0.4955
  164SOPE     N18362   4.528   4.909  10.657 -0.4294  0.1731 -0.6533
  164SOPE   HN118363   4.430   4.916  10.624 -0.0247  0.1065 -1.9128
  164SOPE   HN218364   4.548   4.989  10.719  1.3555 -0.5793 -0.2301
  164SOPE   HN318365   4.593   4.916  10.576  2.1214  0.4448  1.3695
  164SOPE   C1218366   4.557   4.780  10.726 -0.9513 -0.7773  0.1929
  164SOPE  H12A18367   4.564   4.694  10.655  0.0249 -0.4498 -0.1127
  164SOPE  H12B18368   4.473   4.754  10.794 -1.7408 -0.0975 -0.5029
  164SOPE   C1118369   4.684   4.776  10.808  0.2847 -0.1480 -0.4872
  164SOPE  H11A18370   4.694   4.671  10.843  0.9333 -0.3191 -1.1810
  164SOPE  H11B18371   4.664   4.835  10.899  1.1403  1.7801 -1.5268
  164SOPE     P18372   4.948   4.808  10.789 -0.3613 -0.4318 -0.1216
  164SOPE   O1318373   4.967   4.709  10.896 -0.2633  0.6854  0.1143
  164SOPE   O1418374   5.009   4.943  10.806  0.2394  0.4331 -0.1186
  164SOPE   O1218375   4.796   4.824  10.732  0.0254  0.6432  0.5758
  164SOPE   O1118376   5.027   4.751  10.659  0.3212 -0.4203  0.2407
  164SOPE    C118377   4.953   4.741  10.538  0.8848 -0.3220  0.9982
  164SOPE    HA18378   4.903   4.840  10.525 -0.2035 -0.9529  0.3208
  164SOPE    HB18379   4.879   4.659  10.553 -0.7179  1.5340  3.7145
  164SOPE    C218380   5.042   4.699  10.421 -0.5068 -0.1189  0.4814
  164SOPE    HS18381   5.081   4.597  10.444 -0.0165 -0.4786 -1.8019
  164SOPE   O2118382   5.145   4.796  10.409 -0.1697  0.3496 -0.2162
  164SOPE   C2118383   5.260   4.739  10.377 -0.1315  0.6450  0.0871
  164SOPE   O2218384   5.289   4.630  10.337  0.3379 -0.1085  0.0389
  164SOPE   C2218385   5.364   4.848  10.391  0.3259 -0.6696 -0.3829
  164SOPE   H2R18386   5.363   4.888  10.494 -0.5223  0.9764 -1.0027
  164SOPE   H2S18387   5.346   4.939  10.330 -0.0003  0.0701  0.8230
  164SOPE    C318388   4.960   4.674  10.285 -0.5725  0.6923  0.2092
  164SOPE    HX18389   4.947   4.777  10.245 -1.3333  1.2354  1.8584
  164SOPE    HY18390   4.863   4.625  10.310 -1.2076  1.3756 -0.8660
  164SOPE   O3118391   5.032   4.593  10.203  0.3086  0.1026 -0.6761
  164SOPE   C3118392   4.990   4.584  10.080 -0.8971 -0.6088  0.5030
  164SOPE   O3218393   4.889   4.634  10.038 -0.3226 -0.0038  0.1587
  164SOPE   C3218394   5.090   4.498   9.991 -0.1148 -0.1782 -0.2412
  164SOPE   H2X18395   5.123   4.413  10.055  2.2785 -1.1153 -2.6241
  164SOPE   H2Y18396   5.185   4.554   9.973  0.8646 -1.6340  0.2750
  164SOPE   C2318397   5.497   4.807  10.341  0.0810  0.1392 -0.7307
  164SOPE   H3R18398   5.514   4.700  10.362  0.3561 -0.0506 -1.8526
  164SOPE   H3S18399   5.573   4.862  10.400 -1.2884 -0.1597  1.3322
  164SOPE   C2418400   5.522   4.834  10.182  0.2184 -0.0719  0.5643
  164SOPE   H4R18401   5.470   4.929  10.157  3.1241  1.0763 -1.2896
  164SOPE   H4S18402   5.629   4.851  10.161 -0.0110 -0.8777 -1.3246
  164SOPE   C2518403   5.472   4.720  10.091  0.0873  0.2954 -0.0679
  164SOPE   H5R18404   5.510   4.624  10.132  1.9445 -0.1330 -2.6825
  164SOPE   H5S18405   5.362   4.708  10.105  0.1288 -0.0792 -0.0488
  164SOPE   C2618406   5.497   4.729   9.937  0.1002 -0.3998  0.7023
  164SOPE   H6R18407   5.507   4.836   9.909 -0.4977 -0.5647 -0.1638
  164SOPE   H6S18408   5.596   4.680   9.927  0.0753 -0.4108  0.5102
  164SOPE   C2718409   5.403   4.646   9.847 -0.1213 -0.1729  0.5364
  164SOPE   H7R18410   5.404   4.538   9.876  0.6213 -0.4232 -0.3942
  164SOPE   H7S18411   5.299   4.685   9.844 -0.4816 -1.2135 -1.1949
  164SOPE   C2818412   5.460   4.643   9.702 -0.1784 -0.1028  0.5397
  164SOPE   H8R18413   5.553   4.581   9.702 -1.0174 -1.4917 -2.6526
  164SOPE   H8S18414   5.383   4.588   9.644  0.4194 -0.3924  0.0034
  164SOPE   C2918415   5.496   4.783   9.656 -0.6268 -0.3037 -0.4190
  164SOPE   H9118416   5.442   4.865   9.706 -1.8874 -0.1450 -1.9835
  164SOPE  C21018417   5.576   4.814   9.557 -0.7878 -0.8838  1.3053
  164SOPE  H10118418   5.611   4.917   9.537 -0.3451 -1.0341  1.3035
  164SOPE  C21118419   5.644   4.712   9.474 -0.1656  0.1958  0.0516
  164SOPE  H11R18420   5.643   4.607   9.508  0.1391 -0.1340 -0.9551
  164SOPE  H11S18421   5.750   4.737   9.453  0.5735 -1.3783  1.8484
  164SOPE  C21218422   5.569   4.732   9.339  0.3685  1.2617 -0.1777
  164SOPE  H12R18423   5.564   4.837   9.304  2.8285  2.2178  2.1155
  164SOPE  H12S18424   5.464   4.699   9.330  0.7536  0.8565 -3.7730
  164SOPE  C21318425   5.641   4.648   9.230  0.5149 -0.4263  0.5204
  164SOPE  H13R18426   5.611   4.543   9.253 -2.1934  0.4230  1.0398
  164SOPE  H13S18427   5.751   4.643   9.238  0.4435 -1.0448  1.2190
  164SOPE  C21418428   5.594   4.696   9.090 -0.0067  0.2777  0.7598
  164SOPE  H14R18429   5.577   4.806   9.094  0.8536  0.4453 -0.1344
  164SOPE  H14S18430   5.497   4.646   9.070  0.9208 -0.8366 -1.1060
  164SOPE  C21518431   5.681   4.660   8.965 -0.3247  0.7234 -0.8623
  164SOPE  H15R18432   5.706   4.552   8.978  1.1548  1.0433 -0.9484
  164SOPE  H15S18433   5.778   4.712   8.975  1.3269 -2.2631 -0.5515
  164SOPE  C21618434   5.621   4.688   8.830  0.2798 -0.1530 -0.3259
  164SOPE  H16R18435   5.517   4.652   8.820  0.5242 -0.3231 -2.4684
  164SOPE  H16S18436   5.676   4.631   8.752  1.2180 -2.0386  1.6625
  164SOPE  C21718437   5.625   4.832   8.798 -0.4271  0.5208 -0.4308
  164SOPE  H17R18438   5.734   4.855   8.804 -0.1925 -0.5405 -0.4972
  164SOPE  H17S18439   5.577   4.896   8.874 -3.5396 -1.5884 -0.4981
  164SOPE  C21818440   5.573   4.857   8.660  0.5855 -0.0352 -0.2573
  164SOPE  H18R18441   5.611   4.792   8.577  0.1030 -1.9378  0.9814
  164SOPE  H18S18442   5.593   4.965   8.642  1.9027  0.0318  1.4660
  164SOPE  H18T18443   5.462   4.850   8.659  0.7182 -2.4831 -1.7489
  164SOPE   C3318444   5.022   4.459   9.858  0.2805  0.0228  1.0895
  164SOPE   H3X18445   4.998   4.553   9.805  0.7087 -1.7024 -2.3474
  164SOPE   H3Y18446   4.938   4.387   9.870 -1.3958  1.6982 -0.3495
  164SOPE   C3418447   5.120   4.389   9.767 -0.0796  0.2764  0.1091
  164SOPE   H4X18448   5.141   4.292   9.816  0.6522 -0.1122 -0.9427
  164SOPE   H4Y18449   5.214   4.449   9.767 -2.1138  3.5599  1.1722
  164SOPE   C3518450   5.069   4.366   9.624 -0.0475  0.1844  0.3332
  164SOPE   H5X18451   5.010   4.457   9.601 -0.6663 -0.2322  0.2788
  164SOPE   H5Y18452   4.991   4.288   9.613  1.3204 -1.0841 -0.6174
  164SOPE   C3618453   5.188   4.343   9.529 -0.6530  0.2247 -0.0078
  164SOPE   H6X18454   5.231   4.445   9.520 -0.2958 -0.0190 -1.1164
  164SOPE   H6Y18455   5.152   4.305   9.431 -0.1707  0.2829 -0.2064
  164SOPE   C3718456   5.299   4.249   9.584  0.3809  0.5759 -0.2032
  164SOPE   H7X18457   5.249   4.151   9.601 -1.1001  0.9604 -2.0898
  164SOPE   H7Y18458   5.341   4.284   9.681  1.0588  0.4902 -0.4634
  164SOPE   C3818459   5.418   4.246   9.489  0.2773 -0.2499 -0.7841
  164SOPE   H8X18460   5.483   4.163   9.525 -0.5580 -1.0756 -1.1535
  164SOPE   H8Y18461   5.474   4.341   9.503  0.0688 -0.1980 -0.2669
  164SOPE   C3918462   5.373   4.249   9.344 -0.2737 -0.2528 -1.0310
  164SOPE   H9X18463   5.311   4.340   9.328 -0.1020 -0.0234 -0.4060
  164SOPE   H9Y18464   5.308   4.161   9.326 -0.4771 -0.4727  0.6601
  164SOPE  C31018465   5.493   4.248   9.245  0.1825  0.0804 -0.0956
  164SOPE  H10X18466   5.546   4.150   9.244 -0.4907 -0.2827 -1.0943
  164SOPE  H10Y18467   5.571   4.315   9.287 -0.6078 -0.0601  1.6337
  164SOPE  C31118468   5.462   4.282   9.098 -0.5041  0.2348 -0.1637
  164SOPE  H11X18469   5.441   4.391   9.095 -4.8128 -0.4778  0.5409
  164SOPE  H11Y18470   5.380   4.236   9.039  0.5732  1.8787 -3.0847
  164SOPE  C31218471   5.590   4.261   9.010 -0.2490 -0.3283  0.4046
  164SOPE  H12X18472   5.647   4.173   9.048  0.1499 -0.0273  0.5125
  164SOPE  H12Y18473   5.660   4.344   9.035  1.9237 -1.4824 -1.6533
  164SOPE  C31318474   5.567   4.259   8.856  0.5129  0.0083 -0.7258
  164SOPE  H13X18475   5.504   4.342   8.818 -0.4372 -0.0214  0.7672
  164SOPE  H13Y18476   5.500   4.174   8.829 -1.0096  0.8315  0.4302
  164SOPE  C31418477   5.699   4.270   8.778 -0.3328  0.1770  0.1686
  164SOPE  H14X18478   5.761   4.189   8.821 -3.4562 -2.0540  0.6844
  164SOPE  H14Y18479   5.750   4.368   8.793 -0.3268  0.3704 -1.0561
  164SOPE  C31518480   5.682   4.253   8.627 -0.0817  0.2428  0.1368
  164SOPE  H15X18481   5.641   4.150   8.616  0.0252  0.5004 -3.1116
  164SOPE  H15Y18482   5.783   4.240   8.581  0.4596 -0.9809  1.6374
  164SOPE  C31618483   5.599   4.351   8.545 -0.3527 -0.2524 -0.0718
  164SOPE  H16X18484   5.639   4.448   8.582 -0.8297  0.5598 -1.6622
  164SOPE  H16Y18485   5.491   4.344   8.568 -0.6304  1.6180 -0.7319
  164SOPE  C31718486   5.626   4.327   8.394 -0.2036 -0.3101 -0.9076
  164SOPE  H17X18487   5.733   4.351   8.379  0.0095 -0.3772  0.4845
  164SOPE  H17Y18488   5.570   4.405   8.337 -0.4896 -0.5327 -0.9323
  164SOPE  C31818489   5.595   4.187   8.348 -0.0312  0.2835 -0.4908
  164SOPE  H18X18490   5.667   4.123   8.404  2.1534  1.6325 -1.6944
  164SOPE  H18Y18491   5.615   4.172   8.240  0.1008  0.4552 -0.4894
  164SOPE  H18Z18492   5.494   4.154   8.381  1.0595 -0.7341  1.9973
  165SOPE     N18493   3.696   5.411  10.799  0.2198  0.5266  0.1178
  165SOPE   HN118494   3.643   5.473  10.864 -1.8712  1.0007 -2.0009
  165SOPE   HN218495   3.697   5.462  10.709  1.4534 -0.0706 -0.2220
  165SOPE   HN318496   3.637   5.327  10.786  2.6744 -1.4551  1.2027
  165SOPE   C1218497   3.828   5.370  10.848  0.8175 -0.3134  0.3755
  165SOPE  H12A18498   3.812   5.317  10.945 -0.7881 -2.3304 -0.9440
  165SOPE  H12B18499   3.878   5.469  10.857 -0.4436  0.2756  0.9252
  165SOPE   C1118500   3.897   5.271  10.749  0.9336  1.0925  0.2245
  165SOPE  H11A18501   3.993   5.245  10.796  1.2200  1.4081 -0.1811
  165SOPE  H11B18502   3.927   5.329  10.659 -1.7989 -0.2153 -1.5950
  165SOPE     P18503   3.773   5.047  10.808  0.0677 -0.2697 -0.3154
  165SOPE   O1318504   3.836   5.065  10.941 -0.5252  0.0728  0.6782
  165SOPE   O1418505   3.799   4.914  10.741  0.6165 -0.3892 -0.2492
  165SOPE   O1218506   3.816   5.158  10.713 -0.2668 -0.6721 -0.2363
  165SOPE   O1118507   3.614   5.068  10.810  0.2510  0.4015 -0.1204
  165SOPE    C118508   3.533   4.971  10.751 -0.3179  0.1052  0.6255
  165SOPE    HA18509   3.435   4.979  10.803 -0.8765 -0.7142 -0.2773
  165SOPE    HB18510   3.568   4.868  10.775  2.0266  0.5359 -0.7873
  165SOPE    C218511   3.510   4.985  10.594  0.1723  0.7084 -0.3975
  165SOPE    HS18512   3.602   4.948  10.542 -0.1514 -1.0423  0.2662
  165SOPE   O2118513   3.494   5.121  10.564 -0.0933  0.1367 -0.3288
  165SOPE   C2118514   3.554   5.179  10.460 -0.7350 -0.4766 -0.0212
  165SOPE   O2218515   3.651   5.130  10.404 -0.4285  0.4710  0.0268
  165SOPE   C2218516   3.475   5.300  10.415 -0.1462  0.2652 -0.5537
  165SOPE   H2R18517   3.433   5.347  10.506  1.5055 -0.2797  0.5098
  165SOPE   H2S18518   3.397   5.258  10.346  0.5866  2.3296 -2.7066
  165SOPE    C318519   3.390   4.896  10.545  0.0362 -0.5911 -1.3463
  165SOPE    HX18520   3.303   4.954  10.583  0.0620 -0.7982 -0.9723
  165SOPE    HY18521   3.384   4.799  10.599  1.4215  0.0669  0.0420
  165SOPE   O3118522   3.397   4.878  10.405 -0.2439  0.5473 -0.1948
  165SOPE   C3118523   3.286   4.891  10.339  0.1755  0.0724  0.6422
  165SOPE   O3218524   3.181   4.941  10.374 -0.5293  0.1653  0.4640
  165SOPE   C3218525   3.306   4.828  10.195 -0.3495  0.4158 -0.1666
  165SOPE   H2X18526   3.213   4.773  10.169 -0.6003  0.1840  1.2021
  165SOPE   H2Y18527   3.388   4.754  10.195 -1.6385 -1.0475 -0.6820
  165SOPE   C2318528   3.555   5.393  10.320  0.5212 -0.5997 -0.2774
  165SOPE   H3R18529   3.563   5.345  10.220 -0.6812 -0.6364 -0.3585
  165SOPE   H3S18530   3.658   5.406  10.358  0.7132 -0.5576 -0.8033
  165SOPE   C2418531   3.492   5.524  10.312  0.0449  0.2020  0.4103
  165SOPE   H4R18532   3.492   5.578  10.409  0.2588  0.6317  0.1733
  165SOPE   H4S18533   3.556   5.586  10.246 -1.4601 -0.7042 -1.9577
  165SOPE   C2518534   3.358   5.532  10.232  0.2513 -0.3503  0.0204
  165SOPE   H5R18535   3.271   5.466  10.252  1.1983 -2.4493 -2.5251
  165SOPE   H5S18536   3.335   5.641  10.231  2.5764  0.2489  3.0556
  165SOPE   C2618537   3.387   5.493  10.084  0.5554  0.2474  0.1946
  165SOPE   H6R18538   3.479   5.544  10.050  0.2170  2.0249  1.8327
  165SOPE   H6S18539   3.407   5.384  10.079 -2.8526 -0.5649  2.4594
  165SOPE   C2718540   3.267   5.526   9.991 -0.0207  0.0856 -0.1138
  165SOPE   H7R18541   3.190   5.452  10.023  1.3939 -0.0810  3.1483
  165SOPE   H7S18542   3.237   5.632   9.995 -1.5083 -0.3726  1.6018
  165SOPE   C2818543   3.329   5.501   9.851 -0.3204 -0.4111 -0.2766
  165SOPE   H8R18544   3.389   5.408   9.862  2.1141  1.3635  2.0320
  165SOPE   H8S18545   3.242   5.483   9.783 -1.8012  0.7319  1.2552
  165SOPE   C2918546   3.406   5.618   9.796 -0.0823 -0.4155  0.0020
  165SOPE   H9118547   3.472   5.672   9.865  2.1804 -0.7824 -1.8025
  165SOPE  C21018548   3.426   5.645   9.667 -0.9974  0.3648  0.4513
  165SOPE  H10118549   3.489   5.731   9.639 -0.2960  0.2288  1.5725
  165SOPE  C21118550   3.370   5.552   9.559 -0.0313 -0.5953  0.0038
  165SOPE  H11R18551   3.358   5.452   9.604  2.2085 -0.5445  0.8083
  165SOPE  H11S18552   3.436   5.530   9.472  1.7884 -3.2454  1.9923
  165SOPE  C21218553   3.230   5.606   9.504  0.4174 -0.1596  0.0202
  165SOPE  H12R18554   3.159   5.587   9.588  2.7268 -2.0815  1.5996
  165SOPE  H12S18555   3.188   5.554   9.416 -2.6000  0.0238  1.2686
  165SOPE  C21318556   3.221   5.765   9.483  0.2953  0.0969 -0.0801
  165SOPE  H13R18557   3.249   5.806   9.583  0.9176  0.1331 -0.2696
  165SOPE  H13S18558   3.115   5.794   9.465  0.8140  1.4503 -1.0576
  165SOPE  C21418559   3.306   5.824   9.371  0.5467  0.4162 -0.1887
  165SOPE  H14R18560   3.414   5.799   9.385  0.3928  0.2329  0.7000
  165SOPE  H14S18561   3.295   5.935   9.367  0.4626  0.3520 -2.1250
  165SOPE  C21518562   3.263   5.783   9.228  0.1562 -0.3502 -0.5772
  165SOPE  H15R18563   3.153   5.792   9.227 -0.1195 -2.8777  1.5110
  165SOPE  H15S18564   3.291   5.677   9.215 -1.0275 -0.8436  0.8591
  165SOPE  C21618565   3.335   5.873   9.123  0.0460  0.5516  0.0533
  165SOPE  H16R18566   3.440   5.894   9.152  0.4442 -0.3836 -0.6842
  165SOPE  H16S18567   3.266   5.959   9.111  1.7124  2.1724  1.8087
  165SOPE  C21718568   3.331   5.800   8.978 -0.0852 -0.0304  0.9389
  165SOPE  H17R18569   3.369   5.880   8.910 -0.2070 -1.0985 -0.4108
  165SOPE  H17S18570   3.230   5.762   8.952 -1.1405  2.8934  0.6413
  165SOPE  C21818571   3.431   5.685   8.959  0.7476 -0.3072  0.6602
  165SOPE  H18R18572   3.444   5.654   8.853 -2.4278  0.9844 -0.1758
  165SOPE  H18S18573   3.402   5.597   9.021  0.0393 -0.4539  0.1321
  165SOPE  H18T18574   3.532   5.716   8.992  0.4174  1.8163 -0.2282
  165SOPE   C3318575   3.350   4.925  10.086  0.0493  0.1578 -0.4972
  165SOPE   H3X18576   3.282   5.013  10.088 -1.0227 -0.6749  2.7690
  165SOPE   H3Y18577   3.342   4.875   9.987  0.4457  1.0833 -1.0077
  165SOPE   C3418578   3.486   4.987  10.122 -0.8456  0.8414 -0.2064
  165SOPE   H4X18579   3.559   4.908  10.149 -1.0967  1.0279  1.0390
  165SOPE   H4Y18580   3.455   5.045  10.212  0.7087  1.0154  0.2184
  165SOPE   C3518581   3.535   5.084  10.014  0.5029 -0.1240  0.7852
  165SOPE   H5X18582   3.631   5.135  10.038 -0.1688  0.8771  1.3636
  165SOPE   H5Y18583   3.471   5.174  10.012 -0.5259 -0.8789 -1.5565
  165SOPE   C3618584   3.548   5.025   9.867  0.0292  0.1893 -0.5868
  165SOPE   H6X18585   3.449   4.987   9.835  0.6239 -1.5629 -0.3955
  165SOPE   H6Y18586   3.621   4.941   9.863  0.0191  0.1075  0.8101
  165SOPE   C3718587   3.598   5.132   9.770 -0.6084  0.3560 -1.0456
  165SOPE   H7X18588   3.704   5.155   9.793 -1.5526  5.0841 -0.8385
  165SOPE   H7Y18589   3.534   5.222   9.779  1.2026  1.6335 -0.5300
  165SOPE   C3818590   3.595   5.086   9.627 -0.8419  0.2449 -0.2395
  165SOPE   H8X18591   3.492   5.059   9.596 -0.2621 -1.8981 -0.3852
  165SOPE   H8Y18592   3.652   4.993   9.606 -1.2399 -0.1578  0.4632
  165SOPE   C3918593   3.651   5.197   9.537  0.2595 -0.3580 -0.5815
  165SOPE   H9X18594   3.742   5.244   9.580  0.9325 -2.4904  0.3939
  165SOPE   H9Y18595   3.565   5.268   9.538 -0.1635 -0.8402 -2.2600
  165SOPE  C31018596   3.669   5.160   9.390  0.1610  0.5755  0.1613
  165SOPE  H10X18597   3.568   5.134   9.352 -0.2169  2.1429  0.0443
  165SOPE  H10Y18598   3.743   5.078   9.381 -1.6258 -1.0331 -0.2365
  165SOPE  C31118599   3.717   5.282   9.307  0.0915  0.0782 -0.2702
  165SOPE  H11X18600   3.828   5.282   9.316  0.1407 -0.3112 -0.9300
  165SOPE  H11Y18601   3.679   5.376   9.353 -0.1340 -0.7564  1.2792
  165SOPE  C31218602   3.672   5.272   9.165 -0.5545 -0.1476 -0.0170
  165SOPE  H12X18603   3.562   5.265   9.172 -0.8254  2.2351 -1.2957
  165SOPE  H12Y18604   3.716   5.180   9.121  2.7634  1.7297 -0.8179
  165SOPE  C31318605   3.733   5.388   9.075  0.0371  0.2658 -0.3724
  165SOPE  H13X18606   3.842   5.370   9.075  0.0652  0.2998  2.1028
  165SOPE  H13Y18607   3.717   5.487   9.122  1.2106 -0.2038  1.0404
  165SOPE  C31418608   3.715   5.393   8.924  0.1397  0.6497  0.3738
  165SOPE  H14X18609   3.608   5.399   8.896  1.0964  2.1214 -3.1559
  165SOPE  H14Y18610   3.753   5.294   8.890  1.1644  0.6421  1.4741
  165SOPE  C31518611   3.796   5.512   8.858  0.1430 -0.0345  0.5740
  165SOPE  H15X18612   3.899   5.504   8.900  0.7446  3.3140 -0.1069
  165SOPE  H15Y18613   3.752   5.612   8.877 -0.8194 -0.2445 -0.5253
  165SOPE  C31618614   3.802   5.494   8.708 -1.1266 -0.2254  0.7904
  165SOPE  H16X18615   3.854   5.578   8.657 -2.8657  1.0592  1.0894
  165SOPE  H16Y18616   3.702   5.494   8.660  0.1121 -1.2856 -1.9146
  165SOPE  C31718617   3.888   5.375   8.655 -0.4252 -0.2910 -0.7567
  165SOPE  H17X18618   3.859   5.360   8.549  0.0829 -2.3280 -0.6199
  165SOPE  H17Y18619   3.862   5.282   8.709  1.0237 -1.4410 -1.9999
  165SOPE  C31818620   4.030   5.389   8.664 -0.0998  0.1022 -0.0189
  165SOPE  H18X18621   4.051   5.406   8.772 -1.4896  0.1040  0.2566
  165SOPE  H18Y18622   4.059   5.481   8.609  0.0090 -0.0086 -0.1480
  165SOPE  H18Z18623   4.092   5.303   8.632  0.1336  0.3591 -0.2506
  166SOPE     N18624   6.674   6.369  11.172 -0.1095  0.1195  0.0634
  166SOPE   HN118625   6.596   6.302  11.188  0.1641 -0.4666 -1.0147
  166SOPE   HN218626   6.767   6.335  11.203  1.1933  1.7481 -1.9491
  166SOPE   HN318627   6.653   6.455  11.226 -3.1033 -0.4604 -0.0550
  166SOPE   C1218628   6.684   6.410  11.028  0.2866 -0.1092  0.1656
  166SOPE  H12A18629   6.787   6.450  11.013  0.1594  1.0705  2.2485
  166SOPE  H12B18630   6.615   6.493  11.003  0.6278  0.3887  0.8460
  166SOPE   C1118631   6.659   6.290  10.945  1.0821 -0.1360 -0.0882
  166SOPE  H11A18632   6.639   6.312  10.838 -0.0890  1.1267  0.3851
  166SOPE  H11B18633   6.564   6.250  10.987  1.2023  0.3658  0.6750
  166SOPE     P18634   6.891   6.177  10.860 -0.2409 -0.1762  0.6183
  166SOPE   O1318635   6.874   6.044  10.803  0.8704 -0.3437 -0.0596
  166SOPE   O1418636   7.010   6.201  10.942  0.5735 -0.0787  0.1258
  166SOPE   O1218637   6.767   6.193  10.960 -0.0278  0.9131  0.4623
  166SOPE   O1118638   6.866   6.286  10.754 -0.0977  0.3462  0.2698
  166SOPE    C118639   6.904   6.277  10.621  0.4128 -0.5026  0.3078
  166SOPE    HA18640   6.821   6.319  10.560 -0.5844 -2.2404  0.4361
  166SOPE    HB18641   6.917   6.172  10.587 -1.1417 -0.4960 -0.3486
  166SOPE    C218642   7.032   6.361  10.579  0.2457 -0.5972 -0.2208
  166SOPE    HS18643   7.021   6.458  10.632  2.0444 -1.1479  1.2121
  166SOPE   O2118644   7.025   6.383  10.437  0.2054 -0.1934 -0.1381
  166SOPE   C2118645   7.085   6.490  10.397 -0.1612  0.7256  0.0087
  166SOPE   O2218646   7.151   6.566  10.467 -0.0739 -0.5725  0.3244
  166SOPE   C2218647   7.074   6.499  10.243  0.6229  0.1931 -0.0081
  166SOPE   H2R18648   7.154   6.424  10.223 -0.4369 -0.9225 -0.1313
  166SOPE   H2S18649   7.110   6.597  10.205  0.5254 -0.8240 -2.8712
  166SOPE    C318650   7.166   6.292  10.623 -0.2369 -0.3709  0.2061
  166SOPE    HX18651   7.170   6.286  10.733  2.4950 -0.2245  0.1698
  166SOPE    HY18652   7.243   6.360  10.578 -1.9916  1.7433  0.3130
  166SOPE   O3118653   7.174   6.163  10.557  0.5230  0.2029  0.0405
  166SOPE   C3118654   7.264   6.131  10.466 -0.5211  0.2031  0.3818
  166SOPE   O3218655   7.356   6.209  10.428 -0.3616  0.2671 -0.3664
  166SOPE   C3218656   7.234   5.994  10.408  0.3804  0.6071  0.0964
  166SOPE   H2X18657   7.125   5.980  10.391  0.9817 -2.4983 -1.6418
  166SOPE   H2Y18658   7.269   5.937  10.497  0.7435 -0.5637 -0.7867
  166SOPE   C2318659   6.941   6.446  10.181  0.4095 -0.2153 -0.6700
  166SOPE   H3R18660   6.855   6.498  10.229  1.3297  1.7636 -1.0846
  166SOPE   H3S18661   6.944   6.336  10.188  0.6945 -0.1200  0.7355
  166SOPE   C2418662   6.938   6.476  10.031 -0.2460  0.2629 -0.0247
  166SOPE   H4R18663   6.926   6.586  10.019 -1.4623  0.0482 -0.8832
  166SOPE   H4S18664   7.040   6.448   9.996  0.0135 -0.8391  1.5834
  166SOPE   C2518665   6.823   6.406   9.952 -0.0662 -0.6429 -0.1723
  166SOPE   H5R18666   6.826   6.296   9.963  1.2090 -0.7815 -1.6443
  166SOPE   H5S18667   6.728   6.438   9.999  1.3371  1.0930  1.5818
  166SOPE   C2618668   6.821   6.436   9.799  0.1077  0.0711 -0.4356
  166SOPE   H6R18669   6.792   6.543   9.788 -1.4118 -0.2371  0.4018
  166SOPE   H6S18670   6.910   6.403   9.742  0.9212  0.1359  0.7990
  166SOPE   C2718671   6.705   6.354   9.729 -0.3682  0.1255 -0.1355
  166SOPE   H7R18672   6.737   6.251   9.757  0.1834  0.6786  1.3177
  166SOPE   H7S18673   6.615   6.392   9.782 -0.7825 -1.9184  0.6605
  166SOPE   C2818674   6.689   6.366   9.577  0.6065 -0.7035 -0.5675
  166SOPE   H8R18675   6.640   6.464   9.556 -0.4677 -1.0054  0.4588
  166SOPE   H8S18676   6.792   6.346   9.542  0.1424 -1.3195 -1.6215
  166SOPE   C2918677   6.596   6.262   9.535  1.0101 -0.4760  0.8645
  166SOPE   H9118678   6.630   6.159   9.555 -2.5712 -1.6483  1.2627
  166SOPE  C21018679   6.486   6.271   9.461  0.5875  0.5090 -0.3255
  166SOPE  H10118680   6.426   6.180   9.450  2.7198 -0.8003 -1.3794
  166SOPE  C21118681   6.429   6.399   9.402 -0.4380 -0.3028  0.8588
  166SOPE  H11R18682   6.492   6.489   9.419 -0.0572 -0.4921  0.4557
  166SOPE  H11S18683   6.329   6.433   9.436 -1.3885 -3.0882  0.9966
  166SOPE  C21218684   6.414   6.384   9.246  0.0910  0.3941 -0.0064
  166SOPE  H12R18685   6.325   6.322   9.222 -0.1534 -0.2841  2.5405
  166SOPE  H12S18686   6.506   6.338   9.203 -0.5718 -0.4901 -0.5066
  166SOPE  C21318687   6.386   6.520   9.190  0.8402 -0.2284 -0.3195
  166SOPE  H13R18688   6.473   6.589   9.203  0.6424 -0.5107  2.8851
  166SOPE  H13S18689   6.300   6.570   9.240  1.4903 -1.1577  1.8049
  166SOPE  C21418690   6.353   6.513   9.037  0.0646 -0.1231 -0.7295
  166SOPE  H14R18691   6.269   6.444   9.017 -1.6814  1.1348  2.0263
  166SOPE  H14S18692   6.446   6.481   8.985  1.5795 -3.6223  3.7758
  166SOPE  C21518693   6.325   6.645   8.975  0.2954 -0.2525 -0.5226
  166SOPE  H15R18694   6.390   6.722   9.022 -1.8201  0.9856  0.4668
  166SOPE  H15S18695   6.222   6.680   9.001 -0.6947 -0.1772 -4.1306
  166SOPE  C21618696   6.332   6.633   8.813  0.1654  0.2411 -0.6403
  166SOPE  H16R18697   6.262   6.553   8.779 -1.8333  1.4962  0.4526
  166SOPE  H16S18698   6.435   6.601   8.789  0.3806 -1.3386  2.2016
  166SOPE  C21718699   6.311   6.761   8.727  0.2619  0.8408 -0.5604
  166SOPE  H17R18700   6.211   6.802   8.753  1.3119  1.4792  2.7836
  166SOPE  H17S18701   6.325   6.720   8.625 -0.5883 -0.3210 -0.2302
  166SOPE  C21818702   6.424   6.858   8.753 -0.9003 -0.0195 -0.0150
  166SOPE  H18R18703   6.515   6.817   8.705 -1.5862 -1.7207  0.0818
  166SOPE  H18S18704   6.455   6.854   8.860  0.1403 -0.3704 -0.3224
  166SOPE  H18T18705   6.400   6.963   8.727  0.9984  0.4826  0.1985
  166SOPE   C3318706   7.324   5.964  10.292  0.5801 -0.2012  0.4617
  166SOPE   H3X18707   7.429   5.974  10.325  1.0083 -0.8590 -0.7000
  166SOPE   H3Y18708   7.320   6.042  10.214 -1.0844 -1.6684 -0.9891
  166SOPE   C3418709   7.308   5.839  10.212  0.2740  0.5821 -0.5284
  166SOPE   H4X18710   7.201   5.836  10.180 -0.4526  0.5969  1.7700
  166SOPE   H4Y18711   7.329   5.747  10.271 -0.5373  0.4217 -0.4818
  166SOPE   C3518712   7.402   5.842  10.091  0.5457 -0.0346 -0.6644
  166SOPE   H5X18713   7.506   5.869  10.119  0.2553  1.0957 -0.6365
  166SOPE   H5Y18714   7.370   5.911  10.009  0.8337 -2.3532 -2.7824
  166SOPE   C3618715   7.426   5.703  10.026  0.7104 -0.1474 -0.5421
  166SOPE   H6X18716   7.337   5.654   9.980 -0.0150  1.9385 -1.4238
  166SOPE   H6Y18717   7.459   5.643  10.113  0.4393  2.3721  1.3726
  166SOPE   C3718718   7.539   5.716   9.928 -0.7885  0.1904 -0.2248
  166SOPE   H7X18719   7.566   5.614   9.893 -0.5862  0.4277 -0.7653
  166SOPE   H7Y18720   7.629   5.752   9.982 -0.6865  0.7591 -0.7690
  166SOPE   C3818721   7.511   5.806   9.802 -0.6066 -0.1052  0.0087
  166SOPE   H8X18722   7.601   5.792   9.738 -1.1970  1.1171 -1.1091
  166SOPE   H8Y18723   7.512   5.915   9.823  1.2487  0.1316 -1.2594
  166SOPE   C3918724   7.385   5.766   9.723 -0.0776 -0.1283  0.3051
  166SOPE   H9X18725   7.288   5.797   9.769  0.0165 -0.1248  0.5038
  166SOPE   H9Y18726   7.410   5.658   9.716  1.2298  0.1309  0.7641
  166SOPE  C31018727   7.394   5.817   9.581 -0.2211 -0.4351  0.3941
  166SOPE  H10X18728   7.483   5.767   9.536 -1.3933 -2.3438  0.1552
  166SOPE  H10Y18729   7.422   5.925   9.580 -1.9314  0.0412  1.3422
  166SOPE  C31118730   7.279   5.789   9.491 -0.0555  0.4651  0.7501
  166SOPE  H11X18731   7.189   5.847   9.520  1.0404  2.4662  0.2547
  166SOPE  H11Y18732   7.248   5.683   9.505  2.6237 -0.5843 -0.8608
  166SOPE  C31218733   7.321   5.816   9.348  0.5139 -0.4625 -0.5467
  166SOPE  H12X18734   7.408   5.752   9.321  0.4253 -0.9945  0.4218
  166SOPE  H12Y18735   7.359   5.920   9.339 -0.8760  0.2344  1.4807
  166SOPE  C31318736   7.195   5.798   9.247  0.0977 -0.2254  0.0573
  166SOPE  H13X18737   7.127   5.885   9.259 -1.2328 -1.2244 -0.1203
  166SOPE  H13Y18738   7.131   5.717   9.287 -0.6064  0.9344  1.3509
  166SOPE  C31418739   7.238   5.800   9.098 -0.6899  0.5294 -0.0775
  166SOPE  H14X18740   7.302   5.887   9.073 -4.6746  3.1423 -1.5834
  166SOPE  H14Y18741   7.150   5.805   9.030 -1.3292 -2.2714  0.4634
  166SOPE  C31518742   7.325   5.684   9.055 -0.4872 -0.1626  0.6637
  166SOPE  H15X18743   7.271   5.590   9.079 -1.0227 -0.1145 -0.3269
  166SOPE  H15Y18744   7.420   5.674   9.111  0.3251  1.7267 -0.3236
  166SOPE  C31618745   7.350   5.675   8.903 -0.7025 -0.5443  0.2887
  166SOPE  H16X18746   7.407   5.581   8.890 -0.2106 -0.3699  1.1246
  166SOPE  H16Y18747   7.404   5.760   8.856 -2.8342  0.1245 -0.9829
  166SOPE  C31718748   7.229   5.660   8.811 -0.6970 -0.6284 -0.0813
  166SOPE  H17X18749   7.187   5.761   8.791  0.1434 -0.0799  0.8805
  166SOPE  H17Y18750   7.148   5.602   8.860  1.9548 -2.5728  2.1702
  166SOPE  C31818751   7.269   5.605   8.676  0.6326 -0.0429 -0.0548
  166SOPE  H18X18752   7.192   5.627   8.599  1.0553 -2.1475 -1.1259
  166SOPE  H18Y18753   7.291   5.496   8.673 -1.7639 -0.5720  0.3931
  166SOPE  H18Z18754   7.367   5.654   8.657 -0.6514  3.2005  1.3823
  167SOPE     N18755   1.667   3.275   6.082  0.3432  0.2724 -0.0210
  167SOPE   HN118756   1.770   3.285   6.093  0.6792 -3.1372  0.7204
  167SOPE   HN218757   1.635   3.277   6.180  1.3342  0.6082  0.3074
  167SOPE   HN318758   1.648   3.176   6.054 -1.8843  0.0938  1.9594
  167SOPE   C1218759   1.634   3.384   5.988 -0.6163 -0.0840 -0.9660
  167SOPE  H12A18760   1.525   3.379   5.964 -1.5872  0.9575  2.8828
  167SOPE  H12B18761   1.683   3.372   5.889 -1.9013 -0.6362 -1.5523
  167SOPE   C1118762   1.662   3.522   6.050  0.2013  0.0974 -0.0677
  167SOPE  H11A18763   1.615   3.536   6.150  1.9313 -0.1539  0.8084
  167SOPE  H11B18764   1.618   3.601   5.985  0.0712 -0.4697 -0.6668
  167SOPE     P18765   1.866   3.659   6.115  0.2701  0.3687 -0.2007
  167SOPE   O1318766   1.775   3.774   6.112  0.1896  0.1633  0.0777
  167SOPE   O1418767   1.997   3.679   6.050 -0.0628 -0.0911  0.6486
  167SOPE   O1218768   1.807   3.530   6.051 -0.3104  0.2138 -0.3032
  167SOPE   O1118769   1.895   3.619   6.260 -0.1365  0.5058 -0.4901
  167SOPE    C118770   1.931   3.486   6.297  0.2387  0.0324  0.0125
  167SOPE    HA18771   1.994   3.442   6.217 -0.3754 -0.8526  0.0009
  167SOPE    HB18772   1.837   3.428   6.310 -1.0043  2.0772  0.3622
  167SOPE    C218773   2.003   3.481   6.435  0.0433 -0.7548  0.3105
  167SOPE    HS18774   2.040   3.378   6.451  3.4187  0.2020 -0.8220
  167SOPE   O2118775   1.924   3.529   6.546 -0.4986  0.1118 -0.4441
  167SOPE   C2118776   1.839   3.433   6.590 -0.7281 -0.0775 -0.2287
  167SOPE   O2218777   1.820   3.329   6.531 -0.2055  0.4041  0.6085
  167SOPE   C2218778   1.755   3.488   6.709 -0.1785  0.9188 -0.0967
  167SOPE   H2R18779   1.740   3.597   6.692  2.5083  1.2761 -0.3633
  167SOPE   H2S18780   1.803   3.466   6.806 -0.5878 -0.7501 -0.2462
  167SOPE    C318781   2.127   3.567   6.422 -0.4248  0.3425  0.0986
  167SOPE    HX18782   2.089   3.671   6.406 -0.6463  0.0284 -1.4682
  167SOPE    HY18783   2.191   3.540   6.336  0.6414 -2.3575  1.6832
  167SOPE   O3118784   2.216   3.556   6.531  0.2620 -0.4784  0.6753
  167SOPE   C3118785   2.270   3.674   6.566 -0.0818 -0.1540 -0.1939
  167SOPE   O3218786   2.249   3.782   6.511  0.9117  0.0853  0.2173
  167SOPE   C3218787   2.364   3.658   6.687 -0.6924  0.4181 -0.2797
  167SOPE   H2X18788   2.429   3.569   6.669  1.5328  1.9223  0.1082
  167SOPE   H2Y18789   2.303   3.648   6.779 -0.3773 -2.2809 -0.3341
  167SOPE   C2318790   1.609   3.436   6.708  0.2001 -0.0727 -0.6120
  167SOPE   H3R18791   1.618   3.345   6.770 -2.1465  0.6107  0.7951
  167SOPE   H3S18792   1.565   3.406   6.610 -0.1652  0.3831 -0.5900
  167SOPE   C2418793   1.526   3.548   6.776  0.4681  0.8496  1.0829
  167SOPE   H4R18794   1.575   3.556   6.876  1.9882  1.0927  0.3395
  167SOPE   H4S18795   1.533   3.642   6.717  1.9538 -0.1549 -0.3514
  167SOPE   C2518796   1.384   3.500   6.802 -0.3571 -0.2743 -0.7279
  167SOPE   H5R18797   1.310   3.582   6.798  2.4011  2.3243 -0.3176
  167SOPE   H5S18798   1.355   3.417   6.733  0.1313 -1.0581 -0.0039
  167SOPE   C2618799   1.371   3.427   6.936  0.3931  0.0415 -0.1828
  167SOPE   H6R18800   1.263   3.401   6.932 -0.6433  4.1213 -0.3787
  167SOPE   H6S18801   1.431   3.334   6.927  1.4871  0.7350 -0.1423
  167SOPE   C2718802   1.395   3.512   7.060 -0.0413 -0.7704  1.0408
  167SOPE   H7R18803   1.502   3.508   7.091  0.5706  0.6479 -0.8456
  167SOPE   H7S18804   1.366   3.616   7.038  0.4241 -1.4754 -3.2252
  167SOPE   C2818805   1.308   3.459   7.179  1.4565  0.1747  0.1271
  167SOPE   H8R18806   1.204   3.453   7.141  1.0555  0.1902  1.1972
  167SOPE   H8S18807   1.339   3.362   7.222  0.4900  0.5205  1.6452
  167SOPE   C2918808   1.312   3.562   7.292 -0.3680  0.2798  0.5879
  167SOPE   H9118809   1.326   3.665   7.258  0.9544  0.0516  0.4152
  167SOPE  C21018810   1.301   3.542   7.424 -0.2259 -0.2498 -0.3219
  167SOPE  H10118811   1.297   3.629   7.491  0.4135 -0.6627  0.2524
  167SOPE  C21118812   1.283   3.418   7.504  0.2527  0.2454 -0.0954
  167SOPE  H11R18813   1.286   3.329   7.437  0.0764 -0.2612  0.5615
  167SOPE  H11S18814   1.184   3.423   7.554 -1.0299 -0.3364 -2.4713
  167SOPE  C21218815   1.370   3.409   7.633 -0.1052 -0.3278  0.6678
  167SOPE  H12R18816   1.478   3.424   7.608 -0.5031  2.9660  0.7433
  167SOPE  H12S18817   1.359   3.309   7.681  2.6397 -0.7351  0.5604
  167SOPE  C21318818   1.315   3.501   7.742  0.3419 -0.0555  0.5707
  167SOPE  H13R18819   1.211   3.468   7.763  0.3583 -1.0580 -0.8142
  167SOPE  H13S18820   1.298   3.598   7.690  1.2756  0.5512  1.4090
  167SOPE  C21418821   1.405   3.512   7.865  0.1949 -0.3789 -0.7206
  167SOPE  H14R18822   1.504   3.550   7.833 -0.8552  1.2217 -2.1347
  167SOPE  H14S18823   1.417   3.415   7.918 -1.5498  0.2301  0.8877
  167SOPE  C21518824   1.342   3.603   7.973  0.1445  0.8079 -0.1366
  167SOPE  H15R18825   1.242   3.558   7.994  0.6113 -1.2483 -2.2127
  167SOPE  H15S18826   1.320   3.700   7.924 -0.0706  1.4962  1.3002
  167SOPE  C21618827   1.426   3.632   8.098 -0.2137  0.0003  0.1804
  167SOPE  H16R18828   1.515   3.684   8.056  0.0029 -0.7466 -0.3016
  167SOPE  H16S18829   1.462   3.541   8.152  2.2245  2.2346  2.4819
  167SOPE  C21718830   1.356   3.736   8.193  0.4267  0.1647 -0.5896
  167SOPE  H17R18831   1.336   3.832   8.142  0.9940 -0.0035 -1.1331
  167SOPE  H17S18832   1.429   3.760   8.274 -2.5325  2.5379  1.4924
  167SOPE  C21818833   1.215   3.686   8.260  0.8102  0.0314 -0.5845
  167SOPE  H18R18834   1.235   3.622   8.349  1.1574  0.2668 -0.4944
  167SOPE  H18S18835   1.155   3.635   8.181 -1.0184 -0.6990  1.2439
  167SOPE  H18T18836   1.156   3.775   8.290  2.2991  0.2654  1.7102
  167SOPE   C3318837   2.452   3.790   6.693 -0.4266  0.2645  0.2584
  167SOPE   H3X18838   2.380   3.874   6.704 -0.7270 -0.1964  1.8970
  167SOPE   H3Y18839   2.509   3.800   6.598  0.6565  0.0971  0.8882
  167SOPE   C3418840   2.559   3.789   6.809 -0.3680 -0.4236 -0.2480
  167SOPE   H4X18841   2.607   3.889   6.806 -0.6838 -0.1041  2.9880
  167SOPE   H4Y18842   2.633   3.708   6.792  0.0161  0.1528 -1.3226
  167SOPE   C3518843   2.512   3.771   6.957 -0.2963 -0.0927 -0.6436
  167SOPE   H5X18844   2.586   3.799   7.036 -3.7628 -0.0447  2.7025
  167SOPE   H5Y18845   2.489   3.663   6.968  0.4098 -0.2101 -0.2467
  167SOPE   C3618846   2.382   3.841   6.999 -0.1586  0.4114 -0.6339
  167SOPE   H6X18847   2.309   3.856   6.916 -0.2949  1.3797 -0.3438
  167SOPE   H6Y18848   2.415   3.940   7.037 -0.1933  0.1506  0.0800
  167SOPE   C3718849   2.314   3.760   7.110  1.1476 -0.0503  0.0369
  167SOPE   H7X18850   2.304   3.653   7.082 -0.3490  0.6401 -2.2136
  167SOPE   H7Y18851   2.211   3.790   7.139 -0.3132 -3.7984 -0.9705
  167SOPE   C3818852   2.381   3.783   7.244  0.1188 -1.0213  0.3318
  167SOPE   H8X18853   2.356   3.888   7.269  3.5427  0.2973 -1.4262
  167SOPE   H8Y18854   2.492   3.777   7.233  0.0616  0.8826 -1.7714
  167SOPE   C3918855   2.317   3.695   7.358  0.2615 -0.3351  0.4557
  167SOPE   H9X18856   2.349   3.591   7.335  3.5950  0.7501 -0.0165
  167SOPE   H9Y18857   2.206   3.698   7.350 -0.0245 -0.3712  3.7882
  167SOPE  C31018858   2.352   3.714   7.501  0.4605 -0.5200 -0.4647
  167SOPE  H10X18859   2.460   3.688   7.497  0.8300  1.0057 -0.3705
  167SOPE  H10Y18860   2.302   3.645   7.573 -0.2368  0.5048  0.0397
  167SOPE  C31118861   2.313   3.862   7.546  0.0241  0.5127  1.0258
  167SOPE  H11X18862   2.205   3.865   7.568 -0.5176  0.8511 -1.5094
  167SOPE  H11Y18863   2.337   3.932   7.463  0.9350 -0.5890  0.3375
  167SOPE  C31218864   2.388   3.910   7.669  0.4613 -0.0119  0.5028
  167SOPE  H12X18865   2.411   4.018   7.663 -2.6682  0.7192  1.0770
  167SOPE  H12Y18866   2.483   3.857   7.646  0.5492  0.7535 -0.9413
  167SOPE  C31318867   2.332   3.870   7.804 -0.1437  0.4865 -0.4799
  167SOPE  H13X18868   2.302   3.764   7.792 -0.7604  0.6988 -0.8040
  167SOPE  H13Y18869   2.238   3.925   7.827 -0.5354 -0.1764 -0.4827
  167SOPE  C31418870   2.440   3.881   7.914  0.4328 -0.3777  0.3208
  167SOPE  H14X18871   2.460   3.989   7.929  2.5263 -1.1273  3.3619
  167SOPE  H14Y18872   2.533   3.827   7.884 -0.2728 -1.1675 -0.4714
  167SOPE  C31518873   2.388   3.824   8.045  0.0145 -0.1695 -0.1485
  167SOPE  H15X18874   2.378   3.713   8.052 -1.8141  0.1908  4.1284
  167SOPE  H15Y18875   2.293   3.871   8.078 -0.2070 -2.4656  2.7313
  167SOPE  C31618876   2.488   3.850   8.169 -0.7733 -0.2407 -0.7860
  167SOPE  H16X18877   2.496   3.961   8.172 -0.6809 -0.2713  0.1074
  167SOPE  H16Y18878   2.586   3.805   8.142 -0.9114  0.3799 -2.3444
  167SOPE  C31718879   2.438   3.802   8.306  0.1412  0.3697 -0.2767
  167SOPE  H17X18880   2.409   3.695   8.304  0.2639  0.3389 -0.4143
  167SOPE  H17Y18881   2.344   3.858   8.328 -0.7787 -0.9306 -0.7828
  167SOPE  C31818882   2.533   3.831   8.419  0.7109  0.1226  0.7633
  167SOPE  H18X18883   2.562   3.939   8.413  1.2946 -0.0976 -0.4759
  167SOPE  H18Y18884   2.618   3.763   8.397 -0.8024 -1.6333  0.3077
  167SOPE  H18Z18885   2.491   3.807   8.519 -4.5134  0.6469 -1.1473
  168SOPE     N18886   1.285   1.533   6.314  0.4886  0.7768 -0.3261
  168SOPE   HN118887   1.348   1.579   6.245  0.6824 -1.2738 -1.5532
  168SOPE   HN218888   1.309   1.435   6.341  1.1109  1.2952  1.0759
  168SOPE   HN318889   1.198   1.528   6.258  1.2396 -0.5632 -1.4027
  168SOPE   C1218890   1.278   1.629   6.436  0.2148  0.1118  1.4835
  168SOPE  H12A18891   1.200   1.584   6.501  0.6076 -0.2550  1.7058
  168SOPE  H12B18892   1.252   1.732   6.404  0.6661 -0.4311 -0.6532
  168SOPE   C1118893   1.408   1.627   6.517 -0.3573  0.6692  0.0687
  168SOPE  H11A18894   1.439   1.523   6.538  0.0580  0.5259 -1.1859
  168SOPE  H11B18895   1.382   1.669   6.616 -0.7152 -1.3640  0.8541
  168SOPE     P18896   1.631   1.661   6.378 -0.4163 -0.5222  0.1114
  168SOPE   O1318897   1.708   1.784   6.332 -0.3403  0.1157  0.1764
  168SOPE   O1418898   1.572   1.569   6.279  0.0304  0.1234  0.3730
  168SOPE   O1218899   1.510   1.715   6.458  0.7248 -0.0578 -0.1406
  168SOPE   O1118900   1.711   1.585   6.488 -0.4850  0.3870 -0.0361
  168SOPE    C118901   1.770   1.652   6.601  0.0153  0.0443  0.6365
  168SOPE    HA18902   1.720   1.748   6.627 -0.4155 -0.1996  0.7143
  168SOPE    HB18903   1.877   1.669   6.576 -0.6158  0.0935 -2.2345
  168SOPE    C218904   1.761   1.570   6.723  0.6134  0.3866 -0.1888
  168SOPE    HS18905   1.797   1.632   6.808 -2.9793  3.1784 -0.6006
  168SOPE   O2118906   1.826   1.443   6.707  0.2909  0.1546  0.0516
  168SOPE   C2118907   1.954   1.433   6.744 -0.0469  0.1780  0.3204
  168SOPE   O2218908   2.020   1.534   6.772 -0.2369  0.6465  0.1641
  168SOPE   C2218909   2.008   1.295   6.741  0.5839  0.3661  0.6273
  168SOPE   H2R18910   2.118   1.305   6.739  0.6270 -0.0148  1.0902
  168SOPE   H2S18911   1.980   1.256   6.640 -1.2249  0.2847  1.1351
  168SOPE    C318912   1.615   1.532   6.755 -0.4291 -0.1252 -0.5452
  168SOPE    HX18913   1.570   1.475   6.671 -1.8800 -0.1006  0.2057
  168SOPE    HY18914   1.557   1.627   6.758 -1.2535 -0.6355 -0.2804
  168SOPE   O3118915   1.596   1.451   6.881 -0.6263  0.4853  0.1015
  168SOPE   C3118916   1.474   1.438   6.907 -0.4060  0.2325 -0.2876
  168SOPE   O3218917   1.379   1.487   6.851 -0.1964 -0.1946 -0.6415
  168SOPE   C3218918   1.455   1.338   7.029  0.0683  0.6496  0.0112
  168SOPE   H2X18919   1.517   1.374   7.114  1.7174  0.9152 -1.2688
  168SOPE   H2Y18920   1.482   1.233   7.006 -1.3206  0.6306 -1.6238
  168SOPE   C2318921   1.962   1.212   6.862 -0.2195  0.1059 -0.4479
  168SOPE   H3R18922   2.012   1.116   6.838  1.1034  0.3989  1.0222
  168SOPE   H3S18923   1.856   1.180   6.874  0.3007 -1.0895  1.1277
  168SOPE   C2418924   2.019   1.273   6.993  0.2796 -0.1625  0.4106
  168SOPE   H4R18925   2.052   1.193   7.062  0.5728  1.5011  2.2318
  168SOPE   H4S18926   2.113   1.329   6.974 -1.5679  2.1620 -2.1996
  168SOPE   C2518927   1.925   1.361   7.070  0.5628  0.1403 -0.0646
  168SOPE   H5R18928   1.966   1.463   7.084  2.3730 -0.5128 -0.5400
  168SOPE   H5S18929   1.827   1.361   7.017  0.1304 -3.4892  0.5605
  168SOPE   C2618930   1.880   1.306   7.212 -0.8027 -1.0245 -0.2959
  168SOPE   H6R18931   1.965   1.288   7.282 -1.8675 -2.5430  0.6184
  168SOPE   H6S18932   1.807   1.380   7.252  1.4403  1.4940 -0.6737
  168SOPE   C2718933   1.801   1.177   7.203 -0.6201 -0.4369 -0.7453
  168SOPE   H7R18934   1.735   1.180   7.114  0.4328  1.7211 -1.5010
  168SOPE   H7S18935   1.875   1.100   7.174  2.0652  1.1965  1.5685
  168SOPE   C2818936   1.724   1.136   7.328 -0.4979 -0.4024 -0.2544
  168SOPE   H8R18937   1.664   1.047   7.300 -0.9153 -0.6095  1.2565
  168SOPE   H8S18938   1.801   1.112   7.405 -0.3710  0.2751 -0.1606
  168SOPE   C2918939   1.630   1.237   7.388 -0.5254 -0.1066 -0.6561
  168SOPE   H9118940   1.542   1.252   7.323 -1.0099 -2.3897 -0.5632
  168SOPE  C21018941   1.645   1.307   7.501 -0.7022  0.7834  0.4424
  168SOPE  H10118942   1.572   1.383   7.530  1.2906  3.3514 -1.0194
  168SOPE  C21118943   1.766   1.305   7.596  0.8219 -0.0268  0.2504
  168SOPE  H11R18944   1.830   1.394   7.581 -1.9458  2.1360  0.6925
  168SOPE  H11S18945   1.845   1.233   7.567  1.5997  0.4074  1.2654
  168SOPE  C21218946   1.738   1.306   7.747  0.1429 -0.5234 -0.2328
  168SOPE  H12R18947   1.676   1.388   7.789  0.9199  0.6204 -1.2950
  168SOPE  H12S18948   1.836   1.305   7.799 -0.3682  0.8393  0.7531
  168SOPE  C21318949   1.670   1.184   7.803  0.1177  0.0675 -0.6178
  168SOPE  H13R18950   1.733   1.095   7.780  1.3902  0.9967 -0.7815
  168SOPE  H13S18951   1.563   1.179   7.776 -0.5358 -1.6195  2.1653
  168SOPE  C21418952   1.664   1.185   7.957 -1.2859 -0.1102  0.0902
  168SOPE  H14R18953   1.596   1.271   7.980  0.8611  1.5308  0.4639
  168SOPE  H14S18954   1.763   1.206   8.001 -1.4818  0.3689  0.3068
  168SOPE  C21518955   1.622   1.057   8.023  0.1411  0.9313  0.3654
  168SOPE  H15R18956   1.515   1.040   7.997  0.5309  0.6134 -1.0613
  168SOPE  H15S18957   1.636   1.076   8.131  0.8637 -2.0426  0.8304
  168SOPE  C21618958   1.713   0.924   7.989  0.5677 -0.6862 -0.4615
  168SOPE  H16R18959   1.712   0.878   8.090  2.4175  1.1434  0.4407
  168SOPE  H16S18960   1.819   0.936   7.956  0.9146 -0.6054  0.6713
  168SOPE  C21718961   1.641   0.822   7.893 -0.4527  0.8914  1.0914
  168SOPE  H17R18962   1.620   0.865   7.793 -4.0862  0.0733  1.4395
  168SOPE  H17S18963   1.554   0.797   7.957 -0.5760 -0.8849  0.2716
  168SOPE  C21818964   1.708   0.681   7.875 -0.0624  0.0114  0.4390
  168SOPE  H18R18965   1.805   0.696   7.823 -1.6124 -1.0920 -2.8937
  168SOPE  H18S18966   1.647   0.616   7.809  1.1487  0.4401 -1.1181
  168SOPE  H18T18967   1.727   0.632   7.973  1.7127  1.0565  0.6488
  168SOPE   C3318968   1.306   1.333   7.068 -0.2968  0.2901 -0.2191
  168SOPE   H3X18969   1.252   1.301   6.976  1.5832 -1.8343 -0.6121
  168SOPE   H3Y18970   1.261   1.433   7.087 -3.7125 -1.1202 -0.4628
  168SOPE   C3418971   1.274   1.232   7.171 -0.1128 -0.5878 -0.2924
  168SOPE   H4X18972   1.317   1.258   7.270 -3.0397 -1.3004  1.2519
  168SOPE   H4Y18973   1.327   1.143   7.133  2.1009  2.2267 -4.0761
  168SOPE   C3518974   1.121   1.197   7.207 -0.0162 -0.5013 -0.0027
  168SOPE   H5X18975   1.075   1.148   7.118 -3.4802 -0.6143  1.7297
  168SOPE   H5Y18976   1.070   1.295   7.219 -1.4625 -1.2277 -0.0454
  168SOPE   C3618977   1.098   1.105   7.323 -0.4811  0.1161  0.4436
  168SOPE   H6X18978   1.173   1.023   7.322 -1.3078 -0.6354 -0.3068
  168SOPE   H6Y18979   0.997   1.058   7.322  0.0746 -1.1662  1.8093
  168SOPE   C3718980   1.107   1.179   7.454  0.3081  0.0884 -0.1417
  168SOPE   H7X18981   1.025   1.253   7.459 -1.3309 -1.8133  1.8007
  168SOPE   H7Y18982   1.206   1.230   7.458  1.1598 -1.6453  1.5034
  168SOPE   C3818983   1.098   1.087   7.579  0.3054  0.7609  0.3065
  168SOPE   H8X18984   1.177   1.010   7.562  0.4983  1.2126 -0.9091
  168SOPE   H8Y18985   0.997   1.041   7.587  0.0153  0.8370 -2.2769
  168SOPE   C3918986   1.137   1.151   7.721 -0.2489  0.3304  0.0415
  168SOPE   H9X18987   1.144   1.065   7.790 -1.8334  0.7676  0.7701
  168SOPE   H9Y18988   1.051   1.214   7.754  0.2619  1.9766 -1.6957
  168SOPE  C31018989   1.269   1.219   7.726 -0.7423 -0.6461  0.0097
  168SOPE  H10X18990   1.274   1.307   7.658 -1.0084 -0.9025 -0.3405
  168SOPE  H10Y18991   1.348   1.152   7.686  1.4693  1.8769  0.0061
  168SOPE  C31118992   1.312   1.260   7.872  0.5560  0.2687  0.3257
  168SOPE  H11X18993   1.414   1.303   7.874  0.3514  0.8691 -1.4639
  168SOPE  H11Y18994   1.313   1.163   7.927  2.0884  0.5939  0.8879
  168SOPE  C31218995   1.214   1.355   7.938  0.0968 -0.3901 -0.3480
  168SOPE  H12X18996   1.118   1.300   7.946 -0.7908  1.0797 -0.6122
  168SOPE  H12Y18997   1.200   1.441   7.868 -0.3297  1.5485  2.0602
  168SOPE  C31318998   1.272   1.416   8.068  0.3678 -0.9230 -0.1886
  168SOPE  H13X18999   1.195   1.480   8.118  1.9672 -0.1949  1.3864
  168SOPE  H13Y19000   1.366   1.474   8.075  0.0800 -0.5084  0.3226
  168SOPE  C31419001   1.284   1.296   8.173  0.1159 -0.0136  0.2922
  168SOPE  H14X19002   1.359   1.227   8.130 -0.2276 -1.0955  1.4148
  168SOPE  H14Y19003   1.186   1.247   8.186 -0.1643  0.2811 -0.6705
  168SOPE  C31519004   1.335   1.337   8.308  0.1228  0.2270  0.0402
  168SOPE  H15X19005   1.256   1.391   8.366  0.1298  0.7890 -0.4722
  168SOPE  H15Y19006   1.421   1.406   8.297  0.2168  0.3836  1.6571
  168SOPE  C31619007   1.381   1.216   8.395  0.4967 -0.2634 -0.2652
  168SOPE  H16X19008   1.431   1.247   8.489 -1.3980  1.0502  0.3314
  168SOPE  H16Y19009   1.454   1.162   8.330  1.4226  1.3185 -0.5524
  168SOPE  C31719010   1.263   1.127   8.444  0.5431 -0.1296 -0.2542
  168SOPE  H17X19011   1.291   1.047   8.516 -0.5588  1.5212  2.0767
  168SOPE  H17Y19012   1.220   1.076   8.355  1.0707 -0.0652 -0.5502
  168SOPE  C31819013   1.147   1.208   8.507 -0.2080 -0.5800 -0.0125
  168SOPE  H18X19014   1.180   1.265   8.596 -1.1942 -1.8227  1.1614
  168SOPE  H18Y19015   1.067   1.138   8.538 -2.0182  0.7053 -1.6126
  168SOPE  H18Z19016   1.100   1.281   8.438 -2.2152 -0.6905  1.1992
  169SOPE     N19017   3.326   2.410   6.446 -0.0315 -0.6815 -0.2568
  169SOPE   HN119018   3.412   2.461   6.416 -0.6528 -0.5178 -1.8455
  169SOPE   HN219019   3.281   2.359   6.366 -0.1947  1.8854 -1.8696
  169SOPE   HN319020   3.264   2.490   6.469 -0.4894 -0.4122 -2.2859
  169SOPE   C1219021   3.377   2.318   6.556  0.0131 -0.0094 -0.4641
  169SOPE  H12A19022   3.360   2.378   6.647  1.6832 -1.8704  1.1202
  169SOPE  H12B19023   3.484   2.309   6.531 -0.1124 -0.2900 -0.9101
  169SOPE   C1119024   3.303   2.183   6.547 -0.0063 -0.8889  0.2884
  169SOPE  H11A19025   3.195   2.210   6.544  0.8915  2.9025 -1.5090
  169SOPE  H11B19026   3.319   2.115   6.633 -0.0111 -1.3548 -0.0792
  169SOPE     P19027   3.436   2.000   6.425 -0.1488 -0.8049  0.4976
  169SOPE   O1319028   3.506   1.998   6.295  0.2972 -0.1156 -0.1789
  169SOPE   O1419029   3.359   1.881   6.476 -0.1414 -0.0462  0.0071
  169SOPE   O1219030   3.339   2.128   6.415  0.2719 -0.0669  0.3162
  169SOPE   O1119031   3.544   2.044   6.529  0.4613 -0.2002  0.3938
  169SOPE    C119032   3.670   1.982   6.519  0.4011 -0.2507  0.3270
  169SOPE    HA19033   3.728   2.037   6.442 -2.0007 -1.5434 -2.5330
  169SOPE    HB19034   3.669   1.875   6.487 -0.9538  0.3597 -1.8017
  169SOPE    C219035   3.740   1.984   6.657 -0.4071 -0.7487  0.0550
  169SOPE    HS19036   3.849   1.979   6.638 -0.2309  1.3892  0.3690
  169SOPE   O2119037   3.693   1.874   6.724  0.3156  0.0003  0.1798
  169SOPE   C2119038   3.768   1.813   6.826 -0.7400 -0.1743  0.7319
  169SOPE   O2219039   3.889   1.846   6.838 -0.8489  0.2170  0.0379
  169SOPE   C2219040   3.689   1.731   6.923  0.2238  0.1276  0.3860
  169SOPE   H2R19041   3.600   1.694   6.868 -0.3341 -0.2174  1.5166
  169SOPE   H2S19042   3.648   1.798   7.001 -1.5759  1.3221 -1.5523
  169SOPE    C319043   3.707   2.107   6.736  0.1899 -0.3921  0.8598
  169SOPE    HX19044   3.597   2.104   6.754  0.2582  0.0390  1.3665
  169SOPE    HY19045   3.730   2.201   6.682  1.8377  0.4227  2.9085
  169SOPE   O3119046   3.772   2.091   6.866 -0.1591 -0.1079  0.6810
  169SOPE   C3119047   3.802   2.212   6.921 -0.4333  0.2352 -0.1529
  169SOPE   O3219048   3.756   2.320   6.892 -0.5672 -0.3216  0.4547
  169SOPE   C3219049   3.902   2.181   7.035 -0.4085 -0.1275  1.0170
  169SOPE   H2X19050   3.969   2.269   7.045 -1.4753  0.6510  1.3493
  169SOPE   H2Y19051   3.976   2.110   6.991 -2.1987 -0.7151 -1.1467
  169SOPE   C2319052   3.764   1.598   6.957  0.3977  0.1337 -0.4360
  169SOPE   H3R19053   3.817   1.563   6.866 -2.3373  2.1108 -2.8657
  169SOPE   H3S19054   3.684   1.531   6.996  0.0476  0.5441 -0.4495
  169SOPE   C2419055   3.853   1.617   7.075  0.0478 -0.3079  0.2848
  169SOPE   H4R19056   3.907   1.524   7.103 -0.4562  0.4566  4.1445
  169SOPE   H4S19057   3.932   1.685   7.037  0.9398 -0.1080  2.4147
  169SOPE   C2519058   3.790   1.668   7.208  0.0667  0.1491 -0.4628
  169SOPE   H5R19059   3.759   1.774   7.198  0.1475  0.2339  0.1582
  169SOPE   H5S19060   3.700   1.606   7.229  0.4797  0.1037  1.2408
  169SOPE   C2619061   3.878   1.653   7.326  0.1418 -1.0714  0.4174
  169SOPE   H6R19062   3.928   1.554   7.324 -1.3731 -1.8362 -2.2979
  169SOPE   H6S19063   3.958   1.729   7.339  1.0899 -1.7905 -1.0713
  169SOPE   C2719064   3.803   1.650   7.464  0.6385 -0.0762 -0.8750
  169SOPE   H7R19065   3.733   1.734   7.485  0.4249 -0.9803  2.2771
  169SOPE   H7S19066   3.733   1.565   7.448  0.9609 -0.2709 -1.2519
  169SOPE   C2819067   3.901   1.622   7.580  0.1687 -1.0106 -0.0161
  169SOPE   H8R19068   3.933   1.516   7.568 -1.8640 -1.9258  2.1472
  169SOPE   H8S19069   3.999   1.673   7.566  1.1958 -2.4577  1.7013
  169SOPE   C2919070   3.853   1.641   7.721  0.1865 -0.0734 -0.8441
  169SOPE   H9119071   3.845   1.747   7.747 -2.3767 -0.1426 -1.2293
  169SOPE  C21019072   3.823   1.554   7.823 -0.2075 -0.0115  0.3553
  169SOPE  H10119073   3.793   1.600   7.918  0.4695 -0.7729  0.9481
  169SOPE  C21119074   3.838   1.406   7.820  0.5959 -0.0178  0.4541
  169SOPE  H11R19075   3.838   1.359   7.720  0.8739  0.5261  0.1937
  169SOPE  H11S19076   3.757   1.357   7.878  0.6317  0.6600  1.0970
  169SOPE  C21219077   3.967   1.363   7.895  0.3029  0.5945 -0.2968
  169SOPE  H12R19078   3.974   1.426   7.987 -1.2950  0.7810 -0.2911
  169SOPE  H12S19079   4.049   1.368   7.821  1.0606  4.2175  0.6739
  169SOPE  C21319080   3.958   1.220   7.960  0.0141  0.2861 -0.2247
  169SOPE  H13R19081   3.881   1.217   8.041  0.5383  0.3321  0.2790
  169SOPE  H13S19082   4.058   1.203   8.005  0.6674  2.1507 -0.9195
  169SOPE  C21419083   3.920   1.096   7.875 -0.3304  0.1091  0.3827
  169SOPE  H14R19084   3.825   1.131   7.829  0.4008  0.4407 -0.9144
  169SOPE  H14S19085   3.904   1.002   7.931  0.6130 -0.3655 -0.1180
  169SOPE  C21519086   4.021   1.084   7.764  0.7045 -0.0866 -0.3934
  169SOPE  H15R19087   4.119   1.056   7.807 -0.2646 -1.4369  0.9871
  169SOPE  H15S19088   4.036   1.171   7.697 -0.3801 -0.2314 -0.8372
  169SOPE  C21619089   3.980   0.974   7.661 -0.2392  0.1108  0.2058
  169SOPE  H16R19090   3.896   1.009   7.597  1.9048  1.0704 -2.1966
  169SOPE  H16S19091   3.945   0.883   7.713  1.0922 -1.6104 -1.8292
  169SOPE  C21719092   4.095   0.935   7.563  0.4005 -0.3822  0.1663
  169SOPE  H17R19093   4.178   0.892   7.622 -0.3926 -1.6064  0.4030
  169SOPE  H17S19094   4.133   1.025   7.509 -1.5567 -0.6665 -1.7584
  169SOPE  C21819095   4.069   0.829   7.446 -0.5288 -0.1104  0.2955
  169SOPE  H18R19096   4.161   0.806   7.389 -0.1431  2.5597 -0.2326
  169SOPE  H18S19097   4.000   0.868   7.369 -0.9311  2.7112  1.9900
  169SOPE  H18T19098   4.040   0.729   7.486  0.5226 -1.4720 -2.2453
  169SOPE   C3319099   3.833   2.132   7.161 -1.4573  0.2736 -0.7454
  169SOPE   H3X19100   3.914   2.096   7.229 -0.5637  0.0165 -1.9368
  169SOPE   H3Y19101   3.767   2.047   7.136 -0.4361 -0.1135 -2.1649
  169SOPE   C3419102   3.741   2.252   7.212  0.6077  0.8080 -0.2153
  169SOPE   H4X19103   3.696   2.309   7.128  1.1175  0.3654 -0.7908
  169SOPE   H4Y19104   3.803   2.323   7.271  2.3653 -1.2148  0.4690
  169SOPE   C3519105   3.622   2.204   7.300  0.4623  0.1365 -0.4192
  169SOPE   H5X19106   3.556   2.135   7.245 -2.3491 -1.2206  4.3454
  169SOPE   H5Y19107   3.558   2.290   7.328 -1.2875 -0.6671 -1.9012
  169SOPE   C3619108   3.682   2.128   7.427  0.2283 -0.3101 -0.7068
  169SOPE   H6X19109   3.727   2.212   7.485  1.8458 -0.5338 -1.5942
  169SOPE   H6Y19110   3.758   2.059   7.383  0.3423 -0.8639  0.3216
  169SOPE   C3719111   3.569   2.053   7.510 -0.3360  0.2300 -0.4568
  169SOPE   H7X19112   3.533   1.965   7.453  2.2827 -1.9449  1.1524
  169SOPE   H7Y19113   3.494   2.133   7.529 -1.5632 -0.5523 -1.9243
  169SOPE   C3819114   3.621   2.005   7.647 -0.7447  0.3750  0.2790
  169SOPE   H8X19115   3.704   1.933   7.630  1.4101  2.5542  1.3757
  169SOPE   H8Y19116   3.660   2.092   7.704 -1.0938  0.4841  0.3585
  169SOPE   C3919117   3.525   1.933   7.738  0.2222 -0.5661  0.9597
  169SOPE   H9X19118   3.501   1.834   7.694 -2.8620  0.5378  0.0697
  169SOPE   H9Y19119   3.431   1.992   7.736  0.0409 -0.8103  1.9210
  169SOPE  C31019120   3.583   1.923   7.880  0.5419  0.5612 -0.8314
  169SOPE  H10X19121   3.633   2.021   7.898 -1.2578  1.3463 -0.0363
  169SOPE  H10Y19122   3.661   1.844   7.889  0.1210  0.2396 -0.0222
  169SOPE  C31119123   3.483   1.891   7.991  0.1753 -0.1044 -0.7864
  169SOPE  H11X19124   3.410   1.811   7.967  0.8920 -1.3850  1.2190
  169SOPE  H11Y19125   3.413   1.977   7.998  0.8404  0.3857 -0.1329
  169SOPE  C31219126   3.541   1.888   8.135  0.3544 -0.2503  0.2370
  169SOPE  H12X19127   3.612   1.970   8.160  1.3794 -1.4858  1.4228
  169SOPE  H12Y19128   3.604   1.798   8.121  0.2778 -0.2497 -0.1107
  169SOPE  C31319129   3.440   1.861   8.246 -0.0363  0.3689 -0.4315
  169SOPE  H13X19130   3.358   1.800   8.203  0.1248 -0.9715  1.1412
  169SOPE  H13Y19131   3.397   1.962   8.265 -1.3997 -0.0875 -1.0827
  169SOPE  C31419132   3.493   1.816   8.380 -0.2846  0.3409  0.2910
  169SOPE  H14X19133   3.538   1.907   8.424 -0.7804  1.2099 -0.9775
  169SOPE  H14Y19134   3.572   1.738   8.378 -0.5584  0.0307  1.3493
  169SOPE  C31519135   3.374   1.779   8.471  0.0562 -0.2175 -0.3787
  169SOPE  H15X19136   3.406   1.731   8.566 -2.7198 -0.4467  0.4974
  169SOPE  H15Y19137   3.311   1.706   8.416  0.2856 -1.2233  0.6855
  169SOPE  C31619138   3.278   1.895   8.508  0.2140 -0.6217 -0.4596
  169SOPE  H16X19139   3.241   1.955   8.422  0.4460 -0.0981 -0.1963
  169SOPE  H16Y19140   3.309   1.967   8.587 -1.2840 -1.8546  1.2798
  169SOPE  C31719141   3.143   1.857   8.579  0.2283  0.4053  0.4867
  169SOPE  H17X19142   3.072   1.797   8.518  1.0099 -0.8317  0.7663
  169SOPE  H17Y19143   3.107   1.957   8.612 -2.9560 -0.5974  0.2372
  169SOPE  C31819144   3.169   1.770   8.708  0.1868 -0.0459 -0.2555
  169SOPE  H18X19145   3.228   1.681   8.677 -1.2666 -1.5628  1.2021
  169SOPE  H18Y19146   3.075   1.736   8.759 -0.9769  3.0485 -0.2645
  169SOPE  H18Z19147   3.239   1.822   8.776 -1.0794  0.6761  0.5122
  170SOPE     N19148   4.953   0.750   6.140  0.1220 -0.4697 -0.1481
  170SOPE   HN119149   5.015   0.676   6.178  0.9634 -0.1151 -0.8054
  170SOPE   HN219150   4.861   0.706   6.122 -0.9610  1.8949 -0.6120
  170SOPE   HN319151   4.996   0.791   6.054 -1.0018 -0.1311 -0.5585
  170SOPE   C1219152   4.930   0.849   6.251  0.0282  0.2329  0.4852
  170SOPE  H12A19153   4.862   0.927   6.212 -0.3931 -1.9319 -3.4040
  170SOPE  H12B19154   5.029   0.890   6.281 -1.3238  3.4111  0.7777
  170SOPE   C1119155   4.866   0.784   6.381 -0.3212 -0.1002 -0.4565
  170SOPE  H11A19156   4.854   0.870   6.451  1.6104  0.2209 -0.4680
  170SOPE  H11B19157   4.933   0.705   6.419  1.8300  2.2302  0.7594
  170SOPE     P19158   4.654   0.622   6.443  0.3089  0.2319 -0.2493
  170SOPE   O1319159   4.714   0.492   6.430  0.0322 -0.0097 -0.3504
  170SOPE   O1419160   4.510   0.622   6.405 -0.0706  0.0510 -0.0913
  170SOPE   O1219161   4.736   0.725   6.355  0.1519 -0.5807  0.1433
  170SOPE   O1119162   4.666   0.666   6.593  0.0597  0.4981 -0.1894
  170SOPE    C119163   4.642   0.802   6.634  0.2775  0.7599  0.2706
  170SOPE    HA19164   4.597   0.865   6.555  0.6253 -0.4734 -0.9396
  170SOPE    HB19165   4.745   0.837   6.656  1.1368 -2.4312  1.5885
  170SOPE    C219166   4.565   0.829   6.769  0.4399 -0.8257 -0.4317
  170SOPE    HS19167   4.588   0.929   6.811  0.9762 -0.1423 -2.3163
  170SOPE   O2119168   4.591   0.717   6.866 -0.4610  0.3871  0.7421
  170SOPE   C2119169   4.680   0.753   6.951 -0.1406 -1.0466  0.2392
  170SOPE   O2219170   4.767   0.844   6.935 -0.5682 -0.1912  0.3844
  170SOPE   C2219171   4.676   0.662   7.074 -0.0299 -0.7598 -0.5879
  170SOPE   H2R19172   4.732   0.573   7.038  1.4009  0.2341 -0.8672
  170SOPE   H2S19173   4.570   0.640   7.098  0.1512  0.8335  1.8878
  170SOPE    C319174   4.410   0.830   6.742 -0.1129  0.4056  0.0065
  170SOPE    HX19175   4.376   0.739   6.686  1.2804  0.1728 -0.4802
  170SOPE    HY19176   4.378   0.916   6.680  0.4489 -1.1335 -2.5334
  170SOPE   O3119177   4.332   0.825   6.869 -0.5265 -0.1438  0.5519
  170SOPE   C3119178   4.335   0.935   6.938  0.0698  0.0092 -0.4652
  170SOPE   O3219179   4.398   1.033   6.911 -0.3014 -0.4159  0.0029
  170SOPE   C3219180   4.240   0.919   7.046  0.2974  0.1466  0.0872
  170SOPE   H2X19181   4.250   0.812   7.075 -0.2095  0.4256  1.3252
  170SOPE   H2Y19182   4.139   0.922   6.999  0.7103 -0.8523 -0.8742
  170SOPE   C2319183   4.743   0.722   7.198 -0.5275  0.9296 -0.4642
  170SOPE   H3R19184   4.673   0.797   7.241 -0.0664 -0.7043  3.2951
  170SOPE   H3S19185   4.841   0.770   7.175 -0.3834  0.6202 -0.4892
  170SOPE   C2419186   4.769   0.609   7.310  0.2957  0.7715  0.2950
  170SOPE   H4R19187   4.683   0.540   7.309  2.0698 -1.5135 -0.6290
  170SOPE   H4S19188   4.850   0.536   7.285 -0.6867 -0.4171  0.5300
  170SOPE   C2519189   4.773   0.673   7.450 -0.4442  0.0284  0.4263
  170SOPE   H5R19190   4.877   0.700   7.477  0.6588 -0.2767 -3.2448
  170SOPE   H5S19191   4.712   0.766   7.449  1.4216  1.2669 -0.0536
  170SOPE   C2619192   4.739   0.587   7.567 -0.1868 -0.0429  0.2175
  170SOPE   H6R19193   4.632   0.560   7.558  0.4939 -2.6124 -0.3718
  170SOPE   H6S19194   4.806   0.500   7.577  0.8222  0.7688  0.6600
  170SOPE   C2719195   4.747   0.663   7.700  0.0522  0.7650 -0.6755
  170SOPE   H7R19196   4.846   0.705   7.726 -0.9004  2.3835  0.4566
  170SOPE   H7S19197   4.681   0.753   7.698 -1.2754 -0.1842 -0.6403
  170SOPE   C2819198   4.704   0.570   7.818 -0.7541 -0.5150  0.6466
  170SOPE   H8R19199   4.606   0.525   7.792 -0.7309  1.4574 -3.1667
  170SOPE   H8S19200   4.775   0.484   7.813  1.5554  1.4118 -1.0713
  170SOPE   C2919201   4.683   0.650   7.948  0.6881 -0.2561 -0.1923
  170SOPE   H9119202   4.592   0.711   7.956 -1.2326 -3.1379  0.9661
  170SOPE  C21019203   4.775   0.669   8.039 -0.1102 -0.4046 -0.3573
  170SOPE  H10119204   4.754   0.722   8.133  1.8321 -1.1678  0.5289
  170SOPE  C21119205   4.914   0.611   8.046 -0.4380 -0.0499  0.5150
  170SOPE  H11R19206   4.931   0.552   7.954  0.9716  0.4335  0.4597
  170SOPE  H11S19207   4.913   0.536   8.128  1.3685  1.3176  1.8304
  170SOPE  C21219208   5.024   0.712   8.070  0.5632  0.2628  0.0783
  170SOPE  H12R19209   5.018   0.782   7.984  0.9339  0.7547  0.4468
  170SOPE  H12S19210   5.126   0.669   8.053  0.2812 -0.2489 -0.3414
  170SOPE  C21319211   5.023   0.777   8.215  0.0594  0.8641  0.6829
  170SOPE  H13R19212   4.949   0.722   8.278 -1.6773  2.2206 -0.1559
  170SOPE  H13S19213   4.987   0.881   8.224 -0.6944  0.5808  0.9408
  170SOPE  C21419214   5.168   0.768   8.271 -0.6919  0.6312  0.7067
  170SOPE  H14R19215   5.224   0.849   8.220  1.1759 -1.8086 -1.2547
  170SOPE  H14S19216   5.207   0.666   8.251 -2.1709  0.2951 -0.5429
  170SOPE  C21519217   5.168   0.791   8.420  0.4580  0.6500  0.0423
  170SOPE  H15R19218   5.098   0.727   8.479  0.7388 -0.7233 -1.0849
  170SOPE  H15S19219   5.134   0.894   8.443 -0.6862 -0.0486  1.5785
  170SOPE  C21619220   5.309   0.794   8.482  0.3154 -0.2954  0.6063
  170SOPE  H16R19221   5.350   0.691   8.470 -0.2682 -0.5464  0.7351
  170SOPE  H16S19222   5.295   0.833   8.585  1.6506 -0.7346  0.9640
  170SOPE  C21719223   5.406   0.895   8.418  0.2558  0.3129  0.1368
  170SOPE  H17R19224   5.414   0.844   8.320 -2.7297  0.7755 -0.4210
  170SOPE  H17S19225   5.503   0.894   8.472  0.2529  1.4012  0.1628
  170SOPE  C21819226   5.357   1.043   8.409 -0.0892 -0.2010 -0.1964
  170SOPE  H18R19227   5.442   1.101   8.367  0.6958 -2.2638 -1.5675
  170SOPE  H18S19228   5.324   1.075   8.510 -1.1124  0.1184 -0.6233
  170SOPE  H18T19229   5.270   1.035   8.341 -1.3671  2.8256  0.9974
  170SOPE   C3319230   4.237   1.022   7.152 -0.0827 -0.3412  0.0919
  170SOPE   H3X19231   4.156   0.999   7.224 -0.9766 -1.3169 -1.1983
  170SOPE   H3Y19232   4.231   1.122   7.106  0.6545  0.1800  1.0969
  170SOPE   C3419233   4.364   1.008   7.240  0.2400  0.0215  0.6056
  170SOPE   H4X19234   4.460   1.003   7.185 -0.3097 -1.0144 -0.2828
  170SOPE   H4Y19235   4.365   0.911   7.295 -0.1112 -0.4308 -0.1796
  170SOPE   C3519236   4.369   1.121   7.341  0.4599 -0.1897  0.4441
  170SOPE   H5X19237   4.281   1.114   7.407 -0.0248 -0.0758 -0.1831
  170SOPE   H5Y19238   4.354   1.216   7.285  0.4657 -0.6709 -0.3921
  170SOPE   C3619239   4.511   1.131   7.406  0.1819 -0.1722  0.3753
  170SOPE   H6X19240   4.519   1.208   7.486 -1.6717  0.1980  0.2216
  170SOPE   H6Y19241   4.594   1.132   7.332  0.2081 -0.4406  0.3986
  170SOPE   C3719242   4.555   0.997   7.475  0.0122  0.0044  0.1546
  170SOPE   H7X19243   4.666   1.000   7.475  0.0166  0.2127 -1.5473
  170SOPE   H7Y19244   4.519   0.902   7.430  2.7019 -1.7903  1.6082
  170SOPE   C3819245   4.506   0.993   7.619  0.0503 -0.4454 -0.4886
  170SOPE   H8X19246   4.504   0.889   7.656  1.3495  0.2192  1.4904
  170SOPE   H8Y19247   4.401   1.030   7.625  0.6387  0.8362  2.5680
  170SOPE   C3919248   4.602   1.063   7.719  0.5504 -0.0805 -0.1370
  170SOPE   H9X19249   4.605   1.170   7.690 -0.7954  0.1739  0.6110
  170SOPE   H9Y19250   4.700   1.012   7.714  1.2175  1.1663  0.0821
  170SOPE  C31019251   4.563   1.061   7.866 -0.4636  0.3737 -0.2482
  170SOPE  H10X19252   4.651   1.104   7.919  0.8136 -1.3544 -0.9155
  170SOPE  H10Y19253   4.557   0.954   7.896 -3.6650  0.8267  0.9725
  170SOPE  C31119254   4.427   1.126   7.898 -0.5947 -0.4387 -0.1748
  170SOPE  H11X19255   4.355   1.066   7.839  0.8925 -0.4591 -2.0075
  170SOPE  H11Y19256   4.415   1.234   7.875  0.8096 -0.1075  0.5568
  170SOPE  C31219257   4.398   1.122   8.052  0.0156  1.0110 -0.3853
  170SOPE  H12X19258   4.381   1.017   8.085  0.9028  0.4073 -1.7724
  170SOPE  H12Y19259   4.308   1.184   8.070 -1.6659 -1.2445 -0.7719
  170SOPE  C31319260   4.504   1.187   8.146 -0.6636  0.2197 -0.3286
  170SOPE  H13X19261   4.556   1.268   8.090  0.4429  0.5783  1.1933
  170SOPE  H13Y19262   4.578   1.104   8.152 -1.1947 -0.2579 -0.3252
  170SOPE  C31419263   4.463   1.227   8.288 -0.2684 -0.9102  0.3244
  170SOPE  H14X19264   4.429   1.127   8.323  2.4799 -1.9560  0.1542
  170SOPE  H14Y19265   4.384   1.305   8.286  0.1056 -0.5340  0.1019
  170SOPE  C31519266   4.578   1.267   8.382 -0.0881 -0.3126 -0.1440
  170SOPE  H15X19267   4.536   1.284   8.484 -1.2821  1.8391 -0.9543
  170SOPE  H15Y19268   4.631   1.360   8.353  1.0014 -1.0719 -0.5833
  170SOPE  C31619269   4.703   1.174   8.386 -0.0281 -0.6944  0.5003
  170SOPE  H16X19270   4.753   1.178   8.287  1.2118  2.2494  1.1905
  170SOPE  H16Y19271   4.669   1.072   8.413 -0.1037 -0.7516  0.1932
  170SOPE  C31719272   4.802   1.204   8.500 -0.2001 -0.6120  0.3346
  170SOPE  H17X19273   4.736   1.218   8.589 -1.2558  0.9670 -0.6698
  170SOPE  H17Y19274   4.855   1.298   8.473 -1.1917  0.0773  0.7305
  170SOPE  C31819275   4.914   1.102   8.518 -0.5885  0.0696 -0.2214
  170SOPE  H18X19276   4.976   1.084   8.427 -0.0247  0.7827  0.0163
  170SOPE  H18Y19277   4.864   1.003   8.527 -1.7040  0.6559  0.0497
  170SOPE  H18Z19278   4.985   1.131   8.598 -0.2837  0.1407 -0.5148
  171SOPE     N19279   4.663   4.727   6.144  0.3993  0.1632 -0.2623
  171SOPE   HN119280   4.585   4.663   6.171 -0.2004  0.4584 -1.2893
  171SOPE   HN219281   4.626   4.800   6.080 -1.4454 -0.3501  0.1760
  171SOPE   HN319282   4.736   4.675   6.092  0.5595  0.8516 -0.7291
  171SOPE   C1219283   4.727   4.787   6.269  0.2221 -0.0277 -0.3451
  171SOPE  H12A19284   4.671   4.881   6.292 -1.1422 -0.6364 -1.1030
  171SOPE  H12B19285   4.833   4.812   6.251 -0.6779  4.2588 -0.4527
  171SOPE   C1119286   4.705   4.686   6.390  0.6159  0.4123  0.0641
  171SOPE  H11A19287   4.597   4.685   6.414  1.1336  2.2763  2.7553
  171SOPE  H11B19288   4.754   4.732   6.479  1.8807  1.1211 -0.9773
  171SOPE     P19289   4.898   4.512   6.394  0.0779  0.1733 -0.3755
  171SOPE   O1319290   4.978   4.634   6.398  0.4201  0.1371  0.3408
  171SOPE   O1419291   4.950   4.411   6.300 -0.5582 -0.8304 -0.0828
  171SOPE   O1219292   4.753   4.556   6.355  0.4441  0.4705 -0.1646
  171SOPE   O1119293   4.886   4.452   6.539  0.4578 -0.0738  0.5518
  171SOPE    C119294   4.757   4.431   6.594  0.3406 -0.3897 -0.0503
  171SOPE    HA19295   4.698   4.368   6.524  0.8185 -0.4804 -0.3759
  171SOPE    HB19296   4.703   4.526   6.614  0.6994  0.2849 -2.1619
  171SOPE    C219297   4.776   4.352   6.723 -0.0955 -0.0343 -0.0088
  171SOPE    HS19298   4.685   4.352   6.788 -0.3468 -1.8644 -0.3330
  171SOPE   O2119299   4.884   4.408   6.805  0.3416  0.5249  0.3111
  171SOPE   C2119300   4.847   4.521   6.864 -0.5945 -0.5371  0.1147
  171SOPE   O2219301   4.742   4.580   6.854  0.4534  0.0991  0.0358
  171SOPE   C2219302   4.968   4.568   6.951  0.4266  0.2603  1.3466
  171SOPE   H2R19303   4.924   4.654   7.007 -0.9274  0.4212  0.0772
  171SOPE   H2S19304   5.057   4.611   6.901 -0.6515  0.3722 -0.5159
  171SOPE    C319305   4.797   4.204   6.701 -0.4751 -0.3630 -0.6601
  171SOPE    HX19306   4.875   4.175   6.628 -1.3730 -0.7598 -1.4818
  171SOPE    HY19307   4.703   4.179   6.647 -1.8126 -1.0220  1.9305
  171SOPE   O3119308   4.792   4.130   6.823 -0.0584  0.2163  0.0068
  171SOPE   C3119309   4.910   4.098   6.869 -0.0425  0.1055 -0.2554
  171SOPE   O3219310   5.021   4.125   6.823  0.3749 -0.2540  0.2282
  171SOPE   C3219311   4.890   4.050   7.009 -0.4590 -0.0925  0.1818
  171SOPE   H2X19312   4.800   3.987   7.025  0.0543  0.0336  4.1366
  171SOPE   H2Y19313   4.873   4.147   7.061 -0.0010  0.1623 -0.1466
  171SOPE   C2319314   5.029   4.453   7.049  0.3598 -0.7809 -0.3232
  171SOPE   H3R19315   5.122   4.506   7.080 -0.3498  0.5315 -0.4246
  171SOPE   H3S19316   5.050   4.361   6.991 -1.0831 -0.7857 -0.8431
  171SOPE   C2419317   4.950   4.414   7.169  0.3112  0.2695  0.8425
  171SOPE   H4R19318   4.861   4.354   7.138  0.0240  0.9128  0.4156
  171SOPE   H4S19319   5.015   4.357   7.239 -0.3547 -0.7283  0.6601
  171SOPE   C2519320   4.894   4.535   7.253  0.3228 -0.7438  0.5538
  171SOPE   H5R19321   4.978   4.607   7.264  0.0247  0.2049 -2.9270
  171SOPE   H5S19322   4.817   4.582   7.188  1.1361 -0.2752 -0.0798
  171SOPE   C2619323   4.849   4.498   7.394 -0.2083  0.0350 -0.0567
  171SOPE   H6R19324   4.926   4.441   7.449  0.0321  0.1839 -0.2372
  171SOPE   H6S19325   4.830   4.592   7.451 -0.7874  0.8778 -1.5953
  171SOPE   C2719326   4.716   4.422   7.402  0.4241  0.2630  0.3451
  171SOPE   H7R19327   4.629   4.473   7.355  0.3102  0.4647  0.7814
  171SOPE   H7S19328   4.718   4.325   7.347  0.5231  1.0399 -1.0539
  171SOPE   C2819329   4.669   4.406   7.547 -0.0234  0.3047  0.1397
  171SOPE   H8R19330   4.667   4.511   7.584  0.3478  0.6870 -0.8845
  171SOPE   H8S19331   4.566   4.366   7.537  0.1347 -0.1923  0.4967
  171SOPE   C2919332   4.747   4.306   7.628 -0.2264 -0.7486 -1.1742
  171SOPE   H9119333   4.754   4.211   7.572  1.0327  0.1594 -2.5788
  171SOPE  C21019334   4.820   4.332   7.739  0.4154 -0.7507 -0.4186
  171SOPE  H10119335   4.880   4.254   7.791 -1.4058 -1.0688  1.2703
  171SOPE  C21119336   4.828   4.464   7.820 -0.2205 -0.1968 -0.2269
  171SOPE  H11R19337   4.793   4.545   7.753 -0.0248  0.2867  0.2621
  171SOPE  H11S19338   4.933   4.486   7.846 -1.2802  1.9507  2.3987
  171SOPE  C21219339   4.743   4.462   7.949 -0.8731 -0.1502 -0.3466
  171SOPE  H12R19340   4.765   4.559   7.999 -1.1529  0.0619 -0.6343
  171SOPE  H12S19341   4.763   4.382   8.024  0.2897  0.7334  0.3146
  171SOPE  C21319342   4.590   4.468   7.920  0.0257 -0.1667  0.7191
  171SOPE  H13R19343   4.554   4.373   7.875 -1.8195  0.8462 -0.0366
  171SOPE  H13S19344   4.564   4.538   7.837  3.5754  1.0083  0.5501
  171SOPE  C21419345   4.489   4.507   8.028 -0.0772 -0.0668  0.1062
  171SOPE  H14R19346   4.522   4.606   8.065  0.2997 -0.5096  0.9640
  171SOPE  H14S19347   4.495   4.435   8.113 -1.0440 -2.4692 -1.7853
  171SOPE  C21519348   4.351   4.513   7.987  0.8049  0.0644 -0.4744
  171SOPE  H15R19349   4.314   4.411   7.961 -0.5039  0.3695  0.1090
  171SOPE  H15S19350   4.344   4.577   7.897  1.3086  1.7833  0.6781
  171SOPE  C21619351   4.264   4.583   8.094 -0.9237 -0.4752  0.3180
  171SOPE  H16R19352   4.159   4.576   8.058 -0.5263 -2.0067 -0.6182
  171SOPE  H16S19353   4.300   4.688   8.094  1.3778 -1.2106 -1.0924
  171SOPE  C21719354   4.262   4.532   8.238  0.8664 -0.1992  0.3666
  171SOPE  H17R19355   4.367   4.541   8.274  1.3679  0.8357 -1.3245
  171SOPE  H17S19356   4.237   4.424   8.230 -3.5507  0.5248  2.9899
  171SOPE  C21819357   4.160   4.589   8.339  0.0630 -0.7410 -0.8031
  171SOPE  H18R19358   4.068   4.614   8.281 -0.4593  0.6820  0.5774
  171SOPE  H18S19359   4.174   4.691   8.382 -1.9894 -0.6753 -0.2512
  171SOPE  H18T19360   4.139   4.514   8.418  1.7053  0.4800  0.8427
  171SOPE   C3319361   5.013   3.981   7.056  0.9953  0.5927 -0.6802
  171SOPE   H3X19362   5.094   4.051   7.026  1.1775  0.5156 -0.3723
  171SOPE   H3Y19363   5.038   3.881   7.015  0.4645 -1.1821  3.1154
  171SOPE   C3419364   5.020   3.981   7.208  0.3501  0.1725  0.7764
  171SOPE   H4X19365   5.005   4.086   7.239 -1.8851 -0.2093  1.0864
  171SOPE   H4Y19366   5.123   3.951   7.237 -0.4348 -0.4340  3.0247
  171SOPE   C3519367   4.921   3.882   7.264 -0.2110  0.0462 -0.4237
  171SOPE   H5X19368   4.932   3.783   7.214 -1.2430 -1.6307  2.5408
  171SOPE   H5Y19369   4.820   3.928   7.262  0.0751  0.7471  0.8821
  171SOPE   C3619370   4.954   3.862   7.413  0.1223 -0.2593  0.2258
  171SOPE   H6X19371   5.050   3.910   7.442  0.1990  0.5150 -1.2857
  171SOPE   H6Y19372   4.962   3.752   7.426  1.9842 -0.5430 -2.9231
  171SOPE   C3719373   4.845   3.918   7.501  1.0454  0.2023 -0.1843
  171SOPE   H7X19374   4.746   3.874   7.480  1.2143 -0.5125  0.4995
  171SOPE   H7Y19375   4.840   4.029   7.499  2.8057  0.2998  0.0761
  171SOPE   C3819376   4.877   3.890   7.648 -0.0292  0.6399 -0.1247
  171SOPE   H8X19377   4.960   3.962   7.668 -0.5767  0.7946  1.7106
  171SOPE   H8Y19378   4.911   3.787   7.669 -0.4594  0.7224  1.0225
  171SOPE   C3919379   4.775   3.926   7.758 -0.3365  0.1596  0.5940
  171SOPE   H9X19380   4.679   3.878   7.731  0.1587 -0.4239 -0.1627
  171SOPE   H9Y19381   4.765   4.036   7.746  1.3526  0.3029  0.4373
  171SOPE  C31019382   4.831   3.913   7.894  0.7426  0.0726 -0.2689
  171SOPE  H10X19383   4.920   3.978   7.911 -0.7377  2.7096 -2.2292
  171SOPE  H10Y19384   4.866   3.809   7.907  1.7084  0.3959 -0.2498
  171SOPE  C31119385   4.726   3.960   8.003  0.4619 -0.3336 -0.0254
  171SOPE  H11X19386   4.633   3.900   7.989  0.8017 -0.8637 -0.0399
  171SOPE  H11Y19387   4.702   4.063   7.969 -0.8108 -1.2733 -2.0605
  171SOPE  C31219388   4.777   3.951   8.147 -0.0953  0.1390 -0.3528
  171SOPE  H12X19389   4.732   4.035   8.204  1.0540  0.5139  0.0238
  171SOPE  H12Y19390   4.887   3.969   8.149  0.0119 -0.6249  1.7947
  171SOPE  C31319391   4.746   3.824   8.218 -0.4324 -0.3146 -0.5147
  171SOPE  H13X19392   4.637   3.805   8.216 -0.7830  1.6327 -1.1118
  171SOPE  H13Y19393   4.789   3.815   8.320  1.2433 -3.4222 -1.4500
  171SOPE  C31419394   4.807   3.706   8.148 -0.3383  0.2863 -0.1530
  171SOPE  H14X19395   4.907   3.730   8.105 -1.5970  1.4576 -2.5467
  171SOPE  H14Y19396   4.756   3.677   8.053 -1.3217 -2.0303  1.0465
  171SOPE  C31519397   4.816   3.590   8.246  0.2578  0.4845  0.0650
  171SOPE  H15X19398   4.711   3.561   8.263  0.7914 -2.0848 -0.6898
  171SOPE  H15Y19399   4.868   3.610   8.342  0.0285  1.2232  0.0402
  171SOPE  C31619400   4.886   3.463   8.191 -0.4043  0.0817 -0.0288
  171SOPE  H16X19401   4.982   3.487   8.140  0.1763 -1.3566  0.3954
  171SOPE  H16Y19402   4.828   3.422   8.105  1.8340  2.4096 -2.7950
  171SOPE  C31719403   4.913   3.347   8.297  0.0808 -0.0308 -0.1615
  171SOPE  H17X19404   5.008   3.375   8.347 -0.4442  0.6546  0.4822
  171SOPE  H17Y19405   4.942   3.262   8.233 -1.5426 -1.0706  0.4642
  171SOPE  C31819406   4.797   3.328   8.404 -0.5208 -0.0863  0.2448
  171SOPE  H18X19407   4.800   3.409   8.481  0.7875 -0.0190  0.1343
  171SOPE  H18Y19408   4.812   3.230   8.455  0.1384  0.1783  0.5631
  171SOPE  H18Z19409   4.691   3.321   8.371 -1.1670 -0.5896  2.2918
  172SOPE     N19410   5.977   6.099   6.239  0.7524  0.2246 -0.0889
  172SOPE   HN119411   5.945   6.044   6.156  2.3054  0.0069 -0.5557
  172SOPE   HN219412   5.959   6.201   6.228 -1.7647 -0.1347  0.3006
  172SOPE   HN319413   6.079   6.084   6.228  0.6956  0.1259 -0.5358
  172SOPE   C1219414   5.927   6.037   6.370  0.1452 -1.0097 -0.1394
  172SOPE  H12A19415   5.988   6.088   6.448  0.4553  1.5541 -1.9884
  172SOPE  H12B19416   5.957   5.930   6.367  0.8435 -0.8374  0.3615
  172SOPE   C1119417   5.776   6.057   6.396 -0.9783 -0.1062 -0.2808
  172SOPE  H11A19418   5.726   6.029   6.301  4.3846 -1.0957 -2.9988
  172SOPE  H11B19419   5.744   6.162   6.412  0.7306  0.0114  2.7317
  172SOPE     P19420   5.634   6.002   6.619  0.2763 -0.2865  0.4835
  172SOPE   O1319421   5.654   5.898   6.727  0.7558 -0.4870 -0.0184
  172SOPE   O1419422   5.503   5.990   6.555 -0.4035 -0.0331 -0.6890
  172SOPE   O1219423   5.738   5.971   6.502  0.6760  0.0248 -0.0702
  172SOPE   O1119424   5.670   6.148   6.670  0.1866 -0.9351  0.4664
  172SOPE    C119425   5.769   6.160   6.778 -0.0457  0.1817  0.3710
  172SOPE    HA19426   5.853   6.224   6.742 -2.0488  1.4186 -2.3063
  172SOPE    HB19427   5.836   6.072   6.790 -2.2014 -1.5635 -0.0678
  172SOPE    C219428   5.725   6.210   6.916  1.2781  0.0582 -0.6804
  172SOPE    HS19429   5.805   6.266   6.971  1.1618 -1.6002  1.2308
  172SOPE   O2119430   5.652   6.104   6.984 -0.1352 -0.1648  0.3752
  172SOPE   C2119431   5.743   6.026   7.032 -0.4935  0.4905  0.8366
  172SOPE   O2219432   5.862   6.043   7.024  0.1750  0.6472 -0.1871
  172SOPE   C2219433   5.675   5.899   7.094 -0.1268  0.7116  0.8124
  172SOPE   H2R19434   5.758   5.825   7.095 -1.5029 -0.8323  3.1776
  172SOPE   H2S19435   5.603   5.845   7.029  0.9415 -1.2616  1.2212
  172SOPE    C319436   5.625   6.326   6.897 -0.4764 -0.0304 -0.0595
  172SOPE    HX19437   5.556   6.304   6.812  0.9473 -2.5729 -0.5830
  172SOPE    HY19438   5.682   6.416   6.863  0.8682 -1.2491 -1.0666
  172SOPE   O3119439   5.572   6.361   7.032 -0.0745 -0.0433 -0.2362
  172SOPE   C3119440   5.460   6.307   7.066  1.1037 -0.0190 -0.0826
  172SOPE   O3219441   5.403   6.214   7.009  0.1448  0.0907 -0.2379
  172SOPE   C3219442   5.408   6.365   7.194  1.1186 -0.5826 -0.1076
  172SOPE   H2X19443   5.299   6.384   7.183  1.2899  1.0572  0.8900
  172SOPE   H2Y19444   5.451   6.467   7.210 -0.5730 -0.4216  4.2570
  172SOPE   C2319445   5.600   5.916   7.230  0.0702  0.0105  0.1069
  172SOPE   H3R19446   5.491   5.894   7.221  0.4591 -2.2684  0.7113
  172SOPE   H3S19447   5.616   6.015   7.277  0.2747 -0.0320  0.1263
  172SOPE   C2419448   5.664   5.823   7.337 -0.4197  0.7641  0.1926
  172SOPE   H4R19449   5.630   5.718   7.332 -0.6184  0.8258  0.2538
  172SOPE   H4S19450   5.775   5.828   7.329 -0.4656 -0.3812 -1.3085
  172SOPE   C2519451   5.619   5.865   7.478  0.4253 -0.3254  0.3732
  172SOPE   H5R19452   5.671   5.962   7.494  0.8900 -0.3088 -1.1016
  172SOPE   H5S19453   5.508   5.865   7.483  0.4833 -1.2295  1.8458
  172SOPE   C2619454   5.679   5.776   7.585  0.5518  0.4355 -0.2281
  172SOPE   H6R19455   5.610   5.691   7.605 -0.1168  1.6101  2.7345
  172SOPE   H6S19456   5.775   5.738   7.544 -1.2259 -0.0520 -4.1858
  172SOPE   C2719457   5.697   5.852   7.717  0.4956  0.2204 -0.2348
  172SOPE   H7R19458   5.795   5.901   7.698  0.2372  0.9127  0.2090
  172SOPE   H7S19459   5.630   5.940   7.721  1.0203  0.6031  0.2053
  172SOPE   C2819460   5.677   5.758   7.830  0.7470 -0.0631 -0.0812
  172SOPE   H8R19461   5.569   5.732   7.825  0.9371 -0.8299 -0.1718
  172SOPE   H8S19462   5.735   5.665   7.812  3.6513  1.7444 -0.3590
  172SOPE   C2919463   5.698   5.816   7.971  0.0264  0.2667 -0.6328
  172SOPE   H9119464   5.642   5.909   7.993  0.4214  0.4750 -0.5033
  172SOPE  C21019465   5.763   5.758   8.071  0.0950 -0.0547 -0.3714
  172SOPE  H10119466   5.771   5.807   8.170 -2.3568 -2.2870  1.0076
  172SOPE  C21119467   5.839   5.627   8.065  0.6428 -0.0011 -0.6746
  172SOPE  H11R19468   5.947   5.639   8.087  1.1813 -1.5858 -2.2661
  172SOPE  H11S19469   5.850   5.572   7.968  1.6137 -1.3101  0.1573
  172SOPE  C21219470   5.798   5.512   8.161  0.7106 -0.9322 -0.1249
  172SOPE  H12R19471   5.845   5.417   8.130  1.9479 -0.7618  1.1958
  172SOPE  H12S19472   5.688   5.498   8.151  0.4659 -0.9376  2.1400
  172SOPE  C21319473   5.829   5.538   8.312  0.0651 -0.1911  0.5123
  172SOPE  H13R19474   5.785   5.635   8.343 -0.1586 -0.0724 -0.1576
  172SOPE  H13S19475   5.938   5.538   8.330 -0.3398  1.0902  3.2860
  172SOPE  C21419476   5.777   5.420   8.394  0.1503 -0.0885  0.1814
  172SOPE  H14R19477   5.797   5.327   8.336  0.4731 -0.4636  0.9004
  172SOPE  H14S19478   5.667   5.417   8.406 -0.3629 -2.3873 -4.0085
  172SOPE  C21519479   5.856   5.391   8.526  0.4381  0.1413 -0.5546
  172SOPE  H15R19480   5.848   5.480   8.592  2.0809  0.2612 -0.4998
  172SOPE  H15S19481   5.965   5.378   8.513  0.7629  1.8609  0.2534
  172SOPE  C21619482   5.806   5.262   8.598 -1.6553 -0.0949  0.3484
  172SOPE  H16R19483   5.890   5.233   8.664  1.1446  1.5890 -2.3373
  172SOPE  H16S19484   5.792   5.188   8.517  0.7941 -1.0526  0.7693
  172SOPE  C21719485   5.671   5.262   8.671 -0.3336  0.4287 -0.0754
  172SOPE  H17R19486   5.657   5.158   8.709 -1.2783  0.8251  0.6810
  172SOPE  H17S19487   5.580   5.285   8.610 -0.4707 -0.0944 -0.0718
  172SOPE  C21819488   5.673   5.353   8.804 -1.0039 -0.5956 -0.6482
  172SOPE  H18R19489   5.757   5.325   8.871 -0.1523  1.0632 -1.0004
  172SOPE  H18S19490   5.576   5.336   8.856 -1.3793 -0.7297 -1.3840
  172SOPE  H18T19491   5.676   5.459   8.772 -2.9506  0.4839  2.5640
  172SOPE   C3319492   5.446   6.280   7.316  0.2581  0.2010  0.2328
  172SOPE   H3X19493   5.556   6.262   7.313 -0.2185 -2.6096 -2.6936
  172SOPE   H3Y19494   5.387   6.186   7.310 -0.5363  0.6586  0.7611
  172SOPE   C3419495   5.396   6.336   7.449  0.5099  0.8875 -0.3741
  172SOPE   H4X19496   5.297   6.381   7.429 -0.7465 -1.8084 -0.3463
  172SOPE   H4Y19497   5.457   6.425   7.477  2.0215 -0.4791  0.7988
  172SOPE   C3519498   5.370   6.237   7.568  0.3707  0.0453 -1.0281
  172SOPE   H5X19499   5.445   6.155   7.573 -1.4595 -1.4974  1.9687
  172SOPE   H5Y19500   5.270   6.198   7.542  0.7478  0.2729 -2.8894
  172SOPE   C3619501   5.374   6.308   7.699 -0.4152  0.3888  0.1718
  172SOPE   H6X19502   5.315   6.402   7.689 -2.8810 -1.1634 -0.1438
  172SOPE   H6Y19503   5.481   6.328   7.724 -0.4670  0.4872  0.3155
  172SOPE   C3719504   5.321   6.222   7.819  0.3182 -0.7707 -0.7047
  172SOPE   H7X19505   5.374   6.124   7.825  0.7454 -0.6197 -1.7667
  172SOPE   H7Y19506   5.213   6.202   7.797 -0.2226 -0.4791  1.5994
  172SOPE   C3819507   5.310   6.293   7.952 -0.0129 -0.4239 -0.3239
  172SOPE   H8X19508   5.274   6.396   7.932  1.0997  0.1577  0.6017
  172SOPE   H8Y19509   5.415   6.305   7.986  0.0342 -1.4168 -0.1098
  172SOPE   C3919510   5.219   6.235   8.061  0.5640  1.0567  0.4634
  172SOPE   H9X19511   5.239   6.130   8.092 -1.6959  0.1732 -0.9598
  172SOPE   H9Y19512   5.121   6.249   8.011  2.4942  1.7908 -3.3104
  172SOPE  C31019513   5.220   6.320   8.186 -0.8730 -0.5537 -0.9691
  172SOPE  H10X19514   5.179   6.423   8.177  1.9636  0.6484 -0.5800
  172SOPE  H10Y19515   5.321   6.344   8.226 -0.5577  1.5475 -2.9364
  172SOPE  C31119516   5.133   6.254   8.296 -0.3764 -0.4154  0.3426
  172SOPE  H11X19517   5.136   6.321   8.385 -0.4634  0.1043 -0.0455
  172SOPE  H11Y19518   5.200   6.168   8.316 -0.8627 -0.7610  0.5061
  172SOPE  C31219519   4.978   6.243   8.281 -0.0582 -0.7769 -0.1791
  172SOPE  H12X19520   4.958   6.165   8.203  1.4403 -0.8917 -0.4591
  172SOPE  H12Y19521   4.939   6.343   8.251 -0.9228 -1.2857 -0.7883
  172SOPE  C31319522   4.914   6.204   8.413  0.1481 -0.3230 -0.4782
  172SOPE  H13X19523   4.899   6.298   8.470  0.0325 -0.6239 -0.0083
  172SOPE  H13Y19524   4.981   6.137   8.471  1.3933  1.5880  0.3362
  172SOPE  C31419525   4.772   6.151   8.395  0.2244 -0.6954 -0.1675
  172SOPE  H14X19526   4.796   6.051   8.353  1.5118 -1.3736  2.0639
  172SOPE  H14Y19527   4.713   6.199   8.313  2.6521  0.2556 -1.4020
  172SOPE  C31519528   4.689   6.147   8.527  0.0971 -0.3706  0.3077
  172SOPE  H15X19529   4.752   6.126   8.616  0.2189  2.0102  0.8068
  172SOPE  H15Y19530   4.612   6.067   8.521 -0.8845  0.3027  3.0956
  172SOPE  C31619531   4.619   6.280   8.566  0.2769  0.8077 -0.0929
  172SOPE  H16X19532   4.574   6.315   8.471 -1.1561 -1.6347 -0.3429
  172SOPE  H16Y19533   4.703   6.350   8.588  0.7438  0.7791 -1.7125
  172SOPE  C31719534   4.511   6.273   8.679 -0.1161  1.0155 -0.1865
  172SOPE  H17X19535   4.561   6.207   8.753 -0.3245  0.8823 -0.1639
  172SOPE  H17Y19536   4.412   6.229   8.651  0.4174  1.6183 -3.1770
  172SOPE  C31819537   4.491   6.412   8.741  0.5164  0.1193 -0.3744
  172SOPE  H18X19538   4.480   6.487   8.659 -1.1875  0.6860  0.3513
  172SOPE  H18Y19539   4.580   6.440   8.801 -0.3959  0.6616  0.7633
  172SOPE  H18Z19540   4.398   6.416   8.802  1.2210  1.4868  0.6531
  173SAPI   C1219541   6.652   4.202  10.988  0.1072  0.7911  0.2135
  173SAPI    H219542   6.721   4.289  10.978  1.2135 -0.1405 -0.3435
  173SAPI    O219543   6.618   4.197  11.125  0.6467  0.7035  0.3746
  173SAPI   HO219544   6.698   4.225  11.172 -0.4436  0.7258  2.2741
  173SAPI   C1319545   6.549   4.231  10.892  0.1438  0.5702  0.1485
  173SAPI    H319546   6.590   4.228  10.789  1.1309  2.5335  0.4706
  173SAPI    O319547   6.480   4.352  10.919  0.0491  0.1642  0.2526
  173SAPI   HO319548   6.465   4.401  10.837  1.7649  1.0135  0.4134
  173SAPI   C1419549   6.446   4.118  10.900 -0.5693  0.4698 -0.4151
  173SAPI    H419550   6.412   4.107  11.005 -0.0630 -0.8985 -0.3913
  173SAPI    O419551   6.332   4.144  10.816  0.0571 -0.1703  0.3628
  173SAPI   HO419552   6.295   4.058  10.792 -0.5246 -0.2166  1.4206
  173SAPI   C1519553   6.517   3.989  10.861  0.6045  0.0220  0.5245
  173SAPI    H519554   6.531   3.996  10.751 -3.1876  1.2326  0.0348
  173SAPI    O519555   6.428   3.876  10.862  0.0232  0.7244 -0.1731
  173SAPI   HO519556   6.480   3.802  10.829 -0.7150  0.0418  0.1871
  173SAPI   C1619557   6.644   3.961  10.936  0.0802  0.0419 -0.0149
  173SAPI    H619558   6.624   3.929  11.041 -1.5240  0.4867 -0.1734
  173SAPI    O619559   6.712   3.850  10.883 -0.3338 -0.6408  0.7204
  173SAPI   HO619560   6.782   3.881  10.825  1.3373 -2.1620  1.8928
  173SAPI   C1119561   6.736   4.081  10.937 -0.7064  0.4105 -0.3801
  173SAPI    H119562   6.758   4.111  10.833 -2.8251  0.9429 -0.6999
  173SAPI     P19563   7.003   4.075  10.947  0.1523 -0.2604  0.2330
  173SAPI   O1319564   7.110   4.046  11.043  0.4256  0.0671 -0.6752
  173SAPI   O1419565   7.009   4.209  10.887  0.0447 -0.2457 -0.2949
  173SAPI   O1219566   6.854   4.058  11.011 -0.0787  0.2224  0.4266
  173SAPI   O1119567   7.007   3.960  10.831 -0.5799 -0.7856 -0.7828
  173SAPI    C119568   7.115   3.865  10.848  0.6721  0.2177 -0.0555
  173SAPI    HA19569   7.218   3.906  10.850  0.4635  0.8941 -1.7880
  173SAPI    HB19570   7.099   3.809  10.942  1.3455 -0.7670 -0.5070
  173SAPI    C219571   7.115   3.773  10.724 -0.1944  0.0616 -0.4191
  173SAPI    HS19572   7.206   3.709  10.721 -0.2976 -0.0155 -2.2544
  173SAPI   O2119573   7.114   3.855  10.610 -0.5514  0.4923  0.6057
  173SAPI   C2119574   7.220   3.927  10.595  0.4977 -0.0440 -0.4466
  173SAPI   O2219575   7.318   3.935  10.666  0.4120 -0.3185  0.3302
  173SAPI   C2219576   7.197   4.005  10.463  0.4572 -0.1503 -0.4454
  173SAPI   H2R19577   7.087   4.017  10.449  0.4440  1.0319  0.6273
  173SAPI   H2S19578   7.235   4.109  10.472 -0.2201 -0.1698  4.0556
  173SAPI    C319579   6.992   3.677  10.719  0.5442 -0.7043  0.0089
  173SAPI    HX19580   6.901   3.738  10.735 -0.3070 -2.6464  2.8895
  173SAPI    HY19581   6.999   3.611  10.808 -0.9208  0.5053  1.0341
  173SAPI   O3119582   7.012   3.598  10.602 -0.2897 -0.6288 -0.8382
  173SAPI   C3119583   6.948   3.643  10.500 -0.1459 -0.5489  0.5379
  173SAPI   O3219584   6.877   3.743  10.495 -0.1772 -0.2263 -0.1405
  173SAPI   C3219585   6.958   3.551  10.372 -0.0325  0.2953 -0.5785
  173SAPI   H2X19586   6.907   3.457  10.400  2.0724 -0.9094 -0.6837
  173SAPI   H2Y19587   7.065   3.520  10.374  0.0571  0.4361 -2.6434
  173SAPI   C2319588   7.249   3.923  10.342 -0.2544  0.2874 -0.1558
  173SAPI   H3R19589   7.198   3.825  10.339  1.2400 -0.4684 -1.6675
  173SAPI   H3S19590   7.357   3.908  10.365 -0.1637  2.7134  1.1944
  173SAPI   C2419591   7.216   3.988  10.203  0.1650  0.2177 -0.4397
  173SAPI   H4R19592   7.107   3.999  10.184  0.3498  0.5635 -1.3505
  173SAPI   H4S19593   7.239   3.918  10.120  0.0264  1.0851 -1.2219
  173SAPI   C2519594   7.293   4.122  10.183 -0.3336  0.3445  0.2732
  173SAPI   H5R19595   7.275   4.201  10.257 -0.7508  2.0310 -1.5820
  173SAPI   C2619596   7.377   4.147  10.069  0.1208 -0.0507 -1.0107
  173SAPI   H6R19597   7.427   4.244  10.061  0.4338 -0.0789  0.4208
  173SAPI   C2719598   7.391   4.055   9.953 -0.0902 -0.1466  0.2791
  173SAPI   H7R19599   7.419   3.957   9.997 -0.8799 -0.3773  0.2626
  173SAPI   H7S19600   7.474   4.101   9.894 -1.1973 -1.7371 -2.6023
  173SAPI   C2819601   7.267   4.050   9.867 -0.4192 -0.2958 -0.7622
  173SAPI   H8R19602   7.171   4.037   9.918 -2.1092 -1.3515 -4.0821
  173SAPI   C2919603   7.262   4.065   9.730 -0.8290 -0.8413  0.5359
  173SAPI   H9R19604   7.167   4.061   9.676 -0.3316 -1.7245 -0.2900
  173SAPI  C21019605   7.386   4.065   9.648  0.4392  0.4594 -0.2289
  173SAPI  H10R19606   7.365   4.008   9.555 -0.2530 -0.1931  0.3194
  173SAPI  H10S19607   7.470   4.011   9.697  0.6456  0.6315 -0.3945
  173SAPI  C21119608   7.411   4.210   9.606  0.0492 -0.0054 -0.3622
  173SAPI  H11R19609   7.329   4.244   9.541  1.5973  1.1872 -1.7153
  173SAPI  C21219610   7.520   4.287   9.635 -0.4559 -0.5816  0.0504
  173SAPI  H12R19611   7.518   4.389   9.594 -3.9900  0.1992  1.9342
  173SAPI  C21319612   7.638   4.255   9.722  0.0707 -0.7058  0.2266
  173SAPI  H13R19613   7.729   4.282   9.665 -0.7185  0.2862 -0.5702
  173SAPI  H13S19614   7.634   4.146   9.746  2.7472 -0.8038  0.3893
  173SAPI  C21419615   7.634   4.334   9.849  0.0809  0.1574 -0.3448
  173SAPI  H14R19616   7.550   4.404   9.860 -1.8275 -2.2662  0.8902
  173SAPI  C21519617   7.734   4.326   9.943 -0.1772  0.6821 -0.1687
  173SAPI  H15R19618   7.734   4.395  10.029  1.5710  0.3755  0.0885
  173SAPI  C21619619   7.854   4.236   9.921  0.5381 -0.4295 -0.1326
  173SAPI  H16R19620   7.929   4.290   9.860 -2.9363  0.3455 -3.9444
  173SAPI  H16S19621   7.830   4.156   9.848  1.1547  1.4125 -2.3853
  173SAPI  C21719622   7.926   4.182  10.049  0.2406  0.8275  0.4455
  173SAPI  H17R19623   7.858   4.123  10.115  1.4285  1.1914  2.0234
  173SAPI  H17S19624   7.955   4.266  10.116 -0.5532  1.5010 -0.0552
  173SAPI  C21819625   8.054   4.089  10.038  0.3807 -0.0229  0.1577
  173SAPI  H18R19626   8.104   4.099   9.940  0.6523 -1.2366  0.1668
  173SAPI  H18S19627   8.019   3.984  10.031 -0.3760  0.2416 -0.0093
  173SAPI  C21919628   8.146   4.080  10.159  0.0697 -0.1230 -0.4699
  173SAPI  H19R19629   8.230   4.016  10.124  1.0631 -0.3869  2.2605
  173SAPI  H19S19630   8.100   4.024  10.242  0.9809 -0.5186 -0.2261
  173SAPI  C22019631   8.203   4.206  10.229 -0.3662  0.2142  0.0684
  173SAPI  H20R19632   8.129   4.276  10.272  0.3278 -0.6349  2.7750
  173SAPI  H20S19633   8.262   4.263  10.155  0.0438  1.4383  1.3196
  173SAPI  H20T19634   8.269   4.158  10.305  0.9112 -1.4618 -2.0486
  173SAPI   C3319635   6.917   3.601  10.233  0.3076  0.2187 -0.8665
  173SAPI   H3X19636   6.813   3.636  10.220  0.4003  1.1590  0.8201
  173SAPI   H3Y19637   6.917   3.511  10.168  1.2695  0.2533 -0.9231
  173SAPI   C3419638   7.014   3.700  10.167  0.5162 -0.3296 -0.6057
  173SAPI   H4X19639   7.113   3.686  10.216  1.0652  1.3502 -1.1813
  173SAPI   H4Y19640   6.984   3.803  10.197 -1.7264 -0.5046 -2.1819
  173SAPI   C3519641   7.020   3.686  10.016 -0.1597 -0.6374 -0.9352
  173SAPI   H5X19642   7.037   3.576  10.007 -2.5591 -1.0509 -0.5468
  173SAPI   H5Y19643   7.102   3.744   9.969 -0.6716  1.8103  1.0720
  173SAPI   C3619644   6.902   3.722   9.941  0.6779 -0.7295  0.0828
  173SAPI   H6X19645   6.878   3.830   9.945  1.8158 -0.4518 -0.2536
  173SAPI   H6Y19646   6.819   3.666   9.990  1.1373 -2.2789 -0.8678
  173SAPI   C3719647   6.920   3.682   9.796 -0.6176  0.4283 -0.0510
  173SAPI   H7X19648   6.820   3.703   9.751 -0.8306  2.4497  1.3444
  173SAPI   H7Y19649   6.936   3.572   9.798 -2.0872  0.2271  0.7858
  173SAPI   C3819650   7.034   3.751   9.723  0.2522 -0.1466  0.5481
  173SAPI   H8X19651   7.130   3.739   9.778  0.1486 -1.6832  0.4188
  173SAPI   H8Y19652   7.018   3.860   9.711  1.5254 -0.0101 -0.0306
  173SAPI   C3919653   7.044   3.691   9.579 -0.1744  0.5876 -0.8242
  173SAPI   H9X19654   6.947   3.679   9.525  0.6882 -1.2642 -2.0182
  173SAPI   H9Y19655   7.085   3.588   9.593  0.1996  0.7134 -0.9971
  173SAPI  C31019656   7.131   3.779   9.480 -0.0103  0.0748  0.5738
  173SAPI  H10X19657   7.230   3.791   9.529 -0.5978 -0.0921  1.8218
  173SAPI  H10Y19658   7.078   3.877   9.473 -0.5559 -0.3454 -1.3393
  173SAPI  C31119659   7.144   3.743   9.336 -0.2476 -0.2690 -0.6101
  173SAPI  H11X19660   7.049   3.762   9.280 -0.1563 -1.3412 -1.1499
  173SAPI  H11Y19661   7.144   3.636   9.307  0.0405 -0.2386 -0.7251
  173SAPI  C31219662   7.259   3.818   9.263  0.0980  0.5524 -0.4187
  173SAPI  H12X19663   7.340   3.827   9.339 -0.4216  0.3238  0.1753
  173SAPI  H12Y19664   7.219   3.917   9.234  3.4907  1.2283 -3.1212
  173SAPI  C31319665   7.309   3.744   9.138 -0.2225 -0.1197  0.1547
  173SAPI  H13X19666   7.218   3.723   9.078 -0.4755  0.7647  0.2163
  173SAPI  H13Y19667   7.340   3.641   9.163  0.1237  0.0618  0.4710
  173SAPI  C31419668   7.408   3.817   9.055  0.4373  0.3273 -0.6677
  173SAPI  H14X19669   7.503   3.826   9.111  0.0485 -1.9559  0.4266
  173SAPI  H14Y19670   7.371   3.921   9.040 -1.2851 -0.0588  0.8261
  173SAPI  C31519671   7.420   3.749   8.923 -0.6685 -0.8182  0.6010
  173SAPI  H15X19672   7.328   3.714   8.870  0.2895 -0.9315 -1.0104
  173SAPI  H15Y19673   7.471   3.655   8.951 -0.7956 -1.0874 -0.0642
  173SAPI  C31619674   7.505   3.820   8.824  0.1873 -0.2241 -0.0680
  173SAPI  H16X19675   7.537   3.749   8.744  0.3925  1.0467 -1.1389
  173SAPI  H16Y19676   7.592   3.862   8.879 -0.6254  1.1604  0.1960
  173SAPI  C31719677   7.413   3.931   8.756  0.8114  0.2754  0.1640
  173SAPI  H17X19678   7.409   4.013   8.830  0.6586 -0.6095  1.1497
  173SAPI  H17Y19679   7.315   3.882   8.738  0.7723  0.6833 -0.7339
  173SAPI  C31819680   7.477   3.985   8.632  0.4509  0.0226 -0.3429
  173SAPI  H18X19681   7.582   4.014   8.652  0.2543  0.2077  0.4127
  173SAPI  H18Y19682   7.433   4.079   8.593  0.4038  0.5851  1.0464
  173SAPI  H18Z19683   7.481   3.908   8.552 -1.6532  0.0750 -0.5292
  174SAPI   C1219684   3.666   3.883  10.957 -0.1673 -0.0338 -0.5216
  174SAPI    H219685   3.741   3.887  11.039 -1.3241  1.6662  0.4876
  174SAPI    O219686   3.704   3.780  10.868 -0.1496  0.3323  0.8369
  174SAPI   HO219687   3.799   3.767  10.864 -0.1262  0.4823  0.9148
  174SAPI   C1319688   3.526   3.861  11.016 -0.5291  0.7009  0.4113
  174SAPI    H319689   3.521   3.952  11.079  0.7156  1.3678 -0.4199
  174SAPI    O319690   3.513   3.749  11.109  0.0948  0.9647 -0.2876
  174SAPI   HO319691   3.512   3.665  11.061 -0.4776  0.4247  0.6513
  174SAPI   C1419692   3.425   3.863  10.903 -0.0961  0.4399  0.4991
  174SAPI    H419693   3.456   3.779  10.837 -2.7054  0.9376 -1.3879
  174SAPI    O419694   3.291   3.835  10.950  0.1305 -0.1969  0.0479
  174SAPI   HO419695   3.284   3.741  10.972 -0.5712 -0.1758 -0.0778
  174SAPI   C1519696   3.423   3.992  10.825  0.3345 -0.2888  0.1764
  174SAPI    H519697   3.381   4.075  10.887 -1.7682  1.5216 -3.4725
  174SAPI    O519698   3.331   3.975  10.715  0.3864 -0.0492 -0.8922
  174SAPI   HO519699   3.266   3.927  10.767  1.4091  0.1242  0.5576
  174SAPI   C1619700   3.560   4.019  10.769 -0.3391 -0.2815 -0.5059
  174SAPI    H619701   3.586   3.936  10.700  1.1775  0.2209 -0.5495
  174SAPI    O619702   3.574   4.143  10.698 -0.2892  0.3122 -0.2150
  174SAPI   HO619703   3.669   4.161  10.695  0.0947 -1.6601 -0.8704
  174SAPI   C1119704   3.671   4.021  10.888 -0.2500 -0.5288  0.1476
  174SAPI    H119705   3.635   4.096  10.962  0.0739  0.6484 -0.8669
  174SAPI     P19706   3.907   4.159  10.878  0.5505 -0.2823 -0.2927
  174SAPI   O1319707   4.049   4.124  10.838 -0.9251 -0.5727  0.2019
  174SAPI   O1419708   3.892   4.194  11.022 -0.4438  0.9825  0.0667
  174SAPI   O1219709   3.808   4.033  10.838  0.6743  0.2484  1.0124
  174SAPI   O1119710   3.842   4.275  10.790 -0.3881  0.4193 -0.1368
  174SAPI    C119711   3.906   4.333  10.678 -0.7105 -0.5216 -0.4611
  174SAPI    HA19712   3.931   4.439  10.704  2.2518 -1.9962  3.2846
  174SAPI    HB19713   4.004   4.285  10.660 -1.9853 -4.3533  2.3446
  174SAPI    C219714   3.833   4.321  10.544 -0.5182 -0.1992 -0.6101
  174SAPI    HS19715   3.727   4.350  10.563 -1.1733 -0.6548 -3.4309
  174SAPI   O2119716   3.838   4.183  10.504 -1.0005 -0.2562  0.2075
  174SAPI   C2119717   3.736   4.134  10.443  0.2913 -0.6804  0.3134
  174SAPI   O2219718   3.625   4.184  10.417 -0.7442 -0.1166 -0.5654
  174SAPI   C2219719   3.771   3.992  10.398 -0.1854  0.1471  0.6401
  174SAPI   H2R19720   3.832   3.952  10.481  3.1058  2.4245 -0.5911
  174SAPI   H2S19721   3.678   3.931  10.392 -0.8381  1.1862  0.0555
  174SAPI    C319722   3.887   4.417  10.433 -0.2206 -0.0910  0.2335
  174SAPI    HX19723   3.990   4.383  10.409 -0.5921 -0.2270 -1.2053
  174SAPI    HY19724   3.902   4.523  10.463  2.4529 -0.0312 -1.1292
  174SAPI   O3119725   3.805   4.409  10.306 -0.0409 -0.2989 -0.0132
  174SAPI   C3119726   3.827   4.506  10.220 -0.4538  0.3023 -0.1397
  174SAPI   O3219727   3.919   4.587  10.219  0.0851 -1.0747  0.0815
  174SAPI   C3219728   3.723   4.479  10.109 -0.0344  0.1580 -0.5576
  174SAPI   H2X19729   3.628   4.451  10.159 -0.2608 -1.1338 -1.6600
  174SAPI   H2Y19730   3.766   4.394  10.051  1.0221 -0.3848  0.9830
  174SAPI   C2319731   3.843   3.992  10.263 -0.6344 -0.1418  0.2252
  174SAPI   H3R19732   3.920   4.072  10.261  1.6429 -2.2636 -1.5383
  174SAPI   H3S19733   3.762   4.021  10.193 -1.5195  2.3001  2.2005
  174SAPI   C2419734   3.901   3.850  10.223 -0.7082  0.4422  0.4992
  174SAPI   H4R19735   3.963   3.819  10.310 -2.3445 -0.3559  1.3960
  174SAPI   H4S19736   3.964   3.862  10.132 -0.3134 -0.8667  0.5991
  174SAPI   C2519737   3.801   3.748  10.203 -0.8569  0.0002 -0.5814
  174SAPI   H5R19738   3.761   3.699  10.293 -0.7825  2.0733  0.5911
  174SAPI   C2619739   3.756   3.692  10.083 -0.6075  0.8281 -0.0362
  174SAPI   H6R19740   3.675   3.618  10.086 -0.0623  0.2455  0.3276
  174SAPI   C2719741   3.811   3.731   9.945  0.5292  0.3113 -1.2107
  174SAPI   H7R19742   3.918   3.760   9.953 -0.1365  3.1997 -2.3639
  174SAPI   H7S19743   3.760   3.825   9.914  0.8996  0.1076 -2.4606
  174SAPI   C2819744   3.799   3.621   9.840  0.7163 -0.5706  0.2821
  174SAPI   H8R19745   3.805   3.520   9.883  2.9892 -0.3142  0.6012
  174SAPI   C2919746   3.778   3.647   9.713  0.2207  0.5788  0.0860
  174SAPI   H9R19747   3.765   3.560   9.647  1.9947 -0.0916  0.5885
  174SAPI  C21019748   3.769   3.787   9.655 -0.3992  0.0710  0.0818
  174SAPI  H10R19749   3.860   3.850   9.667 -0.5031 -0.0537  1.5900
  174SAPI  H10S19750   3.687   3.845   9.703 -0.8827  0.1362 -0.8160
  174SAPI  C21119751   3.720   3.770   9.512 -0.3932  0.2821 -0.2375
  174SAPI  H11R19752   3.625   3.717   9.498  0.6121 -1.7373  0.3804
  174SAPI  C21219753   3.772   3.822   9.399 -0.7974 -0.1294  0.6863
  174SAPI  H12R19754   3.722   3.787   9.307  0.8049  1.2060 -0.7152
  174SAPI  C21319755   3.900   3.902   9.395 -0.3095  0.1758  0.2904
  174SAPI  H13R19756   3.928   3.954   9.489 -0.1858  1.8723 -0.6597
  174SAPI  H13S19757   3.890   3.987   9.324 -2.0736  1.7166  2.2988
  174SAPI  C21419758   4.016   3.817   9.350 -0.4243  0.6281 -0.9667
  174SAPI  H14R19759   4.020   3.728   9.415 -0.8280  0.3002 -1.3921
  174SAPI  C21519760   4.111   3.828   9.253  0.4056  0.2241 -0.1745
  174SAPI  H15R19761   4.181   3.743   9.245  0.5707  0.2537  0.8557
  174SAPI  C21619762   4.125   3.939   9.156 -0.2444  0.3708 -0.8112
  174SAPI  H16R19763   4.223   3.988   9.172  0.4349 -0.9725 -0.8346
  174SAPI  H16S19764   4.043   4.014   9.159  0.6767  1.3520  0.0368
  174SAPI  C21719765   4.138   3.883   9.011 -0.6758  0.0105  0.2760
  174SAPI  H17R19766   4.224   3.813   9.023 -1.0364 -0.4174  0.4006
  174SAPI  H17S19767   4.175   3.967   8.950  0.5353 -1.4196 -1.0113
  174SAPI  C21819768   4.017   3.819   8.940  0.3499  0.3995 -0.1925
  174SAPI  H18R19769   3.984   3.735   9.005 -2.2986 -1.1155 -3.3692
  174SAPI  H18S19770   4.039   3.766   8.845 -1.2656  0.4017 -0.5789
  174SAPI  C21919771   3.911   3.926   8.911  0.5818  0.6914 -0.0848
  174SAPI  H19R19772   3.873   3.965   9.008 -1.8707 -1.7160 -0.0303
  174SAPI  H19S19773   3.825   3.876   8.862 -1.5220  2.9838  1.1490
  174SAPI  C22019774   3.941   4.040   8.816  0.0318 -0.4941  0.3410
  174SAPI  H20R19775   3.975   3.999   8.718 -0.9111 -0.1840 -0.1230
  174SAPI  H20S19776   4.031   4.090   8.857 -0.2231 -0.0022  0.3003
  174SAPI  H20T19777   3.854   4.109   8.807 -1.1750 -1.9224  0.7622
  174SAPI   C3319778   3.703   4.612  10.026 -1.0641 -0.1362  1.0469
  174SAPI   H3X19779   3.719   4.708  10.080 -0.8102 -0.0302  0.7818
  174SAPI   H3Y19780   3.602   4.614   9.980  1.7442 -0.7947 -5.7254
  174SAPI   C3419781   3.790   4.598   9.897 -0.2274 -0.4058 -0.0227
  174SAPI   H4X19782   3.793   4.491   9.865 -0.0584 -0.0839 -1.1127
  174SAPI   H4Y19783   3.893   4.635   9.912 -0.8795  1.1769  0.6417
  174SAPI   C3519784   3.729   4.680   9.776  0.3605 -0.3357 -0.4262
  174SAPI   H5X19785   3.745   4.786   9.805 -1.5985 -0.6291  1.8282
  174SAPI   H5Y19786   3.621   4.659   9.760 -0.0566  0.4611  1.2671
  174SAPI   C3619787   3.803   4.640   9.645  0.1153 -0.4595  0.0703
  174SAPI   H6X19788   3.783   4.531   9.634  1.6913 -0.7248 -0.2646
  174SAPI   H6Y19789   3.912   4.661   9.656  0.0103 -0.6163  1.4282
  174SAPI   C3719790   3.760   4.709   9.514  0.3858 -0.2543  0.6977
  174SAPI   H7X19791   3.779   4.819   9.519 -2.7845  0.3998 -0.4441
  174SAPI   H7Y19792   3.650   4.699   9.502  0.4819  1.5021 -2.1261
  174SAPI   C3819793   3.821   4.646   9.389 -0.6348 -0.2207  0.6455
  174SAPI   H8X19794   3.798   4.538   9.375 -1.5001  0.1272 -0.7621
  174SAPI   H8Y19795   3.931   4.663   9.397 -0.9448  3.1294 -1.2146
  174SAPI   C3919796   3.782   4.719   9.252 -0.0956  0.9679  0.5942
  174SAPI   H9X19797   3.865   4.694   9.184  0.6286 -0.4347  1.9469
  174SAPI   H9Y19798   3.810   4.826   9.267  0.8328  1.1431 -2.2160
  174SAPI  C31019799   3.636   4.692   9.205 -0.2547  0.1115  0.8853
  174SAPI  H10X19800   3.566   4.717   9.287  0.3101 -2.1919  2.1265
  174SAPI  H10Y19801   3.612   4.585   9.186 -1.0278  0.6428 -1.3946
  174SAPI  C31119802   3.587   4.765   9.077  0.3449 -0.3768  0.4062
  174SAPI  H11X19803   3.500   4.701   9.053  1.4473 -1.3899 -1.0234
  174SAPI  H11Y19804   3.664   4.765   8.997 -1.1250  0.0185 -1.0332
  174SAPI  C31219805   3.546   4.911   9.104  0.1444  0.2646 -0.2796
  174SAPI  H12X19806   3.633   4.969   9.141 -0.0102  1.2364 -1.4294
  174SAPI  H12Y19807   3.481   4.920   9.194 -0.0003  0.2947 -0.3857
  174SAPI  C31319808   3.477   4.972   8.988 -0.0222  0.1385 -0.1073
  174SAPI  H13X19809   3.420   5.064   9.013  1.2777  1.4030 -1.6893
  174SAPI  H13Y19810   3.402   4.902   8.946  0.2864 -2.8054  3.9833
  174SAPI  C31419811   3.578   5.020   8.879  0.2851  0.4490  0.1427
  174SAPI  H14X19812   3.647   4.935   8.866  2.3911  2.5049 -2.6621
  174SAPI  H14Y19813   3.634   5.106   8.922  1.2952  0.5157 -1.2824
  174SAPI  C31519814   3.508   5.050   8.746 -0.1750 -0.1290 -0.3932
  174SAPI  H15X19815   3.438   4.971   8.712 -1.1408  0.0412  1.1164
  174SAPI  H15Y19816   3.590   5.056   8.672 -2.4026  0.2496 -2.8827
  174SAPI  C31619817   3.430   5.182   8.741 -0.3912 -0.3368 -0.3339
  174SAPI  H16X19818   3.486   5.270   8.777  1.6210 -0.9924 -1.7256
  174SAPI  H16Y19819   3.340   5.168   8.804  0.5787 -1.7398  0.7840
  174SAPI  C31719820   3.379   5.218   8.603 -0.6845  0.5068  0.4589
  174SAPI  H17X19821   3.315   5.139   8.558 -0.1703 -1.5231  3.1438
  174SAPI  H17Y19822   3.471   5.228   8.541 -0.6168 -0.1513  0.4498
  174SAPI  C31819823   3.283   5.342   8.593 -0.2613  0.8352 -0.6467
  174SAPI  H18X19824   3.265   5.369   8.486  0.9364 -0.3857 -1.1607
  174SAPI  H18Y19825   3.321   5.428   8.653  2.4817 -0.8230  0.0655
  174SAPI  H18Z19826   3.187   5.319   8.642 -0.3012  2.7061  0.2275
  175SAPI   C1219827   6.238   2.998   6.694  0.0115  0.2155  1.0951
  175SAPI    H219828   6.213   2.922   6.770 -1.4301 -0.9537 -0.4970
  175SAPI    O219829   6.171   3.117   6.732 -0.1190  0.4895 -0.5637
  175SAPI   HO219830   6.079   3.094   6.744 -0.0773  0.6437  0.0945
  175SAPI   C1319831   6.388   3.020   6.718  0.0036 -0.5101  0.4453
  175SAPI    H319832   6.434   2.922   6.698  0.0543 -0.5064  0.5401
  175SAPI    O319833   6.412   3.058   6.855  0.4656  0.1241  0.3952
  175SAPI   HO319834   6.361   3.139   6.857  2.2415  1.2488  0.8177
  175SAPI   C1419835   6.445   3.122   6.621  0.2508  0.2211 -0.1167
  175SAPI    H419836   6.389   3.215   6.643 -0.1494  0.1411 -0.7885
  175SAPI    O419837   6.577   3.148   6.661  0.2361  0.0881 -0.4431
  175SAPI   HO419838   6.579   3.234   6.704 -2.2922 -0.8655  1.6641
  175SAPI   C1519839   6.427   3.076   6.477  0.9392 -0.0163  0.0151
  175SAPI    H519840   6.486   2.983   6.466  2.1869  0.5714  1.5810
  175SAPI    O519841   6.476   3.171   6.386 -0.3935  0.3735  0.1542
  175SAPI   HO519842   6.563   3.140   6.361 -0.0720  0.9272  0.5868
  175SAPI   C1619843   6.281   3.053   6.451  0.1389 -0.1795  0.4055
  175SAPI    H619844   6.228   3.150   6.462 -0.7432 -0.6216  0.1095
  175SAPI    O619845   6.258   3.001   6.324  0.5283 -0.4369  0.0509
  175SAPI   HO619846   6.291   2.912   6.335  0.4411 -1.0104 -3.5750
  175SAPI   C1119847   6.215   2.949   6.553 -0.8979 -0.2440  0.0830
  175SAPI    H119848   6.277   2.859   6.534  0.4541  0.4045  1.2738
  175SAPI     P19849   6.008   2.795   6.486 -0.3705  0.3175  0.5567
  175SAPI   O1319850   6.105   2.711   6.412 -0.2589  0.9097  0.0780
  175SAPI   O1419851   5.886   2.829   6.412  0.0587 -0.0733 -0.3243
  175SAPI   O1219852   6.078   2.937   6.538 -0.0876  0.4046  0.0953
  175SAPI   O1119853   5.960   2.727   6.622 -0.2629 -0.3826 -0.0244
  175SAPI    C119854   5.907   2.595   6.613 -0.7472  0.7165 -0.7079
  175SAPI    HA19855   5.807   2.598   6.565 -0.9611  0.8046 -0.2565
  175SAPI    HB19856   5.963   2.526   6.546  3.2628 -0.2846  3.4283
  175SAPI    C219857   5.892   2.532   6.752 -0.2994 -0.1265 -0.1977
  175SAPI    HS19858   5.824   2.446   6.734 -2.3653  1.8238 -2.1196
  175SAPI   O2119859   5.840   2.618   6.845  0.4337  0.2379  0.6959
  175SAPI   C2119860   5.777   2.564   6.946  0.8069 -0.4806  0.2175
  175SAPI   O2219861   5.746   2.449   6.958 -0.1425  0.3692 -0.0667
  175SAPI   C2219862   5.742   2.668   7.042  0.1196 -0.1739 -0.6734
  175SAPI   H2R19863   5.826   2.739   7.061  1.0072 -0.7052 -2.4771
  175SAPI   H2S19864   5.651   2.716   7.000  0.4760 -0.9020 -2.3625
  175SAPI    C319865   6.037   2.477   6.797 -0.1430  0.1975 -0.1734
  175SAPI    HX19866   6.096   2.571   6.808 -1.4103  1.0677 -0.6377
  175SAPI    HY19867   6.083   2.416   6.717 -2.0515 -0.4334 -0.8183
  175SAPI   O3119868   6.044   2.423   6.931 -0.7843  0.6359  0.1199
  175SAPI   C3119869   6.016   2.292   6.942 -0.2583 -0.2929 -0.1807
  175SAPI   O3219870   5.990   2.218   6.854  0.7547  0.8789  0.2870
  175SAPI   C3219871   6.041   2.249   7.088 -0.0362  0.2477 -0.2853
  175SAPI   H2X19872   6.053   2.139   7.103  1.3381 -0.0393 -3.0070
  175SAPI   H2Y19873   5.942   2.262   7.137 -0.0709  0.1715 -0.3352
  175SAPI   C2319874   5.694   2.607   7.188  0.2191  0.1538  0.2512
  175SAPI   H3R19875   5.622   2.524   7.168 -1.2991  1.3108  0.8373
  175SAPI   H3S19876   5.640   2.687   7.242  2.5810  0.1670  2.7208
  175SAPI   C2419877   5.809   2.563   7.274  0.8315 -0.2290 -0.4211
  175SAPI   H4R19878   5.878   2.648   7.287 -1.9261  2.1514 -0.8203
  175SAPI   H4S19879   5.873   2.488   7.221  1.3529 -0.0565 -0.0370
  175SAPI   C2519880   5.754   2.501   7.396  0.0844 -0.7754 -0.7712
  175SAPI   H5R19881   5.709   2.401   7.390 -2.0614 -0.1136  2.8377
  175SAPI   C2619882   5.767   2.551   7.518  0.2405 -0.7679 -0.3106
  175SAPI   H6R19883   5.726   2.484   7.595  3.3343 -0.6105  1.5823
  175SAPI   C2719884   5.847   2.673   7.562 -0.7773  0.4476 -0.7813
  175SAPI   H7R19885   5.871   2.737   7.475 -0.2194 -2.0184 -2.4930
  175SAPI   H7S19886   5.941   2.636   7.608 -0.6077  0.3612 -1.1986
  175SAPI   C2819887   5.765   2.749   7.663  0.1045 -0.0687 -0.3101
  175SAPI   H8R19888   5.671   2.796   7.630  0.7583  0.5286 -1.3550
  175SAPI   C2919889   5.796   2.763   7.795 -0.2150 -0.9554  0.4529
  175SAPI   H9R19890   5.726   2.816   7.862  1.3596  1.6346  0.1200
  175SAPI  C21019891   5.922   2.719   7.869  0.3493  0.6262  0.1031
  175SAPI  H10R19892   5.921   2.772   7.966 -0.9727 -1.2014  1.1177
  175SAPI  H10S19893   6.014   2.755   7.818  0.0835  0.3015 -0.6102
  175SAPI  C21119894   5.929   2.570   7.882 -0.1915 -0.4216  0.2526
  175SAPI  H11R19895   5.925   2.518   7.785 -0.8995  0.0376  0.0352
  175SAPI  C21219896   5.939   2.496   7.989 -0.0163 -0.0586 -0.2048
  175SAPI  H12R19897   5.947   2.388   7.971 -2.0855 -0.5574  1.6084
  175SAPI  C21319898   5.955   2.532   8.131 -0.3842 -0.0319 -0.4928
  175SAPI  H13R19899   5.859   2.514   8.183  0.7650 -0.8076  1.4425
  175SAPI  H13S19900   5.971   2.642   8.144  1.6732 -0.0593 -2.4413
  175SAPI  C21419901   6.076   2.461   8.199  0.6901 -0.2119 -0.6779
  175SAPI  H14R19902   6.064   2.352   8.198  0.2705 -0.1677 -0.6877
  175SAPI  C21519903   6.185   2.513   8.263  0.1745  0.8896 -0.2429
  175SAPI  H15R19904   6.256   2.440   8.303 -1.3554 -1.8752 -2.4022
  175SAPI  C21619905   6.221   2.653   8.288 -0.3912  0.3103  0.0689
  175SAPI  H16R19906   6.206   2.716   8.198 -0.9086  1.0941  0.6866
  175SAPI  H16S19907   6.328   2.653   8.320 -0.7987 -1.1250  1.4748
  175SAPI  C21719908   6.144   2.720   8.398  0.1228 -0.1565 -0.4437
  175SAPI  H17R19909   6.102   2.652   8.476 -0.9955 -0.3747 -1.2146
  175SAPI  H17S19910   6.050   2.750   8.348  0.4428  0.9255 -0.3948
  175SAPI  C21819911   6.228   2.827   8.470 -0.1619  0.1188  0.7788
  175SAPI  H18R19912   6.281   2.887   8.393  0.9554 -1.2899  0.4430
  175SAPI  H18S19913   6.311   2.781   8.526 -0.3041  0.1962  1.0557
  175SAPI  C21919914   6.134   2.912   8.558 -0.2781 -0.5132  0.0122
  175SAPI  H19R19915   6.095   2.846   8.639  0.2440  1.7502  2.1651
  175SAPI  H19S19916   6.049   2.938   8.492  0.5517 -0.1878 -0.9580
  175SAPI  C22019917   6.180   3.049   8.614  0.1427  0.1799 -0.0718
  175SAPI  H20R19918   6.256   3.098   8.550 -0.6794  3.7589  1.5713
  175SAPI  H20S19919   6.229   3.034   8.713  0.2017  1.0214  0.0345
  175SAPI  H20T19920   6.093   3.116   8.628  0.0466 -0.1665  1.0541
  175SAPI   C3319921   6.160   2.328   7.152 -0.2267  0.1909  0.8857
  175SAPI   H3X19922   6.138   2.436   7.135  0.5893  0.4422  1.4048
  175SAPI   H3Y19923   6.249   2.299   7.092 -0.5749  3.0727 -1.1534
  175SAPI   C3419924   6.186   2.289   7.298  0.5430  0.5633 -0.0865
  175SAPI   H4X19925   6.285   2.335   7.321 -0.8322  2.8911  1.3687
  175SAPI   H4Y19926   6.196   2.180   7.282  1.7749  0.0985  3.5077
  175SAPI   C3519927   6.074   2.306   7.399  0.4399 -0.3495 -0.1265
  175SAPI   H5X19928   5.980   2.289   7.343  1.4821 -2.8774 -1.1852
  175SAPI   H5Y19929   6.079   2.412   7.431  1.6611 -0.0253 -1.3171
  175SAPI   C3619930   6.089   2.216   7.515  0.3004 -0.0790 -0.2663
  175SAPI   H6X19931   6.177   2.232   7.581 -0.1651 -1.2393  0.6608
  175SAPI   H6Y19932   6.086   2.109   7.485  0.9233  0.2704 -1.6018
  175SAPI   C3719933   5.970   2.239   7.608 -0.0235  0.1793  0.4927
  175SAPI   H7X19934   5.879   2.209   7.552  1.2154  0.4312 -1.7506
  175SAPI   H7Y19935   5.965   2.348   7.629 -4.8581  0.2436 -0.6092
  175SAPI   C3819936   5.970   2.157   7.736 -0.3410 -0.4898 -0.0634
  175SAPI   H8X19937   5.971   2.047   7.723  0.2695 -0.4311 -0.5503
  175SAPI   H8Y19938   5.878   2.175   7.797 -0.2960 -1.3713  0.2691
  175SAPI   C3919939   6.085   2.179   7.850  0.3530  0.2021 -0.0566
  175SAPI   H9X19940   6.104   2.283   7.883  1.1066  0.5305 -1.4971
  175SAPI   H9Y19941   6.181   2.153   7.801 -0.5896  1.5008 -2.6707
  175SAPI  C31019942   6.048   2.097   7.972 -1.0800  0.5003  0.0410
  175SAPI  H10X19943   6.033   1.995   7.930 -2.8163  1.9671 -3.0254
  175SAPI  H10Y19944   5.955   2.142   8.012 -1.2368 -0.0797  0.3375
  175SAPI  C31119945   6.156   2.106   8.081 -0.6992  0.7973 -0.2509
  175SAPI  H11X19946   6.177   2.212   8.107 -1.3684  0.9526 -0.3194
  175SAPI  H11Y19947   6.249   2.063   8.039 -0.1011  2.5902 -0.8260
  175SAPI  C31219948   6.120   2.019   8.206 -0.4005  0.1859 -0.2409
  175SAPI  H12X19949   6.100   1.920   8.160  0.1925 -1.0522  2.0717
  175SAPI  H12Y19950   6.019   2.048   8.243  0.1253 -1.1116  2.3501
  175SAPI  C31319951   6.219   2.013   8.323 -0.1104  0.0730 -0.2511
  175SAPI  H13X19952   6.313   1.963   8.289 -0.5636 -1.3292  0.5334
  175SAPI  H13Y19953   6.174   1.957   8.407 -0.0749 -1.1222 -1.0179
  175SAPI  C31419954   6.247   2.151   8.378  0.6609 -0.4431  0.0010
  175SAPI  H14X19955   6.153   2.202   8.408  1.3064  0.7015  0.0781
  175SAPI  H14Y19956   6.292   2.217   8.301 -3.0786  0.7741 -1.2807
  175SAPI  C31519957   6.346   2.129   8.496  0.2571  0.6886  0.4300
  175SAPI  H15X19958   6.428   2.059   8.471  0.4234  0.2569  2.0683
  175SAPI  H15Y19959   6.289   2.083   8.580  0.9843 -0.0061  0.5458
  175SAPI  C31619960   6.402   2.271   8.536  0.9341 -0.0414  0.5405
  175SAPI  H16X19961   6.427   2.323   8.441 -0.5607 -1.1665 -0.5025
  175SAPI  H16Y19962   6.494   2.253   8.595  0.6216  0.4619  1.1910
  175SAPI  C31719963   6.292   2.350   8.608 -0.0769  0.5904 -0.1837
  175SAPI  H17X19964   6.269   2.302   8.706  0.7098  0.7810  0.1031
  175SAPI  H17Y19965   6.199   2.358   8.549 -1.2710  1.3812  1.7443
  175SAPI  C31819966   6.348   2.490   8.649 -0.2749 -0.1415  0.5443
  175SAPI  H18X19967   6.440   2.479   8.710 -0.2358  0.7432  0.6508
  175SAPI  H18Y19968   6.267   2.545   8.703  0.8705  0.6512  1.4926
  175SAPI  H18Z19969   6.372   2.534   8.550  0.9502 -1.0158  0.4393
  176SAPI   C1219970   5.054   1.222   6.505  0.1486 -0.0713  0.4963
  176SAPI    H219971   5.106   1.222   6.604 -0.0014 -1.6937  0.5784
  176SAPI    O219972   4.995   1.093   6.484  0.1143  0.2036  0.4980
  176SAPI   HO219973   5.055   1.019   6.499 -0.3735  0.0563  1.7745
  176SAPI   C1319974   4.947   1.335   6.521  0.0503 -0.2497 -0.0839
  176SAPI    H319975   4.999   1.430   6.546 -0.5403  0.3882 -1.2228
  176SAPI    O319976   4.865   1.306   6.631  0.1785 -0.3480  0.0315
  176SAPI   HO319977   4.825   1.219   6.623 -0.6967  0.1219 -0.8387
  176SAPI   C1419978   4.870   1.354   6.396 -0.4624  0.3686  0.3187
  176SAPI    H419979   4.811   1.262   6.378 -2.0897  1.1991  1.2486
  176SAPI    O419980   4.767   1.458   6.417 -0.1984 -0.0324 -0.4249
  176SAPI   HO419981   4.694   1.442   6.357 -1.4508  0.6084  0.9102
  176SAPI   C1519982   4.970   1.375   6.276 -0.2088 -0.0299 -1.1862
  176SAPI    H519983   5.019   1.472   6.297 -0.7998 -0.2102  1.2123
  176SAPI    O519984   4.897   1.389   6.152 -0.7180  0.4162  0.4271
  176SAPI   HO519985   4.951   1.433   6.086  0.6178  1.5089  2.1938
  176SAPI   C1619986   5.080   1.277   6.265 -0.0300  0.3582  0.1080
  176SAPI    H619987   5.025   1.183   6.243 -0.8866  0.6271  1.0719
  176SAPI    O619988   5.171   1.300   6.157 -0.1573 -0.2267 -0.4729
  176SAPI   HO619989   5.255   1.259   6.180  0.0196 -0.2016 -1.0632
  176SAPI   C1119990   5.157   1.258   6.401 -0.3703 -0.2553 -0.2061
  176SAPI    H119991   5.203   1.355   6.432 -1.5452 -0.0391  0.8799
  176SAPI     P19992   5.390   1.137   6.488 -0.2192 -0.0360  0.1306
  176SAPI   O1319993   5.477   1.256   6.473 -0.5329 -0.4953 -0.2693
  176SAPI   O1419994   5.444   1.004   6.453 -0.5571 -0.4860  0.6689
  176SAPI   O1219995   5.261   1.157   6.399 -0.0808 -0.1405  0.1373
  176SAPI   O1119996   5.340   1.141   6.637  0.4205 -0.3317 -0.0766
  176SAPI    C119997   5.381   1.225   6.738 -0.2264  0.1692  0.0831
  176SAPI    HA19998   5.404   1.329   6.706  0.6695 -0.4028 -1.1581
  176SAPI    HB19999   5.310   1.224   6.824  0.0538 -1.2497  0.2983
  176SAPI    C220000   5.515   1.165   6.804  0.8962  0.6981  0.9755
  176SAPI    HS20001   5.595   1.185   6.729  1.2365  1.1227  1.4468
  176SAPI   O2120002   5.501   1.030   6.839 -0.1190  0.3525  0.4407
  176SAPI   C2120003   5.607   0.960   6.824 -0.7633  0.2164  0.9324
  176SAPI   O2220004   5.720   0.994   6.797  0.2350 -0.2343  0.4768
  176SAPI   C2220005   5.570   0.813   6.858  1.0702 -0.0532  0.1851
  176SAPI   H2R20006   5.491   0.792   6.783  1.3535  1.4610 -0.5410
  176SAPI   H2S20007   5.653   0.738   6.853  1.2054  0.0605  0.7123
  176SAPI    C320008   5.545   1.256   6.922  0.1555 -0.4360 -0.0356
  176SAPI    HX20009   5.491   1.218   7.012 -0.0915 -1.1054 -0.4672
  176SAPI    HY20010   5.510   1.361   6.910  2.8290  0.6754  1.4753
  176SAPI   O3120011   5.688   1.258   6.955 -0.5235 -0.1632  0.0553
  176SAPI   C3120012   5.760   1.348   6.880 -0.2726 -0.1177  0.0832
  176SAPI   O3220013   5.716   1.407   6.788  0.3004  0.0838 -0.4004
  176SAPI   C3220014   5.904   1.364   6.934  0.0463  0.5531 -0.1375
  176SAPI   H2X20015   5.938   1.469   6.941  1.1889  0.0861  1.6787
  176SAPI   H2Y20016   5.972   1.329   6.853  0.4545  1.0499 -0.0118
  176SAPI   C2320017   5.505   0.800   7.000  0.3167 -0.3898 -0.0787
  176SAPI   H3R20018   5.476   0.693   7.007  2.0202 -1.0661 -2.6046
  176SAPI   H3S20019   5.413   0.861   7.007 -1.0372 -2.3647 -0.2607
  176SAPI   C2420020   5.596   0.843   7.122  0.3371  0.5253  0.1823
  176SAPI   H4R20021   5.624   0.950   7.106  2.9630 -0.2969 -1.0935
  176SAPI   H4S20022   5.687   0.779   7.115 -2.0368 -2.7882 -1.2262
  176SAPI   C2520023   5.529   0.814   7.255 -0.6715 -0.6415 -0.1369
  176SAPI   H5R20024   5.482   0.715   7.259 -3.3088  0.5920  0.6713
  176SAPI   C2620025   5.505   0.882   7.367  0.9363  0.2369 -0.0894
  176SAPI   H6R20026   5.455   0.827   7.448 -0.5736 -0.7884 -1.6897
  176SAPI   C2720027   5.554   1.026   7.387  0.7875  0.1855 -0.3139
  176SAPI   H7R20028   5.564   1.072   7.287  1.6602  2.6807  0.8983
  176SAPI   H7S20029   5.660   1.017   7.418  0.9222  1.1806 -0.4804
  176SAPI   C2820030   5.488   1.109   7.490 -0.3147 -0.2145 -0.8020
  176SAPI   H8R20031   5.380   1.094   7.502 -0.4918  0.4689 -1.5034
  176SAPI   C2920032   5.546   1.201   7.569  0.0407  0.0026 -1.0319
  176SAPI   H9R20033   5.485   1.271   7.628  0.6479  0.3198 -0.7770
  176SAPI  C21020034   5.691   1.233   7.569 -0.0529 -0.7829  0.0193
  176SAPI  H10R20035   5.725   1.282   7.475 -0.7624  1.4646  0.9177
  176SAPI  H10S20036   5.753   1.141   7.581  0.1347 -0.5239  1.0797
  176SAPI  C21120037   5.728   1.323   7.685  0.1641 -0.3493 -0.3371
  176SAPI  H11R20038   5.748   1.271   7.779 -1.4951  0.6923  0.6289
  176SAPI  C21220039   5.761   1.452   7.690 -0.7890  0.4473  0.0668
  176SAPI  H12R20040   5.787   1.504   7.783 -0.7411 -0.2725  0.4569
  176SAPI  C21320041   5.773   1.539   7.571  0.0855 -0.0414  0.7523
  176SAPI  H13R20042   5.763   1.644   7.606 -1.5307 -0.0640  0.4184
  176SAPI  H13S20043   5.696   1.518   7.493  0.2242  2.5415 -0.1343
  176SAPI  C21420044   5.907   1.511   7.500 -0.1939  0.1275  0.0832
  176SAPI  H14R20045   5.912   1.415   7.448  0.6286  0.6033 -0.7348
  176SAPI  C21520046   6.025   1.579   7.525 -0.4591  0.0577  0.3963
  176SAPI  H15R20047   6.104   1.547   7.456 -0.9217  2.9011 -1.5304
  176SAPI  C21620048   6.047   1.707   7.602  0.8141  0.0804  0.0603
  176SAPI  H16R20049   5.953   1.744   7.649  0.5150 -1.6658  0.8680
  176SAPI  H16S20050   6.069   1.786   7.527  3.6064  1.7994  2.5710
  176SAPI  C21720051   6.169   1.688   7.706  0.7467 -0.1414  0.2811
  176SAPI  H17R20052   6.203   1.780   7.758 -0.2378 -0.0042  0.6957
  176SAPI  H17S20053   6.251   1.644   7.644 -0.1064 -0.6546 -0.4931
  176SAPI  C21820054   6.137   1.587   7.814 -0.2151  1.5027 -0.1821
  176SAPI  H18R20055   6.233   1.536   7.839 -0.3407  0.5881 -1.5483
  176SAPI  H18S20056   6.059   1.519   7.777 -1.4939  2.1574  1.2557
  176SAPI  C21920057   6.088   1.648   7.952  0.9311 -0.3770 -0.0713
  176SAPI  H19R20058   6.009   1.721   7.926 -0.3956 -2.2066 -1.2802
  176SAPI  H19S20059   6.181   1.693   7.993  1.4841 -1.0732 -0.5523
  176SAPI  C22020060   6.024   1.554   8.054  0.3603  0.7187  0.2846
  176SAPI  H20R20061   5.931   1.511   8.012  0.3053  1.0446  0.0715
  176SAPI  H20S20062   6.000   1.608   8.148 -0.5430 -0.7709  0.9366
  176SAPI  H20T20063   6.102   1.479   8.081  0.2307 -0.6914 -3.0071
  176SAPI   C3320064   5.934   1.290   7.075 -0.1812  0.7429 -0.2834
  176SAPI   H3X20065   5.920   1.180   7.064 -1.1779  0.8042  0.3160
  176SAPI   H3Y20066   5.855   1.323   7.147  0.1642  0.1255  0.3827
  176SAPI   C3420067   6.075   1.324   7.127  0.1961  0.1653  0.4956
  176SAPI   H4X20068   6.081   1.432   7.155 -1.8159 -0.0388  1.8111
  176SAPI   H4Y20069   6.154   1.303   7.052  0.4332 -3.1739  1.5982
  176SAPI   C3520070   6.131   1.239   7.242  0.1974 -0.4025  0.3131
  176SAPI   H5X20071   6.135   1.138   7.196  0.0965 -0.5801  0.6912
  176SAPI   H5Y20072   6.053   1.237   7.321 -1.1563 -2.1366 -1.0229
  176SAPI   C3620073   6.274   1.274   7.303  0.6723  0.0150 -0.6048
  176SAPI   H6X20074   6.279   1.385   7.311 -0.1033  0.0580 -0.7134
  176SAPI   H6Y20075   6.343   1.241   7.222  1.0125 -0.5257 -0.0986
  176SAPI   C3720076   6.313   1.208   7.434  0.0323  0.2785 -0.0350
  176SAPI   H7X20077   6.424   1.211   7.448 -0.0997 -1.1451  1.3463
  176SAPI   H7Y20078   6.286   1.101   7.438 -0.6800  0.5065  1.5248
  176SAPI   C3820079   6.237   1.272   7.551  0.6594 -0.0780  0.2589
  176SAPI   H8X20080   6.131   1.302   7.536  0.5184 -0.7954 -0.2215
  176SAPI   H8Y20081   6.280   1.373   7.564  1.1011 -0.1991 -0.2782
  176SAPI   C3920082   6.264   1.204   7.685 -0.0188 -0.3606 -0.0673
  176SAPI   H9X20083   6.262   1.282   7.764 -0.6579 -1.7318  1.3018
  176SAPI   H9Y20084   6.369   1.167   7.686  0.5688  1.1879 -1.6581
  176SAPI  C31020085   6.167   1.089   7.716 -0.1523 -1.2443 -0.2988
  176SAPI  H10X20086   6.195   1.009   7.644 -0.6452 -1.9458  0.2825
  176SAPI  H10Y20087   6.068   1.136   7.695 -0.6332 -1.0685  2.2314
  176SAPI  C31120088   6.190   1.043   7.857  0.4101  0.4045  0.2779
  176SAPI  H11X20089   6.299   1.025   7.873 -0.0693 -1.6563  1.3923
  176SAPI  H11Y20090   6.140   0.945   7.868  1.6090 -0.1438  1.0622
  176SAPI  C31220091   6.123   1.126   7.970 -0.9433  0.1815  0.5164
  176SAPI  H12X20092   6.015   1.101   7.973 -0.3989 -2.1737  1.4129
  176SAPI  H12Y20093   6.160   1.230   7.957 -1.0742  0.5580  2.8835
  176SAPI  C31320094   6.175   1.087   8.119  0.4496  0.2878 -0.0205
  176SAPI  H13X20095   6.148   0.980   8.130 -0.5271  0.5353 -0.0035
  176SAPI  H13Y20096   6.120   1.133   8.204  0.9160 -1.6817  1.3883
  176SAPI  C31420097   6.330   1.122   8.143  0.1063 -0.1670  0.0864
  176SAPI  H14X20098   6.359   1.214   8.087  0.5969  1.7974  3.4154
  176SAPI  H14Y20099   6.393   1.040   8.102 -1.3006 -1.7775  1.1095
  176SAPI  C31520100   6.362   1.149   8.285  0.4724  0.6740  0.4559
  176SAPI  H15X20101   6.304   1.082   8.353 -0.8247  1.3204 -0.0081
  176SAPI  H15Y20102   6.314   1.246   8.311  0.9010  1.4469 -1.6081
  176SAPI  C31620103   6.503   1.157   8.334  0.4356 -0.3063 -0.0402
  176SAPI  H16X20104   6.562   1.230   8.275  0.7239  0.2932  0.9819
  176SAPI  H16Y20105   6.557   1.060   8.327 -0.6635 -0.9064 -0.3276
  176SAPI  C31720106   6.510   1.197   8.484  0.5982 -0.5217  0.2201
  176SAPI  H17X20107   6.445   1.123   8.534  0.6211  0.3850  1.6280
  176SAPI  H17Y20108   6.467   1.299   8.495  2.5341  0.3600 -0.1101
  176SAPI  C31820109   6.646   1.201   8.553  0.6899 -0.6082 -0.0231
  176SAPI  H18X20110   6.688   1.098   8.546  0.8275 -0.4954 -1.0589
  176SAPI  H18Y20111   6.630   1.221   8.660  2.4164 -0.2768  0.1889
  176SAPI  H18Z20112   6.722   1.267   8.506 -1.1337 -0.1782 -2.4853
  177SLPC     N20113   5.631   5.530  11.116 -0.7919 -0.0005  0.2622
  177SLPC   C1320114   5.705   5.411  11.092 -0.7733 -0.0878 -0.2777
  177SLPC  H13A20115   5.651   5.322  11.120 -1.1843  0.5778  1.1012
  177SLPC  H13B20116   5.720   5.400  10.986  1.8102  0.5406  0.0016
  177SLPC  H13C20117   5.792   5.414  11.156 -1.4221 -2.1820  0.7600
  177SLPC   C1420118   5.677   5.643  11.028 -0.8348 -0.5591 -0.6671
  177SLPC  H14A20119   5.755   5.701  11.075  0.5995 -2.7350 -0.2876
  177SLPC  H14B20120   5.709   5.626  10.926  2.7736  2.8868 -0.2497
  177SLPC  H14C20121   5.593   5.710  11.025  0.5216  1.1996 -0.0254
  177SLPC   C1520122   5.642   5.576  11.255  0.4569  0.1547  0.3972
  177SLPC  H15A20123   5.625   5.496  11.325 -1.3902 -0.4065 -0.6770
  177SLPC  H15B20124   5.740   5.621  11.266 -0.0024  1.2016  0.3072
  177SLPC  H15C20125   5.567   5.652  11.271 -0.1346  0.0728 -1.7629
  177SLPC   C1220126   5.481   5.505  11.086 -0.3354  0.1966 -0.2565
  177SLPC  H12A20127   5.450   5.475  10.987  0.8895  3.7994 -1.7879
  177SLPC  H12B20128   5.420   5.593  11.098 -1.3337 -0.1638 -2.3873
  177SLPC   C1120129   5.407   5.401  11.179 -0.4843 -0.3969 -0.1414
  177SLPC  H11A20130   5.296   5.407  11.172 -0.4241 -0.1051 -0.9102
  177SLPC  H11B20131   5.440   5.420  11.283  0.3229  1.4995 -0.7142
  177SLPC     P20132   5.393   5.197  11.007  0.1709 -0.1165  0.0010
  177SLPC   O1320133   5.506   5.119  10.957 -0.4415 -0.2233 -0.5054
  177SLPC   O1420134   5.262   5.127  11.028  0.1138  0.7144 -0.2033
  177SLPC   O1220135   5.443   5.266  11.139  0.2861 -0.3225  0.1237
  177SLPC   O1120136   5.373   5.318  10.901 -0.4420 -0.0337  0.2975
  177SLPC    C120137   5.452   5.341  10.780 -0.1223 -0.1263  0.2988
  177SLPC    HA20138   5.461   5.448  10.755  2.7101 -0.7576 -1.5301
  177SLPC    HB20139   5.557   5.307  10.792 -0.4825 -2.2703 -2.1805
  177SLPC    C220140   5.393   5.268  10.658  0.4872  0.0082 -0.1547
  177SLPC    HS20141   5.382   5.159  10.680  0.9717 -0.3800 -1.7254
  177SLPC   O2120142   5.479   5.282  10.544  0.6864  0.3192 -0.0639
  177SLPC   C2120143   5.577   5.202  10.541 -0.0829  0.5329  0.1405
  177SLPC   O2220144   5.591   5.102  10.613 -0.6501  0.0391 -0.2877
  177SLPC   C2220145   5.669   5.241  10.421  0.1335  0.0440 -0.4060
  177SLPC   H2R20146   5.658   5.349  10.398  0.1133  0.8721  3.1887
  177SLPC   H2S20147   5.775   5.234  10.454  0.3017 -1.9795 -1.2999
  177SLPC    C320148   5.255   5.321  10.623  0.3548 -0.4799 -0.0726
  177SLPC    HX20149   5.267   5.430  10.610  2.2257 -0.2966  2.6980
  177SLPC    HY20150   5.193   5.307  10.713 -0.6967  3.6183 -0.0668
  177SLPC   O3120151   5.199   5.251  10.513 -0.2008  0.3360 -0.4567
  177SLPC   C3120152   5.214   5.308  10.394  0.2459 -0.9681  0.3354
  177SLPC   O3220153   5.251   5.422  10.365  1.0285 -0.2144 -0.3934
  177SLPC   C3220154   5.164   5.205  10.298 -0.3395 -0.6323  0.7097
  177SLPC   H2X20155   5.064   5.234  10.259 -0.0796  0.8173  1.0905
  177SLPC   H2Y20156   5.173   5.102  10.340 -0.4964 -1.2492 -0.7497
  177SLPC   C2320157   5.630   5.168  10.299 -0.2874  0.3315 -0.2618
  177SLPC   H3R20158   5.524   5.136  10.310 -0.8221  2.6754  1.5501
  177SLPC   H3S20159   5.687   5.072  10.290  0.3804  0.6235  0.8359
  177SLPC   C2420160   5.659   5.238  10.163 -0.2995 -0.1953 -0.2226
  177SLPC   H4R20161   5.766   5.268  10.165  0.3119 -2.3467  0.3047
  177SLPC   H4S20162   5.597   5.331  10.166 -0.2833 -0.1857 -0.1933
  177SLPC   C2520163   5.640   5.142  10.047 -0.0979  0.5687 -0.4119
  177SLPC   H5R20164   5.538   5.099  10.058  0.7244 -1.4759 -0.4931
  177SLPC   H5S20165   5.705   5.053  10.062  0.1055  0.3733 -2.2296
  177SLPC   C2620166   5.661   5.205   9.908  0.2192 -0.0489 -0.2801
  177SLPC   H6R20167   5.766   5.210   9.873  0.0756  2.4054 -0.4385
  177SLPC   H6S20168   5.634   5.312   9.906 -0.9371 -0.2581  1.9905
  177SLPC   C2720169   5.564   5.143   9.800 -0.4076  0.3628 -0.0397
  177SLPC   H7R20170   5.459   5.145   9.836 -1.2502 -1.9052 -2.2055
  177SLPC   H7S20171   5.596   5.038   9.782  0.9107  0.7209  0.1705
  177SLPC   C2820172   5.572   5.210   9.657  0.1197  0.2787  0.1774
  177SLPC   H8R20173   5.679   5.213   9.628  0.7947  0.9350  2.5698
  177SLPC   H8S20174   5.537   5.314   9.677  0.7846  0.0651  2.6806
  177SLPC   C2920175   5.476   5.166   9.545 -0.3892  0.2952  1.1788
  177SLPC   H9R20176   5.374   5.142   9.576 -0.7739 -1.0939 -1.0550
  177SLPC  C21020177   5.493   5.153   9.416  0.1220 -0.8690 -0.1030
  177SLPC  H10R20178   5.405   5.125   9.357  0.9052 -2.7337 -0.4439
  177SLPC  C21120179   5.622   5.181   9.334  1.1325 -0.1248  0.2207
  177SLPC  H11R20180   5.627   5.291   9.342 -1.9934  0.2095 -1.5959
  177SLPC  H11S20181   5.713   5.135   9.378  2.2066  0.4457 -1.3794
  177SLPC  C21220182   5.597   5.142   9.180 -0.3794 -0.1350 -0.1228
  177SLPC  H12R20183   5.502   5.172   9.134 -1.3618 -2.5395  0.2443
  177SLPC  C21320184   5.693   5.074   9.099  0.0113 -0.8191  0.7830
  177SLPC  H13R20185   5.667   5.046   8.996 -1.4766 -1.7992  1.4234
  177SLPC  C21420186   5.825   5.024   9.146  0.4647 -0.3327  0.0840
  177SLPC  H14R20187   5.827   4.916   9.119 -1.3244 -0.2224 -0.5563
  177SLPC  H14S20188   5.825   5.018   9.257  0.5211 -0.2968  0.0855
  177SLPC  C21520189   5.951   5.089   9.073 -0.0938 -0.0987  0.1445
  177SLPC  H15R20190   6.030   5.042   9.135  1.9088  1.7453 -0.9253
  177SLPC  H15S20191   5.944   5.196   9.101 -0.7662 -0.2523  0.5643
  177SLPC  C21620192   5.972   5.052   8.930  0.9548 -0.1698  0.0137
  177SLPC  H16R20193   5.880   5.085   8.877  1.1369  0.3767  0.0366
  177SLPC  H16S20194   5.995   4.945   8.913  0.9760 -0.1233 -0.2491
  177SLPC  C21720195   6.097   5.128   8.880 -0.0085 -0.1999 -0.0332
  177SLPC  H17R20196   6.181   5.106   8.950  1.1022 -0.6567 -1.4903
  177SLPC  H17S20197   6.067   5.235   8.881  3.1756  0.7534  1.8411
  177SLPC  C21820198   6.143   5.084   8.743 -0.1821  0.5864  0.9310
  177SLPC  H18R20199   6.239   5.132   8.713 -1.3428  2.1745 -0.3006
  177SLPC  H18S20200   6.069   5.100   8.662  2.6631  3.1731 -1.2917
  177SLPC  H18T20201   6.148   4.973   8.749  0.2027  0.5494 -0.0595
  177SLPC   C3320202   5.242   5.214  10.170 -0.5683  0.3470 -0.3139
  177SLPC   H3X20203   5.344   5.173  10.184  0.6077  1.8123 -4.0854
  177SLPC   H3Y20204   5.257   5.317  10.130 -0.0244 -0.0108 -1.0345
  177SLPC   C3420205   5.173   5.147  10.049 -0.4515 -0.1259 -0.2961
  177SLPC   H4X20206   5.247   5.107   9.976  0.6310  0.3302  0.5204
  177SLPC   H4Y20207   5.124   5.232   9.998 -1.3479  0.5430  1.6200
  177SLPC   C3520208   5.078   5.036  10.075  0.2177 -0.5544 -0.3844
  177SLPC   H5X20209   4.990   5.069  10.133  0.5411 -0.5414  0.0950
  177SLPC   H5Y20210   5.137   4.952  10.117  1.2012  0.5846  0.5596
  177SLPC   C3620211   5.024   4.973   9.939 -0.1806 -0.0647 -0.9317
  177SLPC   H6X20212   4.980   5.062   9.890  1.5740  0.6892 -1.1643
  177SLPC   H6Y20213   4.956   4.886   9.954 -1.9404  1.5628  0.7781
  177SLPC   C3720214   5.131   4.935   9.829 -0.0693 -0.4913 -0.7086
  177SLPC   H7X20215   5.193   4.852   9.870  0.1616 -1.1152 -2.2670
  177SLPC   H7Y20216   5.194   5.021   9.799 -0.5137 -0.0428 -0.3561
  177SLPC   C3820217   5.052   4.877   9.708 -0.6699 -0.2606 -0.0583
  177SLPC   H8X20218   4.964   4.940   9.680 -1.4104 -1.3671 -0.2723
  177SLPC   H8Y20219   5.001   4.782   9.735 -0.1317 -0.6042 -0.2473
  177SLPC   C3920220   5.137   4.865   9.579 -0.4142 -0.3143 -0.1597
  177SLPC   H9X20221   5.233   4.813   9.597 -0.3826 -0.1619  0.1047
  177SLPC   H9Y20222   5.182   4.960   9.543 -1.9750  0.5971  0.2775
  177SLPC  C31020223   5.079   4.793   9.457  0.1082  0.6093  0.2262
  177SLPC  H10X20224   5.011   4.869   9.412  0.1934  0.6826  0.2224
  177SLPC  H10Y20225   5.018   4.703   9.478  1.5951 -0.7195 -1.0228
  177SLPC  C31120226   5.185   4.752   9.352  0.2184  0.1419 -0.1698
  177SLPC  H11X20227   5.247   4.675   9.403 -1.8145 -0.7743  0.9769
  177SLPC  H11Y20228   5.246   4.840   9.323 -1.6508  0.4360 -3.4574
  177SLPC  C31220229   5.104   4.701   9.233  0.0307  0.1923 -0.2142
  177SLPC  H12X20230   5.027   4.771   9.193 -1.1624 -1.8298 -1.5339
  177SLPC  H12Y20231   5.045   4.620   9.280  1.5499 -1.8408 -1.6774
  177SLPC  C31320232   5.197   4.647   9.122 -0.0227  0.0680 -0.5154
  177SLPC  H13X20233   5.234   4.549   9.159  0.2766  0.2925 -0.2092
  177SLPC  H13Y20234   5.276   4.725   9.113 -0.3467  0.2373 -1.9073
  177SLPC  C31420235   5.132   4.628   8.978  0.6384  0.3996  0.2855
  177SLPC  H14X20236   5.110   4.726   8.929 -0.3056 -0.5998 -1.3579
  177SLPC  H14Y20237   5.039   4.574   9.007  1.0043 -0.2572  0.2361
  177SLPC  C31520238   5.220   4.551   8.875  0.1394  0.6721  0.5428
  177SLPC  H15X20239   5.247   4.452   8.918  1.0422  1.5626  2.0394
  177SLPC  H15Y20240   5.317   4.601   8.859  0.2588  0.6106  1.0662
  177SLPC  C31620241   5.152   4.531   8.737  0.6222  0.0890 -0.3212
  177SLPC  H16X20242   5.118   4.632   8.706 -3.1151 -1.0379 -0.1656
  177SLPC  H16Y20243   5.056   4.475   8.750 -0.2151  1.4351 -0.6727
  177SLPC  C31720244   5.259   4.482   8.637 -0.2629 -0.5047  0.0438
  177SLPC  H17X20245   5.280   4.377   8.668 -1.9431 -1.1860 -1.0161
  177SLPC  H17Y20246   5.355   4.539   8.637 -0.1252 -0.7329  0.0306
  177SLPC  C31820247   5.203   4.492   8.488 -0.1257  0.0729  0.3652
  177SLPC  H18X20248   5.106   4.438   8.478  0.0908 -0.4395  0.9601
  177SLPC  H18Y20249   5.280   4.445   8.422  1.7451  1.9955  1.1361
  177SLPC  H18Z20250   5.193   4.593   8.444  1.8951  0.3067  0.3729
  178SLPC     N20251   0.081   0.393  11.297 -0.3297 -0.2197 -0.2572
  178SLPC   C1320252   0.044   0.530  11.248 -0.1251  0.6873  0.7879
  178SLPC  H13A20253   0.025   0.595  11.333 -1.4558  0.1438  0.9243
  178SLPC  H13B20254   0.127   0.559  11.187 -0.6083 -0.3758 -0.3762
  178SLPC  H13C20255  -0.049   0.534  11.193  0.3865 -0.1013 -0.1266
  178SLPC   C1420256  -0.022   0.335  11.387 -0.9468 -0.6466 -0.2534
  178SLPC  H14A20257  -0.017   0.368  11.490 -2.6689 -0.7475 -0.1180
  178SLPC  H14B20258  -0.123   0.360  11.358 -0.2567  1.1337 -1.1495
  178SLPC  H14C20259  -0.012   0.227  11.387 -1.4559 -0.7196  1.9236
  178SLPC   C1520260   0.203   0.414  11.377  0.1027 -0.0379 -0.2143
  178SLPC  H15A20261   0.172   0.479  11.458  1.1327 -0.0885  0.2311
  178SLPC  H15B20262   0.223   0.317  11.420 -1.0167 -0.2959 -0.2633
  178SLPC  H15C20263   0.284   0.468  11.331 -1.1058  1.6263 -0.4507
  178SLPC   C1220264   0.112   0.299  11.186 -0.1974  0.5063  0.3131
  178SLPC  H12A20265   0.023   0.286  11.127 -0.0914  4.2401 -0.7887
  178SLPC  H12B20266   0.139   0.203  11.226 -2.1160 -0.9043 -1.6681
  178SLPC   C1120267   0.228   0.343  11.094  0.0386 -0.2109  0.0494
  178SLPC  H11A20268   0.246   0.262  11.020 -1.7039 -2.6739  2.2375
  178SLPC  H11B20269   0.319   0.354  11.156 -0.7162  0.6068  1.0371
  178SLPC     P20270   0.125   0.500  10.912  0.4393 -0.4423 -0.4732
  178SLPC   O1320271  -0.020   0.495  10.945 -0.5201 -0.3981 -0.0938
  178SLPC   O1420272   0.179   0.622  10.850 -0.2232 -0.4672  0.1279
  178SLPC   O1220273   0.209   0.467  11.033 -0.0955  0.2474 -0.8142
  178SLPC   O1120274   0.168   0.389  10.818  0.6546 -0.4536 -0.0495
  178SLPC    C120275   0.294   0.369  10.754 -0.1021  0.2594 -0.8544
  178SLPC    HA20276   0.344   0.467  10.740 -0.3853  0.3401 -1.3195
  178SLPC    HB20277   0.354   0.294  10.811 -0.4366  0.9381  0.3811
  178SLPC    C220278   0.263   0.313  10.617 -0.2291  0.0212 -0.5540
  178SLPC    HS20279   0.365   0.292  10.579  1.4532  2.9278  2.1610
  178SLPC   O2120280   0.184   0.405  10.541 -0.2007 -0.0622 -0.1527
  178SLPC   C2120281   0.254   0.501  10.477 -0.3423 -0.2298  0.9113
  178SLPC   O2220282   0.371   0.524  10.500 -0.1390  0.7085 -0.4911
  178SLPC   C2220283   0.181   0.568  10.372 -0.4673 -0.4095  0.0765
  178SLPC   H2R20284   0.090   0.609  10.421 -0.6915 -1.2183  0.3421
  178SLPC   H2S20285   0.245   0.653  10.340  0.1400 -2.0446 -3.3073
  178SLPC    C320286   0.187   0.170  10.630  0.1089  0.5168  0.2458
  178SLPC    HX20287   0.090   0.186  10.682 -0.8399  0.1142 -1.3723
  178SLPC    HY20288   0.260   0.114  10.693  0.6349  2.5574  1.5246
  178SLPC   O3120289   0.173   0.103  10.505  0.3675 -0.1456  0.0475
  178SLPC   C3120290   0.053   0.139  10.444 -0.7299  0.1799 -0.9780
  178SLPC   O3220291  -0.031   0.211  10.493 -0.4984  0.1707  0.2459
  178SLPC   C3220292   0.059   0.074  10.303  0.6033 -0.1540 -0.1265
  178SLPC   H2X20293   0.100  -0.029  10.313 -0.4653 -0.5443  0.2431
  178SLPC   H2Y20294   0.141   0.126  10.249 -0.1828  0.3058 -0.8880
  178SLPC   C2320295   0.134   0.483  10.248 -0.1208  0.0065  0.2978
  178SLPC   H3R20296   0.045   0.537  10.208 -0.0991 -1.5764 -1.9666
  178SLPC   H3S20297   0.091   0.384  10.273 -0.9087  0.3819  0.4586
  178SLPC   C2420298   0.229   0.453  10.134  0.9677  0.8140  0.3945
  178SLPC   H4R20299   0.225   0.347  10.101  0.8687  0.9874 -0.1528
  178SLPC   H4S20300   0.326   0.471  10.186  0.2255  1.6201  1.5294
  178SLPC   C2520301   0.210   0.547  10.016  0.2290  0.5754 -0.2873
  178SLPC   H5R20302   0.221   0.655  10.043  3.4615  0.4289 -0.7879
  178SLPC   H5S20303   0.116   0.534   9.958 -0.2049  1.0393  0.3034
  178SLPC   C2620304   0.325   0.523   9.911  0.1308  0.0069 -0.4711
  178SLPC   H6R20305   0.334   0.414   9.888 -0.3061  0.1551 -1.4078
  178SLPC   H6S20306   0.423   0.540   9.959 -0.0912 -0.5988  0.2098
  178SLPC   C2720307   0.310   0.600   9.781  0.1495 -0.5374 -0.0504
  178SLPC   H7R20308   0.409   0.596   9.732 -0.4344 -3.1648 -1.0728
  178SLPC   H7S20309   0.282   0.705   9.805 -1.8017 -1.1741  0.5710
  178SLPC   C2820310   0.212   0.547   9.684  0.1890 -0.4015 -0.1388
  178SLPC   H8R20311   0.196   0.627   9.608 -1.8211 -0.2195  0.4447
  178SLPC   H8S20312   0.109   0.538   9.725  0.4589 -2.1568  0.2030
  178SLPC   C2920313   0.243   0.423   9.617 -0.4273  0.3668  0.3414
  178SLPC   H9R20314   0.325   0.361   9.658 -0.3330  1.2651  1.5235
  178SLPC  C21020315   0.176   0.386   9.509 -0.0445 -0.0261 -0.2039
  178SLPC  H10R20316   0.211   0.293   9.463 -0.4869 -0.7989  0.9931
  178SLPC  C21120317   0.077   0.457   9.421  0.2868 -0.2338 -0.6366
  178SLPC  H11R20318   0.036   0.545   9.476 -0.2295 -0.5485 -0.5217
  178SLPC  H11S20319  -0.008   0.388   9.404  1.2596 -1.7666  0.7017
  178SLPC  C21220320   0.138   0.496   9.288  0.1601  0.1611  0.4527
  178SLPC  H12R20321   0.199   0.587   9.299 -0.0498  0.3512  0.0635
  178SLPC  C21320322   0.136   0.427   9.172 -0.0210 -0.7665  0.0032
  178SLPC  H13R20323   0.169   0.480   9.081 -1.9048 -0.7965 -0.7375
  178SLPC  C21420324   0.076   0.292   9.144 -0.5721  0.4808 -0.3599
  178SLPC  H14R20325  -0.025   0.274   9.186 -0.3210 -1.1508 -0.4386
  178SLPC  H14S20326   0.141   0.213   9.187  1.1182  1.3707 -1.2060
  178SLPC  C21520327   0.073   0.273   8.992 -0.2945  0.2782 -0.1891
  178SLPC  H15R20328   0.083   0.166   8.966  0.8257  0.3929 -0.2793
  178SLPC  H15S20329   0.168   0.304   8.943 -1.3586  0.2395 -2.3108
  178SLPC  C21620330  -0.059   0.336   8.932 -0.5437 -0.0582  0.3411
  178SLPC  H16R20331  -0.065   0.442   8.964 -2.8988 -0.5417  1.5902
  178SLPC  H16S20332  -0.136   0.264   8.968 -0.2736 -0.8386 -0.6077
  178SLPC  C21720333  -0.060   0.337   8.778  0.2130 -0.2574 -0.6668
  178SLPC  H17R20334  -0.152   0.388   8.739  2.1758  2.2373 -2.2163
  178SLPC  H17S20335  -0.062   0.236   8.732  0.6431  0.2597 -1.8709
  178SLPC  C21820336   0.058   0.405   8.717 -0.9971 -0.1787  0.4098
  178SLPC  H18R20337   0.150   0.347   8.740 -0.8040 -0.2030 -0.3932
  178SLPC  H18S20338   0.064   0.515   8.732 -0.4455 -0.3007  1.0803
  178SLPC  H18T20339   0.053   0.399   8.606 -0.1214  1.8357  0.2340
  178SLPC   C3320340  -0.077   0.082  10.235  0.6516 -0.3008 -0.0712
  178SLPC   H3X20341  -0.107   0.188  10.220 -0.7580 -1.1129 -3.6630
  178SLPC   H3Y20342  -0.152   0.032  10.300 -1.1952  0.0748 -1.8470
  178SLPC   C3420343  -0.083   0.018  10.091  0.6525  0.4699 -0.2003
  178SLPC   H4X20344  -0.053  -0.088  10.101 -1.2655 -0.0899 -0.2755
  178SLPC   H4Y20345  -0.014   0.071  10.022 -0.3653  2.9241  0.6004
  178SLPC   C3520346  -0.226   0.022  10.041  0.2720 -0.2684 -0.0240
  178SLPC   H5X20347  -0.272   0.121  10.064  1.0234 -0.1251  0.8563
  178SLPC   H5Y20348  -0.281  -0.051  10.104 -1.1741 -0.1385 -1.0928
  178SLPC   C3620349  -0.237  -0.015   9.893 -0.0128  0.2867 -0.0133
  178SLPC   H6X20350  -0.215  -0.122   9.876  0.4182  0.2581  0.6801
  178SLPC   H6Y20351  -0.166   0.041   9.829 -1.1654  0.0673 -1.5207
  178SLPC   C3720352  -0.388  -0.007   9.846  0.5779 -0.2366  1.1009
  178SLPC   H7X20353  -0.422   0.096   9.866  2.7185  0.9917 -1.3456
  178SLPC   H7Y20354  -0.445  -0.075   9.914 -0.4029  1.1871  1.7136
  178SLPC   C3820355  -0.424  -0.055   9.700 -0.1566 -0.4955  0.5431
  178SLPC   H8X20356  -0.402  -0.164   9.705  0.2377 -0.4953 -0.8766
  178SLPC   H8Y20357  -0.352  -0.006   9.631 -1.3902  0.7052  0.0819
  178SLPC   C3920358  -0.565  -0.040   9.648 -0.1010  0.4427  0.0478
  178SLPC   H9X20359  -0.582   0.066   9.677 -0.2390  0.4679 -0.1273
  178SLPC   H9Y20360  -0.636  -0.093   9.715 -0.2669  0.0848 -0.4113
  178SLPC  C31020361  -0.583  -0.062   9.495  0.6135  0.1640  0.4088
  178SLPC  H10X20362  -0.559  -0.164   9.458  1.3241  0.0718  1.1101
  178SLPC  H10Y20363  -0.500  -0.001   9.452  0.8791  0.7595  1.7569
  178SLPC  C31120364  -0.715  -0.026   9.432  0.5030  0.6893  0.2782
  178SLPC  H11X20365  -0.736   0.083   9.443  2.2952  0.8550  2.5065
  178SLPC  H11Y20366  -0.801  -0.084   9.473 -0.8989  1.0929 -2.0231
  178SLPC  C31220367  -0.717  -0.054   9.278 -0.5197 -0.2532  0.2162
  178SLPC  H12X20368  -0.703  -0.164   9.267  0.8761 -0.1229  0.4973
  178SLPC  H12Y20369  -0.632  -0.011   9.222  2.2015 -3.7646  1.4022
  178SLPC  C31320370  -0.846  -0.013   9.211  0.5528  0.4269  0.5668
  178SLPC  H13X20371  -0.869   0.093   9.237 -0.7934  0.1981  0.3845
  178SLPC  H13Y20372  -0.920  -0.071   9.271  0.7706  1.3130  1.7075
  178SLPC  C31420373  -0.854  -0.036   9.059 -0.2553  0.8367  0.0540
  178SLPC  H14X20374  -0.832  -0.142   9.035  2.3747  1.7653 -1.7928
  178SLPC  H14Y20375  -0.772   0.020   9.009 -1.0647  0.5044 -1.7007
  178SLPC  C31520376  -0.987   0.002   8.984 -0.0727 -0.4947 -0.0257
  178SLPC  H15X20377  -1.080  -0.038   9.031 -1.6681  0.0440 -2.5794
  178SLPC  H15Y20378  -1.011   0.111   8.978 -0.6627 -0.5271  1.5371
  178SLPC  C31620379  -0.982  -0.048   8.841 -0.4029 -0.8036 -0.0722
  178SLPC  H16X20380  -0.954  -0.155   8.835 -0.4744 -0.8933  0.9952
  178SLPC  H16Y20381  -0.901  -0.001   8.782 -0.2821  1.5991  1.9155
  178SLPC  C31720382  -1.107  -0.008   8.752 -0.9472  0.7505 -0.1573
  178SLPC  H17X20383  -1.200  -0.052   8.793 -1.3240 -0.0164 -1.7780
  178SLPC  H17Y20384  -1.082  -0.061   8.657 -1.3850  1.8804 -0.9152
  178SLPC  C31820385  -1.119   0.141   8.722 -0.1029  0.5020  0.0274
  178SLPC  H18X20386  -1.034   0.180   8.663  0.5543 -0.2149  0.4867
  178SLPC  H18Y20387  -1.118   0.190   8.822  0.4624 -0.0645  0.3044
  178SLPC  H18Z20388  -1.216   0.164   8.673 -0.2313 -1.2704 -0.5993
  179SLPC     N20389   2.001   4.574  10.558 -0.0299  0.4332 -0.2305
  179SLPC   C1320390   1.972   4.642  10.684  0.8052  0.1278 -0.1208
  179SLPC  H13A20391   2.059   4.693  10.723  0.0381  2.7523 -1.6929
  179SLPC  H13B20392   1.899   4.722  10.675  1.1150  0.7180  2.3332
  179SLPC  H13C20393   1.947   4.566  10.757  0.5533 -1.0775 -1.4330
  179SLPC   C1420394   2.111   4.472  10.566  0.0494 -0.4350 -0.7236
  179SLPC  H14A20395   2.124   4.432  10.467 -2.0635  0.0180 -1.2201
  179SLPC  H14B20396   2.209   4.513  10.584  0.2075 -0.0959 -2.2392
  179SLPC  H14C20397   2.093   4.383  10.624 -0.7352 -2.0345 -3.3159
  179SLPC   C1520398   2.054   4.680  10.465  0.3074  0.5571  0.1196
  179SLPC  H15A20399   2.126   4.737  10.523  1.6227 -1.6826  0.7362
  179SLPC  H15B20400   2.116   4.638  10.387 -2.3230 -0.6758 -1.3674
  179SLPC  H15C20401   1.970   4.739  10.431  0.0832 -0.0411 -0.3516
  179SLPC   C1220402   1.878   4.509  10.504 -0.1575 -0.1934  0.2546
  179SLPC  H12A20403   1.799   4.582  10.511  0.1619  0.0270  1.5588
  179SLPC  H12B20404   1.845   4.420  10.556  0.5405 -0.3693  0.4121
  179SLPC   C1120405   1.887   4.452  10.358 -0.2439 -0.1454  0.6383
  179SLPC  H11A20406   1.930   4.531  10.293  1.8611 -1.0612  0.8752
  179SLPC  H11B20407   1.791   4.432  10.306 -0.9110 -2.8455  2.8066
  179SLPC     P20408   1.927   4.194  10.399 -0.3153 -0.9332  0.0997
  179SLPC   O1320409   2.002   4.075  10.345 -0.0742 -0.0365  0.0829
  179SLPC   O1420410   1.918   4.209  10.546  0.3680  0.0070 -0.1530
  179SLPC   O1220411   1.968   4.336  10.341  0.1449 -0.4837  0.1029
  179SLPC   O1120412   1.776   4.178  10.344 -0.4797  0.2024  0.2215
  179SLPC    C120413   1.735   4.050  10.297  0.5001  0.4920  0.6006
  179SLPC    HA20414   1.782   3.967  10.355 -2.0980  0.1647  2.3052
  179SLPC    HB20415   1.627   4.044  10.323  0.4266  0.0175  0.1921
  179SLPC    C220416   1.757   4.032  10.144 -0.8724  0.5198 -0.0467
  179SLPC    HS20417   1.862   4.058  10.119 -1.2515  1.2151 -0.9804
  179SLPC   O2120418   1.660   4.117  10.081 -0.0035  0.4498  0.6516
  179SLPC   C2120419   1.681   4.170   9.958 -0.0768  0.8924  0.5146
  179SLPC   O2220420   1.782   4.160   9.888 -0.2299  0.4168  0.1429
  179SLPC   C2220421   1.557   4.247   9.905 -0.7613  0.2649 -0.6202
  179SLPC   H2R20422   1.467   4.238   9.969  1.2847  1.7847  2.6375
  179SLPC   H2S20423   1.582   4.353   9.882  3.1141 -0.2340  0.8199
  179SLPC    C320424   1.731   3.883  10.114  0.2185 -0.2326  0.0803
  179SLPC    HX20425   1.629   3.864  10.154 -1.2746  1.7971 -2.6282
  179SLPC    HY20426   1.812   3.834  10.174 -1.5385  1.2753  3.8545
  179SLPC   O3120427   1.734   3.843   9.979  0.4366 -0.1428 -0.0213
  179SLPC   C3120428   1.854   3.815   9.927  0.4992 -0.0258 -0.0355
  179SLPC   O3220429   1.960   3.824   9.989 -0.7937  0.4275  0.3126
  179SLPC   C3220430   1.840   3.752   9.797  0.8928 -0.1170  0.8330
  179SLPC   H2X20431   1.734   3.722   9.782  0.4107  2.3327 -0.9225
  179SLPC   H2Y20432   1.885   3.652   9.815  0.3480 -0.6668 -0.7875
  179SLPC   C2320433   1.523   4.194   9.762  0.1288  0.0233 -1.2620
  179SLPC   H3R20434   1.493   4.087   9.766 -1.9838  0.5982 -0.8946
  179SLPC   H3S20435   1.616   4.197   9.701  0.9336  2.2151  0.0371
  179SLPC   C2420436   1.417   4.288   9.704 -0.3820  0.3984  0.1424
  179SLPC   H4R20437   1.473   4.375   9.663  1.6685 -0.1224  1.7518
  179SLPC   H4S20438   1.349   4.319   9.786 -0.6349 -0.0229  0.0964
  179SLPC   C2520439   1.343   4.213   9.591 -0.3026 -0.4333 -0.0702
  179SLPC   H5R20440   1.300   4.120   9.633 -1.7504 -0.5393 -1.7708
  179SLPC   H5S20441   1.418   4.179   9.517 -0.8691 -2.0476  0.0946
  179SLPC   C2620442   1.236   4.303   9.527  0.4362 -0.7440  0.4037
  179SLPC   H6R20443   1.151   4.319   9.597  0.4726  0.2368  0.2326
  179SLPC   H6S20444   1.192   4.244   9.444  0.7306  0.0426 -0.3166
  179SLPC   C2720445   1.291   4.435   9.460 -0.3365 -0.1591  0.1929
  179SLPC   H7R20446   1.392   4.409   9.423 -1.1740 -3.5900  0.0845
  179SLPC   H7S20447   1.300   4.512   9.539 -1.3509  0.8216 -0.6354
  179SLPC   C2820448   1.210   4.473   9.339 -0.4379  0.0107  0.3930
  179SLPC   H8R20449   1.192   4.381   9.279  2.4329  0.1465 -0.7551
  179SLPC   H8S20450   1.263   4.537   9.266  0.7466  2.3480  3.2036
  179SLPC   C2920451   1.091   4.563   9.377 -0.1687  0.4117  0.6065
  179SLPC   H9R20452   1.113   4.628   9.463 -0.0575  2.7670 -1.1162
  179SLPC  C21020453   0.959   4.555   9.339 -0.3148 -0.1308  0.0127
  179SLPC  H10R20454   0.892   4.621   9.395 -0.4121  0.9008 -1.3082
  179SLPC  C21120455   0.884   4.460   9.243 -0.0421 -0.3204  0.0407
  179SLPC  H11R20456   0.837   4.373   9.295  1.4775 -1.3241 -0.2373
  179SLPC  H11S20457   0.959   4.422   9.171  1.4030  0.6569  0.9930
  179SLPC  C21220458   0.781   4.549   9.178 -0.1535  0.5505 -0.6034
  179SLPC  H12R20459   0.822   4.638   9.128  1.1950 -0.0127 -0.5231
  179SLPC  C21320460   0.651   4.527   9.181  0.3847  0.0307  0.2779
  179SLPC  H13R20461   0.583   4.593   9.124  0.2755 -0.1771  0.1674
  179SLPC  C21420462   0.579   4.413   9.244 -0.6099 -0.2209  0.4339
  179SLPC  H14R20463   0.471   4.440   9.252 -0.7000 -0.8150  1.3199
  179SLPC  H14S20464   0.621   4.398   9.346 -0.6534  0.5708  0.5737
  179SLPC  C21520465   0.595   4.285   9.166  0.2064 -0.1651  0.9645
  179SLPC  H15R20466   0.559   4.200   9.228 -0.5632 -1.2240 -0.9069
  179SLPC  H15S20467   0.703   4.263   9.148  0.3854  3.1916 -2.8199
  179SLPC  C21620468   0.508   4.269   9.034 -0.1400 -0.4494  0.1826
  179SLPC  H16R20469   0.542   4.167   9.004  0.0924 -0.7716  1.5048
  179SLPC  H16S20470   0.541   4.348   8.964  1.1813 -1.1505 -0.0060
  179SLPC  C21720471   0.354   4.252   9.031 -0.0697  0.5913  0.0632
  179SLPC  H17R20472   0.323   4.210   8.933 -2.9094  1.5177  0.5228
  179SLPC  H17S20473   0.307   4.351   9.048 -0.2810  0.8946 -2.0632
  179SLPC  C21820474   0.305   4.161   9.140 -0.1287  0.0095  0.1919
  179SLPC  H18R20475   0.195   4.147   9.127 -0.3448  0.0032  1.9034
  179SLPC  H18S20476   0.319   4.205   9.241  0.3809  0.3451 -0.0259
  179SLPC  H18T20477   0.357   4.064   9.127  0.1890  0.6206 -3.6540
  179SLPC   C3320478   1.917   3.826   9.681  0.2235 -0.0799 -0.1034
  179SLPC   H3X20479   1.927   3.760   9.592  2.6612  0.1972 -0.0882
  179SLPC   H3Y20480   2.020   3.854   9.713  0.7085 -2.5146  0.5909
  179SLPC   C3420481   1.842   3.944   9.620 -0.7922 -0.4893 -0.0687
  179SLPC   H4X20482   1.826   4.027   9.692  1.3898  0.1561 -0.2984
  179SLPC   H4Y20483   1.744   3.905   9.587 -0.1012 -1.0090 -1.5270
  179SLPC   C3520484   1.923   3.998   9.506 -0.4681  0.4980 -0.6820
  179SLPC   H5X20485   1.933   3.907   9.443 -2.0765 -0.5191  0.4896
  179SLPC   H5Y20486   2.021   4.026   9.550  0.6426 -3.0037 -0.8277
  179SLPC   C3620487   1.865   4.111   9.427  0.3564 -0.0527  0.0815
  179SLPC   H6X20488   1.820   4.199   9.478  1.2019  0.0053  0.7387
  179SLPC   H6Y20489   1.776   4.059   9.385 -1.2939  1.6109  1.4400
  179SLPC   C3720490   1.954   4.159   9.305  0.4431 -0.0215  0.7432
  179SLPC   H7X20491   1.998   4.060   9.278 -0.0846  0.0288 -0.3323
  179SLPC   H7Y20492   2.037   4.221   9.345 -1.1647  1.1062  2.3359
  179SLPC   C3820493   1.870   4.204   9.187 -0.3219  0.2758 -0.1979
  179SLPC   H8X20494   1.814   4.295   9.218 -2.3663 -0.5382 -1.4242
  179SLPC   H8Y20495   1.798   4.129   9.147 -0.2999  0.6481 -0.9476
  179SLPC   C3920496   1.951   4.232   9.061  0.1925 -0.6968  0.6959
  179SLPC   H9X20497   2.030   4.308   9.077 -1.0278  0.6274  0.5447
  179SLPC   H9Y20498   1.889   4.267   8.975 -0.1181 -1.7125  0.4999
  179SLPC  C31020499   2.018   4.105   9.008 -0.4394  0.4014  0.4038
  179SLPC  H10X20500   2.068   4.050   9.091 -2.8947 -0.5074  1.3371
  179SLPC  H10Y20501   2.093   4.143   8.935  0.2000 -0.5262  0.5634
  179SLPC  C31120502   1.937   3.999   8.939 -0.2350  0.3808 -0.2775
  179SLPC  H11X20503   1.852   3.990   9.011  1.6501  0.4409  2.0046
  179SLPC  H11Y20504   1.999   3.907   8.931  0.8894  0.9740  1.4268
  179SLPC  C31220505   1.885   4.031   8.796 -0.1941  0.6549  0.3260
  179SLPC  H12X20506   1.880   4.141   8.784  0.4322  0.3301 -3.2175
  179SLPC  H12Y20507   1.780   3.995   8.791 -0.0643  0.2094  0.7549
  179SLPC  C31320508   1.976   3.969   8.693 -0.3642 -0.1371  0.3279
  179SLPC  H13X20509   1.951   3.861   8.701  1.0456 -0.5557 -0.6920
  179SLPC  H13Y20510   2.079   3.985   8.732 -0.6871 -0.9150  1.5290
  179SLPC  C31420511   1.959   4.021   8.551  0.0028  0.4833  0.5470
  179SLPC  H14X20512   2.026   3.975   8.475  0.8230  0.1326  1.4678
  179SLPC  H14Y20513   1.993   4.127   8.550 -1.4946  0.9641 -1.3594
  179SLPC  C31520514   1.816   4.028   8.489 -0.4450 -0.1470  0.0056
  179SLPC  H15X20515   1.832   4.090   8.398  0.4473 -0.6278 -0.1676
  179SLPC  H15Y20516   1.749   4.069   8.567  0.1915 -1.2317  1.1241
  179SLPC  C31620517   1.771   3.893   8.436  0.7217  0.8641 -0.0098
  179SLPC  H16X20518   1.772   3.818   8.517 -0.8825  0.8201 -0.0179
  179SLPC  H16Y20519   1.849   3.862   8.363 -0.8410 -1.8240 -0.6183
  179SLPC  C31720520   1.638   3.911   8.375  0.1391  0.0319 -0.2374
  179SLPC  H17X20521   1.578   3.958   8.455 -0.2432 -0.7627 -0.0543
  179SLPC  H17Y20522   1.593   3.812   8.352 -0.6767  0.4398 -0.4073
  179SLPC  C31820523   1.635   3.977   8.232  0.6564  0.3414  0.5106
  179SLPC  H18X20524   1.665   4.084   8.225  2.0064 -0.1143 -0.9657
  179SLPC  H18Y20525   1.527   3.966   8.207  0.6606 -0.0618  0.6747
  179SLPC  H18Z20526   1.690   3.911   8.162  0.0731  0.4230 -0.0213
  180SLPC     N20527   3.132   1.835  11.040 -0.4504 -0.1567 -0.3201
  180SLPC   C1320528   3.202   1.838  11.169 -0.0914  0.0189 -0.4737
  180SLPC  H13A20529   3.306   1.812  11.159 -0.1394 -0.5457  0.4139
  180SLPC  H13B20530   3.207   1.939  11.208  0.5013  0.0533 -0.6454
  180SLPC  H13C20531   3.159   1.775  11.246  0.5939  0.7884  0.5668
  180SLPC   C1420532   2.999   1.901  11.069  0.3044 -0.1562  0.8015
  180SLPC  H14A20533   2.957   1.834  11.144 -0.2750  2.2453  2.6747
  180SLPC  H14B20534   2.999   2.000  11.112  0.4620  1.4106 -2.7182
  180SLPC  H14C20535   2.938   1.898  10.980 -2.5593  0.7019  2.6501
  180SLPC   C1520536   3.114   1.695  10.993  0.3296 -0.0828 -0.2291
  180SLPC  H15A20537   3.212   1.653  10.974  0.0953 -0.1415 -1.3013
  180SLPC  H15B20538   3.068   1.623  11.059  0.4180 -3.1924 -3.4261
  180SLPC  H15C20539   3.067   1.680  10.897 -2.3705  1.2276  0.8383
  180SLPC   C1220540   3.214   1.909  10.936 -0.2035  0.1864 -0.0490
  180SLPC  H12A20541   3.174   1.906  10.836 -0.4229  0.3516  0.0340
  180SLPC  H12B20542   3.307   1.856  10.923 -0.4340 -0.2594  0.0921
  180SLPC   C1120543   3.230   2.060  10.961  0.9230 -0.3180 -0.4572
  180SLPC  H11A20544   3.312   2.098  10.898  0.8037 -0.7921 -0.8967
  180SLPC  H11B20545   3.258   2.079  11.067  1.7615  0.4213 -0.8142
  180SLPC     P20546   3.065   2.170  10.796  0.1472  0.1573 -0.0107
  180SLPC   O1320547   3.009   2.307  10.792  0.2410  0.7023 -0.6438
  180SLPC   O1420548   3.164   2.137  10.697  0.1654 -0.4077  0.7706
  180SLPC   O1220549   3.109   2.130  10.934  0.1649  0.5533 -0.3153
  180SLPC   O1120550   2.946   2.066  10.773  0.0122 -0.1307  0.3674
  180SLPC    C120551   2.943   1.948  10.695 -0.5100  0.2082 -0.4095
  180SLPC    HA20552   3.043   1.900  10.705 -0.0770  0.8245 -1.5797
  180SLPC    HB20553   2.867   1.880  10.737  0.7611 -0.3461  1.0386
  180SLPC    C220554   2.923   1.974  10.550  0.3150 -0.5432  1.1335
  180SLPC    HS20555   2.997   2.049  10.517 -0.8267  0.4176  0.7150
  180SLPC   O2120556   2.792   2.039  10.546  0.2951 -0.7884  0.3876
  180SLPC   C2120557   2.778   2.135  10.458  0.3725 -0.5888  0.1201
  180SLPC   O2220558   2.862   2.177  10.378  0.1262  0.4599  0.0166
  180SLPC   C2220559   2.649   2.203  10.488 -0.2624 -0.0203  0.0036
  180SLPC   H2R20560   2.605   2.158  10.580 -0.5741 -1.4763 -0.8443
  180SLPC   H2S20561   2.658   2.314  10.500  2.1223  0.2300 -3.3979
  180SLPC    C320562   2.920   1.847  10.455  0.0456  0.0045  0.2689
  180SLPC    HX20563   2.850   1.776  10.505  0.3707  1.2936  2.6148
  180SLPC    HY20564   3.028   1.819  10.455 -0.1837 -0.9042  0.0270
  180SLPC   O3120565   2.879   1.876  10.317  0.5407 -0.4387 -0.0757
  180SLPC   C3120566   2.971   1.938  10.237  0.2041  0.3896  0.7797
  180SLPC   O3220567   3.083   1.963  10.273 -0.0885  0.6247  0.3743
  180SLPC   C3220568   2.913   1.948  10.096  0.4894  0.0536  0.1152
  180SLPC   H2X20569   2.844   2.034  10.080  0.4034 -0.1505 -0.6536
  180SLPC   H2Y20570   2.852   1.856  10.082  2.1330 -0.7168 -2.3228
  180SLPC   C2320571   2.533   2.181  10.382 -0.1230 -0.5889 -0.0315
  180SLPC   H3R20572   2.437   2.198  10.436 -0.6052 -1.1170 -0.7214
  180SLPC   H3S20573   2.533   2.077  10.346 -0.0460 -0.4505 -0.4254
  180SLPC   C2420574   2.525   2.294  10.275 -0.1602  0.1571 -1.2933
  180SLPC   H4R20575   2.624   2.306  10.226 -0.7045  2.4922 -1.9190
  180SLPC   H4S20576   2.506   2.388  10.333 -0.1115  0.3439 -1.5806
  180SLPC   C2520577   2.419   2.284  10.163 -0.2926  0.0664 -0.3130
  180SLPC   H5R20578   2.327   2.326  10.209 -0.6068 -0.5505 -0.3688
  180SLPC   H5S20579   2.399   2.176  10.148 -2.3510  0.3432  0.1867
  180SLPC   C2620580   2.453   2.362  10.036 -0.7381 -0.7071 -0.4141
  180SLPC   H6R20581   2.549   2.329   9.991  0.5879  0.5997  1.3876
  180SLPC   H6S20582   2.469   2.469  10.061 -0.1065 -0.7416 -0.6716
  180SLPC   C2720583   2.333   2.367   9.937  0.5937  0.9261  0.1639
  180SLPC   H7R20584   2.247   2.417   9.985  0.0960  0.6331 -0.4164
  180SLPC   H7S20585   2.305   2.260   9.929 -0.4026  1.1973 -0.0130
  180SLPC   C2820586   2.362   2.417   9.787 -0.0484 -0.8667 -0.9060
  180SLPC   H8R20587   2.452   2.364   9.748  1.2493  0.3461  0.3407
  180SLPC   H8S20588   2.405   2.518   9.805  0.4688 -1.6893  3.0902
  180SLPC   C2920589   2.239   2.422   9.706  0.2564 -0.1194 -0.5304
  180SLPC   H9R20590   2.144   2.411   9.760 -0.3453 -0.0974 -1.5816
  180SLPC  C21020591   2.239   2.423   9.571  0.3509 -0.5289  0.6559
  180SLPC  H10R20592   2.143   2.419   9.518 -0.5159  1.5204  1.9733
  180SLPC  C21120593   2.351   2.435   9.474  0.0524  0.3619  0.5360
  180SLPC  H11R20594   2.446   2.414   9.529  0.7540  2.4187  0.1695
  180SLPC  H11S20595   2.360   2.543   9.448 -1.5050  0.7217  1.4507
  180SLPC  C21220596   2.354   2.330   9.363 -0.6117 -0.0187 -0.2846
  180SLPC  H12R20597   2.373   2.229   9.402  1.9329  0.8412  0.8059
  180SLPC  C21320598   2.340   2.348   9.228 -0.2466 -0.2489 -0.5384
  180SLPC  H13R20599   2.354   2.260   9.163  0.4817 -0.0667 -0.6276
  180SLPC  C21420600   2.327   2.479   9.154  0.3379 -0.3445 -0.9301
  180SLPC  H14R20601   2.366   2.559   9.221  2.2087 -1.6945 -0.3571
  180SLPC  H14S20602   2.221   2.507   9.136  0.6369  0.6525 -1.2115
  180SLPC  C21520603   2.401   2.491   9.019 -0.0139  0.2981 -0.2776
  180SLPC  H15R20604   2.500   2.443   9.029 -0.5868 -1.2150 -1.6057
  180SLPC  H15S20605   2.415   2.598   8.991  2.1182  0.4803  1.3320
  180SLPC  C21620606   2.339   2.413   8.898  0.4124  0.5348 -0.1005
  180SLPC  H16R20607   2.230   2.427   8.885  0.4950  1.3059  0.0202
  180SLPC  H16S20608   2.343   2.303   8.915 -2.7025  0.4404  0.1903
  180SLPC  C21720609   2.416   2.427   8.761 -0.1013  0.2655  0.1719
  180SLPC  H17R20610   2.523   2.401   8.775  0.3097  1.3210 -0.9291
  180SLPC  H17S20611   2.407   2.531   8.723 -2.7221 -0.7344 -2.1617
  180SLPC  C21820612   2.360   2.323   8.658 -0.0055  0.0275 -0.9629
  180SLPC  H18R20613   2.255   2.353   8.640 -0.6334 -2.1137 -1.0168
  180SLPC  H18S20614   2.359   2.217   8.692 -2.2286 -0.1889 -1.6113
  180SLPC  H18T20615   2.419   2.324   8.564  1.1206  2.2821 -0.2678
  180SLPC   C3320616   3.019   1.954   9.984 -0.1472 -0.5400 -0.1672
  180SLPC   H3X20617   3.092   1.871   9.992  1.0352  0.7338  3.1165
  180SLPC   H3Y20618   3.077   2.048  10.000  0.1852 -0.4686 -1.7506
  180SLPC   C3420619   2.970   1.981   9.840  0.4845 -0.4774 -0.1749
  180SLPC   H4X20620   2.901   2.068   9.846  0.8592 -0.1119 -1.0105
  180SLPC   H4Y20621   2.912   1.893   9.806  0.7245 -0.5501 -0.4028
  180SLPC   C3520622   3.083   1.996   9.741  0.0739  0.2200 -0.3082
  180SLPC   H5X20623   3.162   1.919   9.750  0.3851  0.5678 -0.0797
  180SLPC   H5Y20624   3.137   2.089   9.769  2.6995 -1.7574  1.3166
  180SLPC   C3620625   3.042   2.026   9.595 -0.0502  0.2099 -0.3600
  180SLPC   H6X20626   3.138   2.067   9.558 -0.7718  2.1425 -0.1621
  180SLPC   H6Y20627   2.964   2.105   9.589  0.5141  0.5687 -4.7461
  180SLPC   C3720628   3.004   1.910   9.511 -0.2020  0.1486 -0.1422
  180SLPC   H7X20629   2.911   1.860   9.546  1.5948 -2.2858  1.3366
  180SLPC   H7Y20630   3.090   1.842   9.529 -0.2694  0.3465  0.9584
  180SLPC   C3820631   2.980   1.931   9.363  0.7158 -0.5613 -0.2782
  180SLPC   H8X20632   2.874   1.963   9.352  0.5683 -1.0763 -0.3932
  180SLPC   H8Y20633   2.977   1.830   9.317 -0.2502 -1.2059  1.1710
  180SLPC   C3920634   3.063   2.043   9.297  0.2901 -0.4161  0.4441
  180SLPC   H9X20635   3.173   2.028   9.289  0.5009 -0.0738  2.4941
  180SLPC   H9Y20636   3.063   2.137   9.358 -0.6253 -1.5775  2.2747
  180SLPC  C31020637   3.019   2.068   9.153 -0.3444  0.0435 -0.4369
  180SLPC  H10X20638   3.094   2.143   9.119 -2.7770  3.3727  1.1967
  180SLPC  H10Y20639   2.923   2.125   9.162 -0.6889 -0.8206  1.4935
  180SLPC  C31120640   2.999   1.954   9.050 -0.1097  0.1125 -0.5686
  180SLPC  H11X20641   2.984   1.856   9.099  0.5531  1.3573  2.2079
  180SLPC  H11Y20642   3.089   1.944   8.985  0.6022 -0.0326  0.4217
  180SLPC  C31220643   2.886   1.958   8.946  0.1503 -0.5961  0.5772
  180SLPC  H12X20644   2.792   1.964   9.006  0.5237  2.0724  0.9632
  180SLPC  H12Y20645   2.877   1.870   8.879 -2.1014 -0.2847  0.4091
  180SLPC  C31320646   2.897   2.083   8.850  0.1594  1.2499  0.9105
  180SLPC  H13X20647   3.002   2.102   8.818  0.1302  1.5567  1.0017
  180SLPC  H13Y20648   2.875   2.168   8.918 -0.8941 -0.1400  2.3228
  180SLPC  C31420649   2.804   2.083   8.734  0.1641  0.0536 -0.0959
  180SLPC  H14X20650   2.707   2.049   8.776 -0.0604  1.9345  0.9556
  180SLPC  H14Y20651   2.841   2.014   8.655 -1.7767 -1.2355  0.0663
  180SLPC  C31520652   2.768   2.219   8.675  0.0231  0.0145 -0.4161
  180SLPC  H15X20653   2.772   2.284   8.765 -0.7963  0.0842 -0.4337
  180SLPC  H15Y20654   2.669   2.216   8.625  0.3359  0.1693 -1.0460
  180SLPC  C31620655   2.863   2.255   8.558  0.3793  1.0353  0.1979
  180SLPC  H16X20656   2.833   2.346   8.502 -0.6173  0.2338 -0.6007
  180SLPC  H16Y20657   2.852   2.171   8.486  4.9908 -0.0472  0.6388
  180SLPC  C31720658   3.017   2.276   8.587 -0.1308 -0.0382  0.0067
  180SLPC  H17X20659   3.057   2.172   8.596 -1.5851 -0.6495 -0.3919
  180SLPC  H17Y20660   3.036   2.317   8.689 -1.5878  0.0587  0.2616
  180SLPC  C31820661   3.106   2.346   8.488 -0.1256  0.0585 -0.3090
  180SLPC  H18X20662   3.111   2.295   8.389  1.9862 -1.4082  0.5177
  180SLPC  H18Y20663   3.213   2.341   8.516 -0.5373 -0.2252  1.3098
  180SLPC  H18Z20664   3.087   2.455   8.485  2.3743  0.5240  0.1520
  181SLPC     N20665   6.704   5.851  11.103  0.2519 -0.6560  0.1538
  181SLPC   C1320666   6.765   5.833  10.970  0.3677  0.3745  0.5450
  181SLPC  H13A20667   6.788   5.931  10.932  0.3537  0.1730  0.0034
  181SLPC  H13B20668   6.849   5.765  10.969  0.5527  0.6061 -0.5579
  181SLPC  H13C20669   6.702   5.785  10.896  1.2073  1.0515 -0.6174
  181SLPC   C1420670   6.808   5.904  11.198  0.0204 -0.6128 -0.0447
  181SLPC  H14A20671   6.886   5.830  11.200 -0.6907 -1.3839 -0.5627
  181SLPC  H14B20672   6.855   5.994  11.161  0.3283 -1.2747 -1.2492
  181SLPC  H14C20673   6.768   5.915  11.298 -1.7800  1.3523 -0.9316
  181SLPC   C1520674   6.654   5.727  11.166  0.4747 -0.2752 -0.5133
  181SLPC  H15A20675   6.565   5.696  11.114  0.2818 -1.4157  0.4563
  181SLPC  H15B20676   6.730   5.650  11.166  0.5490 -0.2049 -0.0581
  181SLPC  H15C20677   6.629   5.737  11.271  0.2276 -0.6891 -0.5288
  181SLPC   C1220678   6.585   5.958  11.095 -0.0935 -0.5606  0.5042
  181SLPC  H12A20679   6.617   6.057  11.068  0.2037 -0.5435  0.9175
  181SLPC  H12B20680   6.543   5.966  11.194  3.7746 -0.4298  2.2265
  181SLPC   C1120681   6.462   5.919  11.010 -0.7588  0.5704  0.0912
  181SLPC  H11A20682   6.498   5.897  10.907 -2.4308 -0.8997 -0.2191
  181SLPC  H11B20683   6.388   6.002  11.003 -1.7537 -0.2847  0.2923
  181SLPC     P20684   6.313   5.707  10.976 -0.5307  0.0198 -0.1986
  181SLPC   O1320685   6.400   5.624  10.893 -0.9190 -0.6534 -0.4777
  181SLPC   O1420686   6.227   5.633  11.067  0.3513  0.6317  0.2346
  181SLPC   O1220687   6.393   5.807  11.068 -0.4647  0.0552 -0.5317
  181SLPC   O1120688   6.230   5.805  10.892 -0.4861  0.3975 -0.3479
  181SLPC    C120689   6.213   5.803  10.750  0.8439 -0.1546 -0.0873
  181SLPC    HA20690   6.297   5.759  10.693  0.4928  0.1024 -0.8180
  181SLPC    HB20691   6.124   5.742  10.725 -0.0592  1.0987 -0.0064
  181SLPC    C220692   6.176   5.945  10.704  0.0203 -0.8502  0.2109
  181SLPC    HS20693   6.132   6.006  10.786 -2.3194  0.8693 -2.2247
  181SLPC   O2120694   6.085   5.939  10.590  0.0082  0.1361 -0.1352
  181SLPC   C2120695   6.005   6.050  10.575 -0.0596 -0.2938  0.5267
  181SLPC   O2220696   6.001   6.142  10.652  0.2654 -0.3527  0.2755
  181SLPC   C2220697   5.906   6.030  10.468 -0.3016 -0.1189 -0.6509
  181SLPC   H2R20698   5.911   5.924  10.435 -0.8705 -0.1315 -0.7010
  181SLPC   H2S20699   5.808   6.044  10.518  0.2092 -1.3965  0.7702
  181SLPC    C320700   6.304   6.011  10.653 -0.1479 -0.0979 -0.1094
  181SLPC    HX20701   6.345   5.934  10.585  0.2498 -0.8805  0.9948
  181SLPC    HY20702   6.374   6.013  10.739 -0.3207  0.2834  0.0245
  181SLPC   O3120703   6.292   6.130  10.575 -0.0027 -0.1062 -0.2029
  181SLPC   C3120704   6.348   6.233  10.632 -0.6233  0.0744  0.2986
  181SLPC   O3220705   6.386   6.243  10.747 -0.2434  0.1353  0.1469
  181SLPC   C3220706   6.362   6.341  10.527  0.5610  0.6471 -0.1644
  181SLPC   H2X20707   6.361   6.433  10.588 -1.4660 -0.0433  0.8926
  181SLPC   H2Y20708   6.271   6.340  10.463  0.5228  2.2602 -0.1421
  181SLPC   C2320709   5.948   6.127  10.360  0.5172  0.6389  0.0250
  181SLPC   H3R20710   5.948   6.233  10.394 -2.1621  0.8125 -0.4593
  181SLPC   H3S20711   5.886   6.113  10.269  2.8464 -3.1017 -1.1217
  181SLPC   C2420712   6.096   6.104  10.300  0.0493 -0.1207  0.0704
  181SLPC   H4R20713   6.178   6.103  10.375  2.6516 -1.5433 -2.6895
  181SLPC   H4S20714   6.119   6.200  10.248 -1.0069  1.2438  2.0565
  181SLPC   C2520715   6.104   5.994  10.192 -0.3242  0.4525  0.7696
  181SLPC   H5R20716   6.043   6.025  10.104 -1.6803  1.3325  2.0095
  181SLPC   H5S20717   6.078   5.894  10.232 -0.5345  0.2664  0.1784
  181SLPC   C2620718   6.250   5.986  10.133 -0.0530  0.2983  0.3598
  181SLPC   H6R20719   6.311   5.972  10.224  0.7482 -1.7835 -0.4554
  181SLPC   H6S20720   6.282   6.081  10.086 -0.3840 -0.1222 -0.7547
  181SLPC   C2720721   6.253   5.865  10.036 -0.6224 -1.2274  0.2291
  181SLPC   H7R20722   6.170   5.867   9.962 -0.4457  0.8340  0.0344
  181SLPC   H7S20723   6.250   5.770  10.093 -0.5594 -0.0096  2.2984
  181SLPC   C2820724   6.387   5.870   9.945 -0.3119 -0.4262 -0.1671
  181SLPC   H8R20725   6.376   5.788   9.871  2.4109 -1.7782  0.8849
  181SLPC   H8S20726   6.474   5.848  10.010  0.0589 -1.8867 -1.1499
  181SLPC   C2920727   6.399   6.004   9.874 -0.6275 -0.2713  0.5591
  181SLPC   H9R20728   6.459   6.081   9.924  0.0290 -0.5128  0.1559
  181SLPC  C21020729   6.355   6.037   9.751  0.1684 -0.5231 -0.5952
  181SLPC  H10R20730   6.373   6.138   9.714 -0.5599  0.7689  2.4178
  181SLPC  C21120731   6.284   5.944   9.655  0.1046 -0.9778  0.0770
  181SLPC  H11R20732   6.215   6.006   9.593  0.5377 -1.3662 -0.8043
  181SLPC  H11S20733   6.210   5.881   9.709 -1.2358  1.4075  1.0760
  181SLPC  C21220734   6.367   5.856   9.567 -0.2925 -0.3443 -0.2977
  181SLPC  H12R20735   6.448   5.799   9.616  1.2852  1.1953 -1.0451
  181SLPC  C21320736   6.330   5.824   9.446 -0.0435  0.9868  0.1403
  181SLPC  H13R20737   6.396   5.763   9.382  0.2335 -0.6777  1.9402
  181SLPC  C21420738   6.210   5.876   9.368 -1.0542 -0.5226 -0.3022
  181SLPC  H14R20739   6.112   5.870   9.419 -1.7377  1.7920 -1.3034
  181SLPC  H14S20740   6.209   5.797   9.289 -0.3155 -1.1272  0.2829
  181SLPC  C21520741   6.229   6.014   9.296  0.1173 -0.1748 -0.2107
  181SLPC  H15R20742   6.330   6.015   9.250  1.3868  1.5941  2.4762
  181SLPC  H15S20743   6.222   6.086   9.381  2.0530 -0.7343  0.4675
  181SLPC  C21620744   6.122   6.052   9.191 -0.4763 -0.2690 -0.5723
  181SLPC  H16R20745   6.104   6.161   9.199 -0.8419 -0.4910  1.6970
  181SLPC  H16S20746   6.018   6.022   9.211 -0.6284 -0.6577 -1.8581
  181SLPC  C21720747   6.159   6.036   9.038 -0.1250  0.2877  0.0994
  181SLPC  H17R20748   6.078   6.089   8.983  0.6832  2.3090  0.8185
  181SLPC  H17S20749   6.148   5.928   9.014 -1.6316  0.2697  0.7724
  181SLPC  C21820750   6.292   6.086   8.988 -0.5442  0.2516 -0.4973
  181SLPC  H18R20751   6.374   6.025   9.031 -1.0951  1.3184  2.1459
  181SLPC  H18S20752   6.299   6.193   9.016  2.1197 -0.3355  1.2616
  181SLPC  H18T20753   6.295   6.085   8.877 -2.6971 -0.0390 -0.5743
  181SLPC   C3320754   6.484   6.337  10.438 -0.2765  0.7523 -0.4779
  181SLPC   H3X20755   6.485   6.246  10.376 -0.2489  0.9739 -0.8014
  181SLPC   H3Y20756   6.575   6.322  10.500  0.4106 -2.6842 -2.2065
  181SLPC   C3420757   6.495   6.465  10.351  0.6067 -0.2911 -0.3949
  181SLPC   H4X20758   6.571   6.446  10.272  0.8654 -0.9898  0.0165
  181SLPC   H4Y20759   6.536   6.548  10.413  3.0636  1.1871 -3.8050
  181SLPC   C3520760   6.368   6.518  10.272 -0.3338 -0.1169  0.3563
  181SLPC   H5X20761   6.385   6.613  10.218  0.0235 -0.2680  0.2033
  181SLPC   H5Y20762   6.290   6.546  10.346 -0.8210  1.8180 -0.8755
  181SLPC   C3620763   6.304   6.421  10.170  0.0216 -0.8194  0.6075
  181SLPC   H6X20764   6.204   6.462  10.146 -1.3301 -2.6446  2.8562
  181SLPC   H6Y20765   6.271   6.327  10.220  2.4111 -0.5657  2.7456
  181SLPC   C3720766   6.396   6.387  10.056 -0.0571 -0.0247  0.5965
  181SLPC   H7X20767   6.474   6.313  10.083 -0.7697 -1.1674 -0.4563
  181SLPC   H7Y20768   6.434   6.490  10.036  0.5395  0.4095  3.6576
  181SLPC   C3820769   6.330   6.333   9.927 -0.1297 -0.2977 -0.1986
  181SLPC   H8X20770   6.292   6.229   9.943  3.3809 -1.5743  0.4085
  181SLPC   H8Y20771   6.408   6.333   9.848  1.7663  1.1697  1.6420
  181SLPC   C3920772   6.214   6.415   9.869 -0.7056 -0.3415  0.2037
  181SLPC   H9X20773   6.230   6.524   9.859  1.2658 -0.4426  1.7880
  181SLPC   H9Y20774   6.126   6.410   9.937 -0.4332 -0.0003  0.5850
  181SLPC  C31020775   6.170   6.366   9.730  0.1454  0.0730 -0.4000
  181SLPC  H10X20776   6.163   6.255   9.726 -0.8518  0.1065  0.2477
  181SLPC  H10Y20777   6.254   6.398   9.664  0.1936  0.5937 -0.0921
  181SLPC  C31120778   6.041   6.440   9.685 -0.4982 -0.2277 -0.0773
  181SLPC  H11X20779   6.035   6.546   9.716 -1.2439 -0.0469 -0.8242
  181SLPC  H11Y20780   5.958   6.383   9.734 -0.5527  0.2233  0.3586
  181SLPC  C31220781   6.003   6.443   9.535 -0.3745  0.4092  0.4398
  181SLPC  H12X20782   6.006   6.338   9.499 -2.0124  0.9367 -1.2925
  181SLPC  H12Y20783   6.081   6.491   9.471  0.2603  0.7212  1.4396
  181SLPC  C31320784   5.866   6.499   9.512  0.4238  0.2059  0.1578
  181SLPC  H13X20785   5.860   6.607   9.539  0.9452  0.7265 -1.7594
  181SLPC  H13Y20786   5.802   6.449   9.589 -0.5834  0.4666 -0.4942
  181SLPC  C31420787   5.810   6.470   9.374  0.2783  0.5527  0.4186
  181SLPC  H14X20788   5.848   6.376   9.329 -0.2356  0.9026 -0.7702
  181SLPC  H14Y20789   5.837   6.561   9.317 -0.3093  2.6086  3.2987
  181SLPC  C31520790   5.657   6.474   9.387  0.1209  0.4328  0.3036
  181SLPC  H15X20791   5.616   6.577   9.401  0.5285  0.5825  0.4069
  181SLPC  H15Y20792   5.619   6.408   9.468 -0.6548  1.8654  1.1357
  181SLPC  C31620793   5.591   6.420   9.258  0.0194  0.3199  0.4626
  181SLPC  H16X20794   5.486   6.387   9.268 -1.1350  3.5795 -0.4026
  181SLPC  H16Y20795   5.635   6.322   9.228 -2.2802 -0.2485 -1.2005
  181SLPC  C31720796   5.589   6.516   9.138  0.0024 -0.4400 -0.0087
  181SLPC  H17X20797   5.691   6.557   9.118  0.0661 -0.4910  0.2110
  181SLPC  H17Y20798   5.521   6.601   9.160  2.6407  1.0672  2.8440
  181SLPC  C31820799   5.528   6.442   9.018 -0.8281 -1.0122  0.6225
  181SLPC  H18X20800   5.566   6.493   8.927  0.7773 -1.0376  1.2500
  181SLPC  H18Y20801   5.417   6.438   9.026 -0.8456 -0.9294  0.4209
  181SLPC  H18Z20802   5.562   6.336   9.010 -1.5834 -1.0030 -4.4965
  182SLPC     N20803   4.567   6.364  10.858  0.1853 -0.3621  0.1078
  182SLPC   C1320804   4.605   6.348  10.997 -0.1488  0.5050  0.1506
  182SLPC  H13A20805   4.702   6.388  11.023 -1.1755  0.8193  3.8110
  182SLPC  H13B20806   4.540   6.400  11.066  1.3287  1.3790  0.9145
  182SLPC  H13C20807   4.615   6.244  11.022  0.5068  0.1994 -1.3080
  182SLPC   C1420808   4.424   6.304  10.858 -0.2919 -0.1575 -0.5758
  182SLPC  H14A20809   4.353   6.361  10.915 -0.0217  0.5583 -0.9569
  182SLPC  H14B20810   4.389   6.315  10.756  0.4541  0.4357 -0.7762
  182SLPC  H14C20811   4.423   6.196  10.868  1.7641 -0.3162 -1.7343
  182SLPC   C1520812   4.655   6.285  10.776  1.0290  0.3673  0.1913
  182SLPC  H15A20813   4.760   6.304  10.789  1.3687 -1.8510  0.8544
  182SLPC  H15B20814   4.647   6.180  10.799 -0.1690  0.5422  0.6262
  182SLPC  H15C20815   4.624   6.290  10.673 -0.2231  0.8830  0.5833
  182SLPC   C1220816   4.567   6.506  10.809  0.3833  0.4919  0.7564
  182SLPC  H12A20817   4.670   6.536  10.801  0.6596 -0.4912  0.4610
  182SLPC  H12B20818   4.521   6.568  10.884  0.6781  0.0307  1.3280
  182SLPC   C1120819   4.490   6.539  10.674  0.6216 -0.7312  0.2416
  182SLPC  H11A20820   4.523   6.484  10.584 -0.8457  0.2175 -0.8974
  182SLPC  H11B20821   4.518   6.644  10.653  0.8848 -0.8074  0.2084
  182SLPC     P20822   4.262   6.634  10.772 -0.1256  0.0824 -0.0561
  182SLPC   O1320823   4.130   6.569  10.794 -0.2645  0.0035 -0.1474
  182SLPC   O1420824   4.338   6.682  10.888 -0.0006  0.1002 -0.4638
  182SLPC   O1220825   4.350   6.531  10.689  0.2971  0.2339  0.2031
  182SLPC   O1120826   4.244   6.749  10.664 -0.3861  0.0901  0.2387
  182SLPC    C120827   4.256   6.740  10.523 -0.2836  0.2907 -0.6398
  182SLPC    HA20828   4.309   6.832  10.490  1.6391  0.1302  1.8765
  182SLPC    HB20829   4.334   6.664  10.500  1.3460  1.5282  0.7573
  182SLPC    C220830   4.122   6.725  10.440 -0.0635  0.1235 -0.2150
  182SLPC    HS20831   4.084   6.633  10.489 -0.8340  0.8522  0.5702
  182SLPC   O2120832   4.156   6.698  10.302 -0.2986  0.3569 -0.4207
  182SLPC   C2120833   4.048   6.644  10.246  0.6154 -0.1007 -0.7103
  182SLPC   O2220834   3.948   6.607  10.303 -0.2643  0.2186  0.1751
  182SLPC   C2220835   4.071   6.636  10.095  0.1575  0.5873 -0.8098
  182SLPC   H2R20836   4.144   6.711  10.057 -0.2144  0.2465 -2.2199
  182SLPC   H2S20837   4.099   6.533  10.065 -0.8068 -0.6335  2.2423
  182SLPC    C320838   4.027   6.846  10.473 -0.3151 -0.1445 -0.2779
  182SLPC    HX20839   4.021   6.845  10.584 -0.0757 -0.4157 -0.2692
  182SLPC    HY20840   3.927   6.822  10.431 -0.3332 -1.0939  0.2926
  182SLPC   O3120841   4.079   6.978  10.435  0.2113  0.2140 -0.0006
  182SLPC   C3120842   4.040   7.020  10.318 -0.5356  0.1946  0.1729
  182SLPC   O3220843   3.962   6.961  10.242  0.2062  0.2403  0.2038
  182SLPC   C3220844   4.121   7.141  10.274 -0.0931 -0.2929 -0.3102
  182SLPC   H2X20845   4.231   7.126  10.274 -0.1790 -0.9319  0.0609
  182SLPC   H2Y20846   4.096   7.220  10.348  3.0712  0.7492 -0.2549
  182SLPC   C2320847   3.943   6.679  10.018  0.5296  0.2099 -0.9705
  182SLPC   H3R20848   3.914   6.781  10.050 -1.4738 -0.3633 -0.9291
  182SLPC   H3S20849   3.862   6.609  10.046 -0.1347  1.7136  0.9863
  182SLPC   C2420850   3.964   6.687   9.867 -0.5492 -0.1327  0.3770
  182SLPC   H4R20851   4.006   6.588   9.837 -0.1968 -0.2093  1.1000
  182SLPC   H4S20852   4.040   6.759   9.829 -1.4277  2.1822  2.8631
  182SLPC   C2520853   3.837   6.702   9.782 -0.0138 -0.0696 -0.4090
  182SLPC   H5R20854   3.788   6.796   9.817  1.8049  0.3916  0.9303
  182SLPC   H5S20855   3.759   6.624   9.801  0.7280 -0.6136  0.4024
  182SLPC   C2620856   3.871   6.709   9.633 -0.7246  0.4486 -0.5098
  182SLPC   H6R20857   3.782   6.703   9.567 -1.5637  2.1509  0.4350
  182SLPC   H6S20858   3.930   6.616   9.617 -1.7467 -0.5488  1.3531
  182SLPC   C2720859   3.949   6.836   9.612  0.1510  0.1998  0.2131
  182SLPC   H7R20860   4.059   6.830   9.629  0.5912  1.5492 -1.9019
  182SLPC   H7S20861   3.921   6.912   9.687 -1.0756 -1.1066  1.1016
  182SLPC   C2820862   3.922   6.887   9.469  0.4684 -0.4117 -0.1277
  182SLPC   H8R20863   3.963   6.991   9.471  0.7172 -0.5417  2.8468
  182SLPC   H8S20864   3.814   6.875   9.445  0.0421  1.6607  0.6880
  182SLPC   C2920865   4.007   6.818   9.369 -0.3723  0.3155  0.0228
  182SLPC   H9R20866   4.067   6.735   9.409  0.7185  0.6764 -0.8195
  182SLPC  C21020867   4.031   6.847   9.239  0.1995 -0.2451 -0.0544
  182SLPC  H10R20868   4.111   6.792   9.186  0.2349 -0.2720  0.0283
  182SLPC  C21120869   3.969   6.959   9.164 -0.1382 -0.0021 -0.4544
  182SLPC  H11R20870   3.909   7.028   9.227 -1.1059 -1.6909  0.5316
  182SLPC  H11S20871   3.891   6.901   9.110  0.0910 -0.1107 -0.6667
  182SLPC  C21220872   4.067   7.033   9.077 -0.6291  0.2501 -0.2544
  182SLPC  H12R20873   4.162   7.063   9.124 -1.3777  0.5693  1.0856
  182SLPC  C21320874   4.062   7.062   8.946 -0.0664 -0.4412  0.1077
  182SLPC  H13R20875   4.131   7.132   8.897 -0.7862  1.7562  2.1226
  182SLPC  C21420876   3.948   7.021   8.853  0.5813 -0.1061 -0.3166
  182SLPC  H14R20877   3.867   7.093   8.876 -0.2770 -0.7261 -1.3553
  182SLPC  H14S20878   3.911   6.921   8.884  1.0032 -0.0785  0.3017
  182SLPC  C21520879   3.972   7.025   8.701 -0.7291 -1.0772  0.7424
  182SLPC  H15R20880   3.879   7.002   8.643  0.2625 -0.6393 -1.0691
  182SLPC  H15S20881   4.042   6.946   8.667 -0.7887 -0.9286  0.2742
  182SLPC  C21620882   4.027   7.156   8.637 -0.1903 -0.8889  0.1289
  182SLPC  H16R20883   4.033   7.143   8.527  0.1649  2.9397 -0.3717
  182SLPC  H16S20884   4.128   7.182   8.675 -1.2068  0.5278  1.9794
  182SLPC  C21720885   3.938   7.283   8.658 -0.2798 -0.3324 -0.5730
  182SLPC  H17R20886   3.940   7.290   8.769 -0.9813 -1.9522 -0.4430
  182SLPC  H17S20887   3.833   7.266   8.624 -0.4239 -2.2985  0.7989
  182SLPC  C21820888   4.019   7.401   8.606  0.4904  0.1312 -0.4220
  182SLPC  H18R20889   4.032   7.391   8.497 -0.8153  1.9412 -0.7769
  182SLPC  H18S20890   4.120   7.403   8.654  1.5324  0.7757 -2.5566
  182SLPC  H18T20891   3.965   7.495   8.632 -0.1233 -0.6388  1.1713
  182SLPC   C3320892   4.066   7.195  10.140 -0.1337 -0.6057 -0.1029
  182SLPC   H3X20893   4.089   7.303  10.132 -0.0423 -0.6621 -0.6709
  182SLPC   H3Y20894   3.955   7.181  10.139 -0.2051 -0.0983  0.8696
  182SLPC   C3420895   4.137   7.118  10.019 -0.0380  0.7985  0.4842
  182SLPC   H4X20896   4.119   7.010  10.037  3.0013  0.1949  0.1490
  182SLPC   H4Y20897   4.244   7.143  10.033 -0.5212  2.8817  0.6864
  182SLPC   C3520898   4.090   7.159   9.875 -0.2864 -0.5656  0.4233
  182SLPC   H5X20899   4.020   7.245   9.885 -0.0475 -0.2122 -0.8643
  182SLPC   H5Y20900   4.017   7.082   9.843 -0.2710 -1.5410  2.6934
  182SLPC   C3620901   4.199   7.186   9.770  0.4138  0.0809  0.1152
  182SLPC   H6X20902   4.271   7.102   9.774  0.2028 -0.2296 -1.8844
  182SLPC   H6Y20903   4.252   7.281   9.791  0.6645  0.8885 -3.7487
  182SLPC   C3720904   4.144   7.193   9.627 -0.0521  0.0933  0.2228
  182SLPC   H7X20905   4.040   7.232   9.636  0.3638  1.1982  0.3071
  182SLPC   H7Y20906   4.149   7.104   9.560 -3.9757 -0.1663  0.1534
  182SLPC   C3820907   4.222   7.306   9.544 -0.0831  0.5016 -0.8099
  182SLPC   H8X20908   4.328   7.312   9.576 -0.0016  0.8567 -1.1524
  182SLPC   H8Y20909   4.174   7.400   9.578 -2.3205 -0.0635 -2.2795
  182SLPC   C3920910   4.209   7.284   9.393 -0.4336  0.8795  0.5445
  182SLPC   H9X20911   4.102   7.288   9.362 -0.4135 -0.4937  0.2505
  182SLPC   H9Y20912   4.245   7.180   9.379  1.0534  1.1975  1.9000
  182SLPC  C31020913   4.301   7.382   9.316 -0.3810  0.2875 -0.0022
  182SLPC  H10X20914   4.407   7.358   9.341 -0.6117 -0.5712  0.1847
  182SLPC  H10Y20915   4.271   7.484   9.345 -3.7776 -1.5213  3.1475
  182SLPC  C31120916   4.285   7.384   9.164 -0.0346 -0.4558 -0.1090
  182SLPC  H11X20917   4.176   7.395   9.146 -0.0212 -3.0034 -1.9447
  182SLPC  H11Y20918   4.315   7.281   9.138 -0.3122 -0.5790  0.0669
  182SLPC  C31220919   4.376   7.485   9.096  0.1678  0.3883 -0.3970
  182SLPC  H12X20920   4.476   7.497   9.143  1.5057  0.5405 -3.1717
  182SLPC  H12Y20921   4.326   7.584   9.095 -2.4211 -0.8693  0.7434
  182SLPC  C31320922   4.401   7.441   8.954  0.6560  0.7101 -0.5848
  182SLPC  H13X20923   4.308   7.426   8.896  0.3721  2.4474 -0.6270
  182SLPC  H13Y20924   4.465   7.350   8.948 -0.1422  0.2121 -1.4817
  182SLPC  C31420925   4.470   7.548   8.865  0.1127 -0.4903  0.1911
  182SLPC  H14X20926   4.567   7.577   8.912 -0.9379 -0.1685  2.2078
  182SLPC  H14Y20927   4.407   7.638   8.853  1.4188  0.2932 -0.8805
  182SLPC  C31520928   4.495   7.494   8.725  0.2460 -0.1604 -0.1264
  182SLPC  H15X20929   4.404   7.458   8.672  0.1533 -2.8110  1.7443
  182SLPC  H15Y20930   4.572   7.415   8.737  1.9965  1.1736 -2.3104
  182SLPC  C31620931   4.571   7.606   8.643 -0.6682  0.5942  0.3452
  182SLPC  H16X20932   4.674   7.621   8.681 -0.5643 -1.3799  0.9347
  182SLPC  H16Y20933   4.512   7.698   8.662 -3.3322 -1.0400  0.3851
  182SLPC  C31720934   4.579   7.560   8.496  0.0678 -0.5193 -0.4837
  182SLPC  H17X20935   4.595   7.648   8.431 -0.7036 -1.2390 -1.6897
  182SLPC  H17Y20936   4.481   7.522   8.458  0.6275 -2.9169  0.3897
  182SLPC  C31820937   4.679   7.455   8.466 -0.5379  0.1814 -0.1458
  182SLPC  H18X20938   4.660   7.360   8.520 -3.0199 -0.9420 -2.8614
  182SLPC  H18Y20939   4.781   7.495   8.482  0.2106 -1.7905  0.0654
  182SLPC  H18Z20940   4.679   7.427   8.359  2.2221  2.4745 -0.8080
  183SLPC     N20941   5.261   1.942  10.754 -0.5464 -0.2557 -0.3658
  183SLPC   C1320942   5.181   2.031  10.850  0.0434 -0.4406 -0.5147
  183SLPC  H13A20943   5.114   1.970  10.909  0.5623  0.3978  0.9512
  183SLPC  H13B20944   5.246   2.093  10.909 -0.4453 -1.2764  0.9400
  183SLPC  H13C20945   5.124   2.105  10.794  1.1560  0.6369 -0.2464
  183SLPC   C1420946   5.167   1.867  10.660 -0.5370  0.1502  0.3921
  183SLPC  H14A20947   5.221   1.803  10.591  0.0559  0.2519  0.7588
  183SLPC  H14B20948   5.117   1.799  10.727 -0.2938 -0.7354 -0.3013
  183SLPC  H14C20949   5.094   1.933  10.617  1.1990  1.0559 -1.2752
  183SLPC   C1520950   5.345   1.849  10.839  0.4633  0.0559  0.6209
  183SLPC  H15A20951   5.414   1.790  10.781 -0.4237 -2.0157  1.6293
  183SLPC  H15B20952   5.396   1.914  10.909  1.1167 -0.8548  0.9936
  183SLPC  H15C20953   5.279   1.783  10.894 -1.1006  1.0883  0.0255
  183SLPC   C1220954   5.346   2.027  10.670 -0.2281 -0.5035 -0.0411
  183SLPC  H12A20955   5.401   2.095  10.734 -3.8526  2.2320  0.3238
  183SLPC  H12B20956   5.287   2.094  10.609 -0.4787  1.4645  2.2826
  183SLPC   C1120957   5.459   1.974  10.572  0.5918 -0.4658 -0.6844
  183SLPC  H11A20958   5.485   2.061  10.509 -0.3835 -1.8298 -3.0382
  183SLPC  H11B20959   5.405   1.902  10.507 -0.3537  2.0763 -2.8021
  183SLPC     P20960   5.675   2.019  10.704  0.6381  0.5278 -0.5192
  183SLPC   O1320961   5.627   2.158  10.694  0.3468  0.2126 -0.1413
  183SLPC   O1420962   5.711   1.965  10.838 -0.1755  0.0306 -0.3736
  183SLPC   O1220963   5.563   1.909  10.652 -0.0857 -0.6646  0.4798
  183SLPC   O1120964   5.807   1.989  10.619 -0.5693 -0.0800 -0.2655
  183SLPC    C120965   5.821   2.022  10.488  0.1685 -0.1192 -0.7272
  183SLPC    HA20966   5.720   2.037  10.444 -0.8677 -1.0436  1.2681
  183SLPC    HB20967   5.867   2.123  10.492 -0.6101  0.2991 -2.1398
  183SLPC    C220968   5.905   1.922  10.410 -0.9093 -0.3524 -0.0161
  183SLPC    HS20969   5.939   1.977  10.319  0.5099  0.1437  0.7976
  183SLPC   O2120970   5.830   1.799  10.386  0.3618  0.5892  0.4798
  183SLPC   C2120971   5.730   1.813  10.294  0.0145 -0.6084 -0.2095
  183SLPC   O2220972   5.705   1.919  10.238  0.1477 -0.3484 -0.2637
  183SLPC   C2220973   5.662   1.678  10.274 -0.9176 -0.6228 -0.8648
  183SLPC   H2R20974   5.701   1.616  10.357  1.0101  0.2515 -1.0982
  183SLPC   H2S20975   5.559   1.700  10.309 -1.4157 -1.9996 -1.4521
  183SLPC    C320976   6.042   1.887  10.476 -0.0169  0.0780  0.8399
  183SLPC    HX20977   6.029   1.814  10.558 -1.3156 -0.9813 -0.2822
  183SLPC    HY20978   6.085   1.978  10.522  1.2030  0.7327 -1.5033
  183SLPC   O3120979   6.125   1.827  10.373  0.2811 -0.1541  0.5493
  183SLPC   C3120980   6.224   1.897  10.316  0.4152  0.8931 -0.1704
  183SLPC   O3220981   6.255   2.010  10.350 -0.3857  0.5053 -0.2784
  183SLPC   C3220982   6.305   1.805  10.214  0.4945 -0.3158  0.0217
  183SLPC   H2X20983   6.267   1.704  10.240 -0.7253  0.3848  1.0094
  183SLPC   H2Y20984   6.414   1.819  10.228  0.1875  1.4669  0.7946
  183SLPC   C2320985   5.699   1.606  10.146 -0.0929 -0.0399 -0.0449
  183SLPC   H3R20986   5.706   1.498  10.172 -0.1567  0.7560  3.6266
  183SLPC   H3S20987   5.806   1.628  10.126  0.3049 -0.6255  1.3337
  183SLPC   C2420988   5.608   1.630  10.025  0.5652 -0.3640 -0.3546
  183SLPC   H4R20989   5.578   1.737  10.028 -1.1112 -0.8003 -0.7040
  183SLPC   H4S20990   5.511   1.576  10.025 -0.5128  1.3452  4.4430
  183SLPC   C2520991   5.693   1.598   9.897 -0.5052 -0.0016 -0.2556
  183SLPC   H5R20992   5.734   1.496   9.911 -0.2304  0.1943  0.3679
  183SLPC   H5S20993   5.774   1.672   9.877 -0.6244  0.0887 -0.4149
  183SLPC   C2620994   5.612   1.586   9.771 -0.8857  0.3301 -0.3269
  183SLPC   H6R20995   5.513   1.540   9.794 -0.7867 -0.8755 -2.2676
  183SLPC   H6S20996   5.652   1.515   9.696  2.7330  1.2285  0.6940
  183SLPC   C2720997   5.581   1.720   9.702 -0.7538  0.2196 -0.1325
  183SLPC   H7R20998   5.667   1.756   9.642 -1.3895 -2.1012 -2.5355
  183SLPC   H7S20999   5.546   1.799   9.772 -0.7189  0.8004 -0.7629
  183SLPC   C2821000   5.470   1.709   9.594 -0.5563  0.0383 -0.3041
  183SLPC   H8R21001   5.376   1.659   9.625 -0.6464  0.2855 -0.1840
  183SLPC   H8S21002   5.514   1.641   9.517  1.3409 -2.0052  2.4761
  183SLPC   C2921003   5.442   1.848   9.539 -0.0708 -0.3813  0.1919
  183SLPC   H9R21004   5.460   1.923   9.617  2.4057  0.1427 -0.8323
  183SLPC  C21021005   5.406   1.879   9.416 -0.1674 -0.6941  0.1470
  183SLPC  H10R21006   5.410   1.982   9.375 -0.9142 -1.0067 -0.7321
  183SLPC  C21121007   5.380   1.773   9.305 -0.4668  0.5297 -0.2096
  183SLPC  H11R21008   5.298   1.708   9.340  1.3215 -1.2471  0.7767
  183SLPC  H11S21009   5.464   1.700   9.301 -0.3707  0.5579  1.2247
  183SLPC  C21221010   5.349   1.838   9.172  0.5277 -0.2624 -0.3867
  183SLPC  H12R21011   5.415   1.924   9.151  0.9218 -0.1718  1.1837
  183SLPC  C21321012   5.242   1.811   9.103  0.3003 -0.4730  0.5804
  183SLPC  H13R21013   5.217   1.876   9.018 -1.2369  0.0117  1.3777
  183SLPC  C21421014   5.127   1.719   9.124 -0.4069 -0.9265 -0.2864
  183SLPC  H14R21015   5.036   1.776   9.154  1.4872  0.5199  3.0364
  183SLPC  H14S21016   5.139   1.652   9.212  2.7266 -0.2551 -0.1372
  183SLPC  C21521017   5.084   1.646   8.995 -0.1101  0.3645  0.3249
  183SLPC  H15R21018   5.175   1.592   8.961 -0.3896 -0.2651  0.5572
  183SLPC  H15S21019   5.042   1.720   8.923  0.7533  0.5485  0.0078
  183SLPC  C21621020   4.978   1.540   9.016  0.7182  0.1899 -0.3520
  183SLPC  H16R21021   5.000   1.481   9.107  0.6794  1.1211  0.2698
  183SLPC  H16S21022   4.972   1.471   8.929 -2.5713 -0.0019 -0.0400
  183SLPC  C21721023   4.833   1.592   9.019  0.2652 -0.3616  0.1946
  183SLPC  H17R21024   4.807   1.626   8.916 -0.2707  1.1554  0.8169
  183SLPC  H17S21025   4.824   1.684   9.082 -1.6057  0.3462 -1.0457
  183SLPC  C21821026   4.732   1.489   9.056  0.0979 -0.2084 -0.0149
  183SLPC  H18R21027   4.746   1.408   8.982  1.3326 -0.8021  0.8405
  183SLPC  H18S21028   4.627   1.522   9.041 -0.0473  0.2896  1.8998
  183SLPC  H18T21029   4.749   1.454   9.160  0.2553  1.9662  0.7143
  183SLPC   C3321030   6.272   1.842  10.070 -0.6811  0.0890 -0.7503
  183SLPC   H3X21031   6.343   1.823   9.987  0.1471  1.0835 -0.2793
  183SLPC   H3Y21032   6.243   1.948  10.057  0.0144  0.5743  1.3989
  183SLPC   C3421033   6.142   1.769  10.022 -0.6762 -0.1702 -0.1438
  183SLPC   H4X21034   6.069   1.785  10.105 -1.3304 -0.4908 -0.6510
  183SLPC   H4Y21035   6.177   1.663  10.023 -1.0620 -0.2945  0.5152
  183SLPC   C3521036   6.083   1.805   9.891  0.0038  0.6194  0.1284
  183SLPC   H5X21037   6.068   1.914   9.875  0.6926  0.8393  0.9573
  183SLPC   H5Y21038   5.983   1.757   9.899 -0.5980  1.6671 -0.9254
  183SLPC   C3621039   6.168   1.754   9.774  0.3993  0.2202 -0.6226
  183SLPC   H6X21040   6.200   1.648   9.781  0.1526  0.1398 -0.6787
  183SLPC   H6Y21041   6.261   1.813   9.785  2.5256 -3.6284  3.4340
  183SLPC   C3721042   6.088   1.766   9.642  0.3566 -0.0076 -0.2558
  183SLPC   H7X21043   6.047   1.870   9.634 -1.5991 -0.5240  2.3468
  183SLPC   H7Y21044   6.003   1.696   9.658  0.4333 -0.4389 -1.6431
  183SLPC   C3821045   6.149   1.695   9.516 -0.3267  0.7518  0.4616
  183SLPC   H8X21046   6.149   1.586   9.538 -1.4742  1.1602  2.6663
  183SLPC   H8Y21047   6.251   1.737   9.502 -0.1985 -0.5831 -3.0838
  183SLPC   C3921048   6.057   1.734   9.396 -0.0208 -0.0757 -0.0919
  183SLPC   H9X21049   6.071   1.844   9.394  1.7666 -0.2920 -1.9447
  183SLPC   H9Y21050   5.953   1.701   9.418  0.7833 -2.6839  0.0005
  183SLPC  C31021051   6.107   1.703   9.259 -0.4293  0.0484  0.6117
  183SLPC  H10X21052   6.113   1.594   9.237  1.6471  0.3237 -0.3872
  183SLPC  H10Y21053   6.209   1.747   9.249 -0.6559  0.5099  0.3354
  183SLPC  C31121054   6.013   1.760   9.142  0.0730  0.2300 -0.1535
  183SLPC  H11X21055   6.055   1.727   9.045 -1.1639 -4.8329  0.9169
  183SLPC  H11Y21056   6.019   1.871   9.134  1.3959  0.1533 -0.2528
  183SLPC  C31221057   5.865   1.717   9.156 -0.4719  0.5572  0.1709
  183SLPC  H12X21058   5.798   1.780   9.218 -2.9584 -2.1040  0.2959
  183SLPC  H12Y21059   5.870   1.618   9.207 -1.2500  0.3488 -0.1598
  183SLPC  C31321060   5.804   1.705   9.011 -0.0501 -0.5818 -0.0862
  183SLPC  H13X21061   5.862   1.628   8.957 -0.3743 -2.0429  1.6003
  183SLPC  H13Y21062   5.789   1.806   8.967 -0.8295 -0.2762  0.8547
  183SLPC  C31421063   5.669   1.637   9.021  0.1690 -0.0094 -0.4432
  183SLPC  H14X21064   5.595   1.697   9.079 -0.0464 -1.5307  0.9005
  183SLPC  H14Y21065   5.679   1.553   9.094  2.9646  0.6535 -0.0055
  183SLPC  C31521066   5.627   1.586   8.886  0.8348  0.2071 -0.8969
  183SLPC  H15X21067   5.708   1.517   8.852 -1.3186 -2.6126 -0.4928
  183SLPC  H15Y21068   5.612   1.672   8.817  1.0651 -0.6528 -2.0402
  183SLPC  C31621069   5.498   1.509   8.896 -0.6460 -0.3229 -0.0779
  183SLPC  H16X21070   5.440   1.518   8.802  0.7030 -3.0135 -1.2125
  183SLPC  H16Y21071   5.433   1.557   8.973 -0.0298  1.9538 -0.9452
  183SLPC  C31721072   5.516   1.357   8.923 -0.3497  0.4787 -0.1034
  183SLPC  H17X21073   5.566   1.350   9.022 -0.4611 -0.5981 -0.1166
  183SLPC  H17Y21074   5.595   1.311   8.859  0.0885 -0.7312  1.2908
  183SLPC  C31821075   5.388   1.273   8.925  0.1259  0.3941  0.7601
  183SLPC  H18X21076   5.317   1.316   8.999  0.6861 -1.1404  2.2045
  183SLPC  H18Y21077   5.403   1.167   8.954  1.8186  0.3817 -0.0911
  183SLPC  H18Z21078   5.352   1.278   8.819 -1.2724  0.8484  1.2362
  184SLPC     N21079   1.497   6.044  11.101  0.5327  0.5935  0.4906
  184SLPC   C1321080   1.439   6.051  11.237  0.6847 -0.1351 -0.9872
  184SLPC  H13A21081   1.512   6.061  11.316 -0.0079  0.5767 -0.4245
  184SLPC  H13B21082   1.368   6.132  11.245 -0.1844 -1.0102  0.5216
  184SLPC  H13C21083   1.383   5.960  11.251  0.7131 -0.1046 -0.6657
  184SLPC   C1421084   1.589   5.928  11.104 -0.8789  0.1356  0.2797
  184SLPC  H14A21085   1.652   5.924  11.192  0.4804 -1.8916 -0.7609
  184SLPC  H14B21086   1.525   5.841  11.111 -0.6458  0.0348  1.2473
  184SLPC  H14C21087   1.632   5.915  11.006 -0.6985 -0.5240  0.4456
  184SLPC   C1521088   1.568   6.173  11.080  0.5440  0.0358  0.1785
  184SLPC  H15A21089   1.636   6.182  11.163 -0.6035  1.3148  0.9945
  184SLPC  H15B21090   1.619   6.179  10.985 -0.4134 -0.0504 -0.3423
  184SLPC  H15C21091   1.511   6.265  11.086  1.8450  0.9184 -0.6433
  184SLPC   C1221092   1.382   6.029  11.005 -0.3406  0.5372 -0.3131
  184SLPC  H12A21093   1.342   6.126  10.980  0.2067  1.2459  1.4941
  184SLPC  H12B21094   1.300   5.980  11.055  0.1781  1.0926  1.0904
  184SLPC   C1121095   1.415   5.955  10.870 -0.2655  0.1832  0.2230
  184SLPC  H11A21096   1.316   5.951  10.820 -0.8329  0.9484  1.2606
  184SLPC  H11B21097   1.446   5.850  10.892 -0.9086  0.4873  2.6974
  184SLPC     P21098   1.486   6.141  10.699  0.4114 -0.5205  0.1889
  184SLPC   O1321099   1.378   6.230  10.753 -0.7322  0.1845  0.4100
  184SLPC   O1421100   1.619   6.204  10.658 -0.0010  0.2067  0.2829
  184SLPC   O1221101   1.516   6.023  10.802 -0.4293 -0.6198  0.0924
  184SLPC   O1121102   1.422   6.070  10.571  0.5144  0.0151  0.3193
  184SLPC    C121103   1.440   6.141  10.444  0.3560  0.1481 -0.5567
  184SLPC    HA21104   1.339   6.180  10.418 -1.0141 -2.4027  0.7354
  184SLPC    HB21105   1.507   6.230  10.451  1.7062 -0.9709  1.3716
  184SLPC    C221106   1.493   6.057  10.327 -0.7726  1.2387 -0.3489
  184SLPC    HS21107   1.444   5.958  10.330 -0.5758  1.1769  1.5785
  184SLPC   O2121108   1.638   6.048  10.343  0.4576  0.4606  0.2598
  184SLPC   C2121109   1.689   5.953  10.417  0.5227 -0.3750 -0.3871
  184SLPC   O2221110   1.612   5.877  10.477  0.1037 -0.1084 -0.4972
  184SLPC   C2221111   1.845   5.946  10.405  0.0731 -0.1718  0.0646
  184SLPC   H2R21112   1.880   6.034  10.347 -0.2811 -2.1174 -3.2192
  184SLPC   H2S21113   1.877   5.952  10.512 -0.7813  2.0323  0.2379
  184SLPC    C321114   1.475   6.141  10.194  0.3349  0.7008 -0.9455
  184SLPC    HX21115   1.540   6.230  10.205  1.3407 -0.3848  2.8673
  184SLPC    HY21116   1.373   6.185  10.189  0.4394  0.8201 -1.9411
  184SLPC   O3121117   1.505   6.060  10.079 -0.8499 -0.3987 -0.2552
  184SLPC   C3121118   1.628   6.047  10.032  0.0255  0.4087 -0.2684
  184SLPC   O3221119   1.724   6.117  10.065 -0.1104  0.0716  0.2006
  184SLPC   C3221120   1.631   5.937   9.935  0.6721  0.0900 -0.0455
  184SLPC   H2X21121   1.534   5.946   9.882  1.1977  0.0296 -1.0303
  184SLPC   H2Y21122   1.631   5.834   9.977  0.6001  0.3386  0.5748
  184SLPC   C2321123   1.900   5.818  10.337 -0.1040  0.1718 -0.3524
  184SLPC   H3R21124   1.853   5.729  10.383  0.9452  0.1366  0.6525
  184SLPC   H3S21125   2.008   5.812  10.360  0.1210  0.5018 -1.2923
  184SLPC   C2421126   1.866   5.813  10.185 -0.1829  1.1132  0.1751
  184SLPC   H4R21127   1.872   5.918  10.149 -1.5819  0.0167 -3.5279
  184SLPC   H4S21128   1.756   5.797  10.182 -0.2127  1.4679 -0.7874
  184SLPC   C2521129   1.946   5.718  10.091 -0.1806 -0.0698  0.6954
  184SLPC   H5R21130   2.056   5.726  10.111  0.2188 -1.5303 -0.8320
  184SLPC   H5S21131   1.939   5.754   9.986 -0.6429 -3.0409 -0.3258
  184SLPC   C2621132   1.904   5.576  10.085 -0.7276  0.8253 -0.1137
  184SLPC   H6R21133   1.797   5.559  10.061 -1.3000  1.4037  1.8750
  184SLPC   H6S21134   1.922   5.536  10.187 -1.8670 -0.6597 -0.4836
  184SLPC   C2721135   1.990   5.504   9.986 -0.7075 -0.2643  0.7959
  184SLPC   H7R21136   1.974   5.396  10.008 -2.7503 -0.7525 -2.8108
  184SLPC   H7S21137   2.099   5.526   9.990 -0.5347 -1.2016  1.6391
  184SLPC   C2821138   1.947   5.522   9.833 -0.9644  0.0896 -0.6204
  184SLPC   H8R21139   2.038   5.486   9.780  0.9796  0.4778  2.3039
  184SLPC   H8S21140   1.932   5.632   9.821 -3.2642 -0.0058  1.0436
  184SLPC   C2921141   1.832   5.432   9.805  0.0304 -0.7692  0.5977
  184SLPC   H9R21142   1.734   5.455   9.849  0.8921  0.5084  1.8993
  184SLPC  C21021143   1.830   5.332   9.719  0.3019  0.0276 -0.5986
  184SLPC  H10R21144   1.729   5.290   9.702  0.2325  0.4377 -1.2095
  184SLPC  C21121145   1.934   5.282   9.628  0.2723  0.4769 -0.3503
  184SLPC  H11R21146   2.020   5.240   9.684  1.1900 -0.3108 -2.2839
  184SLPC  H11S21147   1.973   5.365   9.566 -0.5845 -0.8540 -2.7408
  184SLPC  C21221148   1.888   5.168   9.545  0.5094 -0.6591 -0.3109
  184SLPC  H12R21149   1.869   5.069   9.589 -2.0322 -1.1351 -2.3484
  184SLPC  C21321150   1.857   5.180   9.414  0.3611 -0.0795 -0.1091
  184SLPC  H13R21151   1.828   5.089   9.359  0.7297  0.4234 -1.1274
  184SLPC  C21421152   1.869   5.296   9.322  0.7414  0.3467 -0.2614
  184SLPC  H14R21153   1.932   5.375   9.368 -0.3283  1.0424  0.0162
  184SLPC  H14S21154   1.773   5.348   9.303  0.4625  0.5413  1.6536
  184SLPC  C21521155   1.926   5.269   9.186  0.2645 -0.0906  0.0418
  184SLPC  H15R21156   1.994   5.181   9.179  0.7883  0.4257 -1.4391
  184SLPC  H15S21157   1.978   5.357   9.142  2.4009  0.3053  3.1842
  184SLPC  C21621158   1.813   5.225   9.097 -0.2871  0.0917  0.6812
  184SLPC  H16R21159   1.748   5.301   9.050 -1.6508 -1.0849  0.6196
  184SLPC  H16S21160   1.731   5.173   9.152  1.1878 -2.3208  0.6951
  184SLPC  C21721161   1.865   5.134   8.981  0.6999 -0.7670  0.5752
  184SLPC  H17R21162   1.901   5.039   9.026  1.5244 -0.3331  0.8428
  184SLPC  H17S21163   1.959   5.172   8.936  0.5232  0.9885  1.6234
  184SLPC  C21821164   1.767   5.108   8.866  0.3514 -0.7679 -0.3428
  184SLPC  H18R21165   1.756   5.202   8.808  1.3235  0.7159  1.8050
  184SLPC  H18S21166   1.666   5.086   8.909  0.8270 -0.4489  0.9751
  184SLPC  H18T21167   1.806   5.035   8.792  1.0366  0.7717 -1.5347
  184SLPC   C3321168   1.742   5.947   9.826 -0.0726 -0.8049 -0.5402
  184SLPC   H3X21169   1.847   5.935   9.863 -0.0491 -0.6226 -0.5486
  184SLPC   H3Y21170   1.738   6.054   9.795  2.5398 -0.7492 -0.8129
  184SLPC   C3421171   1.708   5.851   9.709  0.4729 -0.9045  0.5002
  184SLPC   H4X21172   1.598   5.835   9.711 -0.0217  1.9149 -1.2285
  184SLPC   H4Y21173   1.770   5.760   9.697  0.3124 -0.9648  0.1246
  184SLPC   C3521174   1.714   5.927   9.579 -0.4672 -0.2998  0.4639
  184SLPC   H5X21175   1.675   6.029   9.596 -0.4356  0.1489 -2.0060
  184SLPC   H5Y21176   1.648   5.879   9.504  0.5748 -1.1196  0.0539
  184SLPC   C3621177   1.852   5.946   9.524 -0.0442  0.2446 -0.3547
  184SLPC   H6X21178   1.881   5.844   9.490  0.2342  0.4455 -0.7155
  184SLPC   H6Y21179   1.924   5.967   9.606 -0.3593 -0.4628  0.1109
  184SLPC   C3721180   1.861   6.060   9.422 -0.2759  0.4181  0.5081
  184SLPC   H7X21181   1.820   6.156   9.462  0.8833 -0.0564  2.9520
  184SLPC   H7Y21182   1.802   6.038   9.330  1.8066 -1.8785 -0.3108
  184SLPC   C3821183   2.004   6.103   9.383  0.1447  0.0887  0.0492
  184SLPC   H8X21184   2.055   6.005   9.398  0.8969  0.9315  3.3218
  184SLPC   H8Y21185   2.037   6.174   9.460 -1.5631  1.2998 -0.3040
  184SLPC   C3921186   2.026   6.157   9.242 -0.2037  0.4027  0.2928
  184SLPC   H9X21187   1.989   6.262   9.241  1.9795  1.1955  0.5432
  184SLPC   H9Y21188   1.968   6.093   9.172 -0.4068 -0.1321  0.9500
  184SLPC  C31021189   2.176   6.156   9.207  0.5277  0.9308 -0.2693
  184SLPC  H10X21190   2.214   6.052   9.221 -2.0828  0.0262  0.3080
  184SLPC  H10Y21191   2.235   6.219   9.277  2.3525 -2.0408  1.0083
  184SLPC  C31121192   2.206   6.210   9.062  0.2453 -0.1582 -0.6606
  184SLPC  H11X21193   2.138   6.295   9.040  1.0641  0.2666 -1.5622
  184SLPC  H11Y21194   2.167   6.125   9.002  2.3003 -1.0330 -0.7668
  184SLPC  C31221195   2.352   6.243   9.023  0.6930  0.6711 -0.5551
  184SLPC  H12X21196   2.382   6.338   9.073 -0.6935  2.0164 -2.2397
  184SLPC  H12Y21197   2.351   6.261   8.914  3.0937 -0.5925 -0.8172
  184SLPC  C31321198   2.462   6.141   9.052  0.1134  0.2844 -0.1331
  184SLPC  H13X21199   2.553   6.170   8.996 -1.4570  0.9102 -2.4609
  184SLPC  H13Y21200   2.433   6.039   9.018 -0.1991 -0.1997  1.5389
  184SLPC  C31421201   2.485   6.130   9.203 -0.4395 -0.2918 -0.2027
  184SLPC  H14X21202   2.416   6.059   9.253 -0.9358  0.5022  0.2432
  184SLPC  H14Y21203   2.473   6.228   9.254 -0.1037  0.7239 -2.0041
  184SLPC  C31521204   2.632   6.096   9.234  0.2511 -0.6679  0.3810
  184SLPC  H15X21205   2.694   6.188   9.237 -2.4415  1.1624  1.6622
  184SLPC  H15Y21206   2.673   6.035   9.151 -1.8062 -1.7554  0.1297
  184SLPC  C31621207   2.654   6.000   9.358 -1.1670  0.0767  0.1153
  184SLPC  H16X21208   2.750   5.946   9.351 -1.3581 -0.5311  1.8964
  184SLPC  H16Y21209   2.578   5.921   9.343  0.8418 -1.6872 -0.8986
  184SLPC  C31721210   2.630   6.068   9.495  0.1829  0.3062  0.4488
  184SLPC  H17X21211   2.531   6.116   9.477  0.4544  0.6035 -0.2754
  184SLPC  H17Y21212   2.705   6.147   9.517  1.8766 -0.2589 -2.9212
  184SLPC  C31821213   2.621   5.961   9.597  0.7370  0.0342  0.0986
  184SLPC  H18X21214   2.601   6.005   9.697 -1.2269  1.2352 -0.7875
  184SLPC  H18Y21215   2.718   5.909   9.612  1.0820  0.4937 -0.5393
  184SLPC  H18Z21216   2.549   5.886   9.558  1.2569 -0.9751  1.0283
  185SLPC     N21217   5.850   1.090   6.452  0.1176  0.3109  1.0018
  185SLPC   C1321218   5.785   1.174   6.555  0.3145 -0.7672 -0.0106
  185SLPC  H13A21219   5.678   1.171   6.547  0.1424  2.3197  0.7890
  185SLPC  H13B21220   5.806   1.125   6.650  0.7541  1.4823  1.0819
  185SLPC  H13C21221   5.821   1.276   6.551 -2.3354  0.2326  0.6470
  185SLPC   C1421222   5.866   1.166   6.329  0.0672  0.5196 -0.4804
  185SLPC  H14A21223   5.915   1.111   6.250 -1.2417 -0.0021 -0.9437
  185SLPC  H14B21224   5.772   1.210   6.299 -0.1794  0.4534  0.1832
  185SLPC  H14C21225   5.939   1.241   6.355 -2.1749  1.6579  2.8822
  185SLPC   C1521226   5.756   0.974   6.418  0.3931 -0.1171  0.2170
  185SLPC  H15A21227   5.805   0.913   6.345 -0.6080  0.4418 -0.9525
  185SLPC  H15B21228   5.746   0.912   6.506 -0.6557 -1.6400 -0.9441
  185SLPC  H15C21229   5.656   0.998   6.385  1.2667  0.0065 -2.4037
  185SLPC   C1221230   5.987   1.048   6.513  0.0722  0.3156 -0.4311
  185SLPC  H12A21231   6.050   1.011   6.433 -1.5472 -0.8078 -1.2074
  185SLPC  H12B21232   5.980   0.970   6.587 -0.5442  0.4563 -0.3398
  185SLPC   C1121233   6.059   1.156   6.587  0.3035  0.3324  0.2823
  185SLPC  H11A21234   6.149   1.118   6.639  2.4007  1.4853 -2.3789
  185SLPC  H11B21235   6.001   1.194   6.674 -0.4520  0.9399 -0.4752
  185SLPC     P21236   6.231   1.251   6.420 -0.1378 -0.0651  0.3631
  185SLPC   O1321237   6.246   1.109   6.373 -0.6407  0.4177  0.1087
  185SLPC   O1421238   6.220   1.357   6.311  0.2274  0.2394 -0.0055
  185SLPC   O1221239   6.099   1.263   6.507  0.4538  0.0082  0.2127
  185SLPC   O1121240   6.349   1.285   6.515 -0.0780  0.2732 -0.0819
  185SLPC    C121241   6.335   1.393   6.619  0.0756  0.5284  0.5974
  185SLPC    HA21242   6.403   1.478   6.596  2.0564 -1.1556  0.0726
  185SLPC    HB21243   6.232   1.432   6.633 -0.3458  1.0541 -3.2430
  185SLPC    C221244   6.389   1.348   6.755 -0.4429  0.1685 -0.4513
  185SLPC    HS21245   6.499   1.341   6.743 -0.4050  1.3367 -0.8963
  185SLPC   O2121246   6.323   1.230   6.800  1.4097 -0.2321  0.0704
  185SLPC   C2121247   6.398   1.143   6.851  0.6390  0.5755 -0.2048
  185SLPC   O2221248   6.516   1.143   6.863  0.2708 -0.7045 -0.3400
  185SLPC   C2221249   6.311   1.023   6.877 -0.1452 -0.2267  0.1931
  185SLPC   H2R21250   6.220   1.058   6.929  0.2623  0.7059  0.2908
  185SLPC   H2S21251   6.282   0.976   6.780  2.6656  1.9465 -1.7938
  185SLPC    C321252   6.368   1.465   6.862  0.2701 -0.4205  0.2073
  185SLPC    HX21253   6.260   1.482   6.885  0.4830 -0.0220  0.9343
  185SLPC    HY21254   6.423   1.553   6.820  1.6877 -0.5220  1.8068
  185SLPC   O3121255   6.435   1.435   6.988  0.1970  0.0586 -0.1127
  185SLPC   C3121256   6.564   1.462   6.998  0.0234 -1.0729 -0.4653
  185SLPC   O3221257   6.636   1.509   6.912  0.1208 -0.4271 -0.6437
  185SLPC   C3221258   6.612   1.420   7.134 -0.1371  0.3597 -0.5780
  185SLPC   H2X21259   6.710   1.368   7.131 -0.6419 -0.5003 -3.0012
  185SLPC   H2Y21260   6.552   1.335   7.173 -0.0797 -0.2775 -1.8611
  185SLPC   C2321261   6.379   0.902   6.961 -0.3202  0.2745 -0.5420
  185SLPC   H3R21262   6.468   0.861   6.907  0.9744  1.0631  0.9689
  185SLPC   H3S21263   6.309   0.818   6.981 -2.0606  1.7300 -0.4010
  185SLPC   C2421264   6.401   0.937   7.108 -0.2521 -0.0571 -0.2160
  185SLPC   H4R21265   6.304   0.964   7.155  0.1218  2.2452 -0.7263
  185SLPC   H4S21266   6.472   1.022   7.114 -1.0780  0.7068 -1.1764
  185SLPC   C2521267   6.461   0.823   7.191 -0.3939  0.0090 -0.4114
  185SLPC   H5R21268   6.570   0.827   7.171 -0.2548  0.4391  0.4361
  185SLPC   H5S21269   6.419   0.729   7.148  0.7741  0.9972 -3.8646
  185SLPC   C2621270   6.438   0.853   7.343 -0.3801 -0.8605 -0.1962
  185SLPC   H6R21271   6.328   0.841   7.352 -0.3173 -0.0042  2.0585
  185SLPC   H6S21272   6.456   0.961   7.360 -2.8675 -0.6929  1.7150
  185SLPC   C2721273   6.508   0.776   7.449 -0.2707  0.5536  0.3161
  185SLPC   H7R21274   6.617   0.792   7.437 -0.3588 -0.0780 -1.4476
  185SLPC   H7S21275   6.493   0.668   7.428  0.3459  0.6710 -0.7927
  185SLPC   C2821276   6.462   0.816   7.589 -0.2055 -0.3581  0.1447
  185SLPC   H8R21277   6.452   0.927   7.592  0.2158 -0.3404  0.9124
  185SLPC   H8S21278   6.547   0.792   7.656 -1.1272  0.1747  1.5266
  185SLPC   C2921279   6.325   0.768   7.619  0.0232  0.4107 -0.6537
  185SLPC   H9R21280   6.252   0.792   7.540  1.1249  2.0609 -1.1922
  185SLPC  C21021281   6.289   0.696   7.725 -0.1981  0.3633  0.8343
  185SLPC  H10R21282   6.182   0.670   7.730 -0.7033  2.4157  1.0520
  185SLPC  C21121283   6.372   0.645   7.840  0.1070 -0.5902  0.2641
  185SLPC  H11R21284   6.457   0.582   7.805 -0.8822 -1.2466 -0.9907
  185SLPC  H11S21285   6.315   0.581   7.911  2.1469 -2.7636  0.0415
  185SLPC  C21221286   6.439   0.756   7.920 -1.0751  0.3178 -0.0578
  185SLPC  H12R21287   6.471   0.850   7.873 -0.7887  1.4144  2.2560
  185SLPC  C21321288   6.472   0.747   8.046 -0.2869  0.1114 -0.2622
  185SLPC  H13R21289   6.534   0.825   8.094  0.2785 -0.3167 -0.2935
  185SLPC  C21421290   6.440   0.635   8.143 -0.2340 -0.0604 -0.5659
  185SLPC  H14R21291   6.511   0.633   8.229 -1.9946  1.6775  0.9606
  185SLPC  H14S21292   6.445   0.531   8.104  1.7990  0.1151 -0.7939
  185SLPC  C21521293   6.299   0.653   8.211 -0.3720  0.1182 -0.5022
  185SLPC  H15R21294   6.290   0.557   8.267  3.6858 -0.2486 -0.3516
  185SLPC  H15S21295   6.212   0.665   8.143  0.0037  0.5662 -0.9074
  185SLPC  C21621296   6.297   0.756   8.323  1.0017 -0.4268  0.3248
  185SLPC  H16R21297   6.340   0.853   8.292 -2.4796  0.9990 -0.2811
  185SLPC  H16S21298   6.362   0.713   8.402  0.1740  0.3385  1.4421
  185SLPC  C21721299   6.156   0.775   8.373 -0.3192  0.2574  0.2436
  185SLPC  H17R21300   6.112   0.674   8.385 -5.0434  1.8158 -2.5727
  185SLPC  H17S21301   6.094   0.834   8.302  0.2709  0.0123 -0.4907
  185SLPC  C21821302   6.142   0.842   8.508 -0.2361  0.0479 -0.9414
  185SLPC  H18R21303   6.035   0.844   8.540 -0.2871 -0.2435 -1.0940
  185SLPC  H18S21304   6.178   0.946   8.516 -0.4061  0.0266  0.2410
  185SLPC  H18T21305   6.197   0.781   8.583 -1.2918 -0.1214 -0.2817
  185SLPC   C3321306   6.612   1.532   7.240  0.4203 -0.8836  0.1917
  185SLPC   H3X21307   6.510   1.573   7.254  0.7779 -0.7606  2.7780
  185SLPC   H3Y21308   6.672   1.621   7.213 -0.4308  0.0839  1.4407
  185SLPC   C3421309   6.655   1.478   7.380  0.0963  0.3843 -0.0522
  185SLPC   H4X21310   6.765   1.463   7.382 -0.0085 -0.4273  0.0596
  185SLPC   H4Y21311   6.605   1.380   7.398 -0.5034  0.6031 -0.5135
  185SLPC   C3521312   6.608   1.567   7.497 -0.1846  0.5574 -0.1385
  185SLPC   H5X21313   6.511   1.619   7.481 -0.1950  0.4019 -0.6048
  185SLPC   H5Y21314   6.689   1.642   7.499 -2.1923  2.7535  1.8731
  185SLPC   C3621315   6.590   1.498   7.636 -0.0829 -0.0099  0.4086
  185SLPC   H6X21316   6.686   1.446   7.659  1.4006  2.5486  0.2312
  185SLPC   H6Y21317   6.519   1.413   7.639  0.8563 -0.8751 -0.8041
  185SLPC   C3721318   6.551   1.598   7.749  0.1980  0.3935 -0.1707
  185SLPC   H7X21319   6.455   1.650   7.731 -0.1897 -0.6151 -1.0165
  185SLPC   H7Y21320   6.639   1.667   7.758 -0.6741  1.6131 -0.7994
  185SLPC   C3821321   6.544   1.522   7.880  0.0257  0.1895 -0.5976
  185SLPC   H8X21322   6.638   1.475   7.915 -0.2002  0.9004  1.0219
  185SLPC   H8Y21323   6.460   1.451   7.866  0.9606 -1.5695  2.1995
  185SLPC   C3921324   6.518   1.622   7.992  0.9035  0.3778 -0.0629
  185SLPC   H9X21325   6.419   1.668   7.970 -0.2108 -2.6220 -1.6216
  185SLPC   H9Y21326   6.591   1.705   7.981  1.7218 -0.3066  0.1475
  185SLPC  C31021327   6.534   1.560   8.128 -0.0635 -0.9287  0.0315
  185SLPC  H10X21328   6.633   1.515   8.150  0.9961  0.1262 -2.3840
  185SLPC  H10Y21329   6.464   1.477   8.151  0.5488 -1.2257  0.8572
  185SLPC  C31121330   6.519   1.667   8.241  0.2695 -0.1015 -0.0322
  185SLPC  H11X21331   6.422   1.714   8.214 -0.1488 -0.6692  0.4716
  185SLPC  H11Y21332   6.601   1.742   8.245  0.9852 -0.9298  1.1400
  185SLPC  C31221333   6.499   1.594   8.376 -0.2501  0.3736 -0.2270
  185SLPC  H12X21334   6.595   1.559   8.418  0.2622  0.8801 -0.9647
  185SLPC  H12Y21335   6.425   1.511   8.367  1.4982 -1.0300 -2.3422
  185SLPC  C31321336   6.446   1.695   8.484 -0.3396  0.4008 -0.4385
  185SLPC  H13X21337   6.338   1.713   8.467  0.1960  2.8794 -1.4090
  185SLPC  H13Y21338   6.498   1.793   8.479 -1.3425  1.1579  2.6680
  185SLPC  C31421339   6.461   1.644   8.634  0.1539  0.8894  0.3924
  185SLPC  H14X21340   6.567   1.635   8.663  0.1651 -0.7402 -0.1309
  185SLPC  H14Y21341   6.424   1.541   8.650 -0.9000  0.8129 -2.3161
  185SLPC  C31521342   6.393   1.746   8.735  0.6306  0.0029 -0.2556
  185SLPC  H15X21343   6.285   1.724   8.745  0.2753  2.4087  1.9357
  185SLPC  H15Y21344   6.386   1.850   8.696  0.6456  0.8522  1.9147
  185SLPC  C31621345   6.471   1.753   8.865  0.1723 -0.1856 -0.6536
  185SLPC  H16X21346   6.575   1.792   8.857  0.1931  0.1582  1.1699
  185SLPC  H16Y21347   6.478   1.653   8.913  3.6617 -0.4280 -1.5458
  185SLPC  C31721348   6.415   1.856   8.965 -0.4172  0.1375  0.5018
  185SLPC  H17X21349   6.307   1.835   8.977 -0.7680  0.3775 -2.0202
  185SLPC  H17Y21350   6.417   1.960   8.926 -1.3202  0.9522  2.5237
  185SLPC  C31821351   6.470   1.848   9.110  0.0048  0.7928 -0.4717
  185SLPC  H18X21352   6.468   1.742   9.143  0.7010  0.9107 -0.0376
  185SLPC  H18Y21353   6.416   1.911   9.186 -0.6552  1.1560 -1.2328
  185SLPC  H18Z21354   6.576   1.882   9.106  0.6824 -1.2777 -0.5253
  186SLPC     N21355   0.886   4.497   6.274 -0.1080  0.0249  0.4514
  186SLPC   C1321356   0.739   4.496   6.319  0.1194 -0.1263 -0.0545
  186SLPC  H13A21357   0.718   4.565   6.400  1.9097 -0.4697  0.7218
  186SLPC  H13B21358   0.668   4.516   6.240  0.5206 -0.9618 -0.6302
  186SLPC  H13C21359   0.705   4.403   6.361 -3.8575  1.4222  0.3529
  186SLPC   C1421360   0.975   4.473   6.393 -0.7899  0.3724 -0.0058
  186SLPC  H14A21361   0.946   4.542   6.471 -2.3534 -0.0225 -0.2323
  186SLPC  H14B21362   0.977   4.365   6.401  2.8645  0.3731 -0.0295
  186SLPC  H14C21363   1.081   4.488   6.376 -1.3444  1.7440 -2.3447
  186SLPC   C1521364   0.925   4.634   6.220 -0.0725 -0.2281  0.2480
  186SLPC  H15A21365   1.031   4.650   6.208 -0.3015  2.0897  1.1554
  186SLPC  H15B21366   0.878   4.650   6.124 -1.0881 -1.2589  0.5674
  186SLPC  H15C21367   0.886   4.709   6.286  0.2661 -0.2565  0.4793
  186SLPC   C1221368   0.922   4.397   6.165  0.3302  0.7145 -0.9906
  186SLPC  H12A21369   1.023   4.414   6.130  0.2216 -2.4994 -3.0718
  186SLPC  H12B21370   0.857   4.408   6.079  0.1647  0.3579 -0.9125
  186SLPC   C1121371   0.926   4.243   6.207  0.2051  0.2112 -0.3625
  186SLPC  H11A21372   0.937   4.182   6.115 -2.8665 -1.1587  0.1142
  186SLPC  H11B21373   0.821   4.231   6.240  0.5765 -1.0819  0.4271
  186SLPC     P21374   1.064   4.063   6.330 -0.5973  0.1129 -0.3878
  186SLPC   O1321375   0.983   3.978   6.237 -0.4194  0.5368  0.5917
  186SLPC   O1421376   1.208   4.040   6.337 -0.1194  0.1128  0.5320
  186SLPC   O1221377   1.034   4.213   6.296 -0.0045 -0.4197  0.2459
  186SLPC   O1121378   1.002   4.029   6.474  0.5001  0.1446  0.4170
  186SLPC    C121379   0.866   4.070   6.497  0.5118  0.4414 -0.2738
  186SLPC    HA21380   0.837   4.166   6.449  0.3659  1.2311  1.3913
  186SLPC    HB21381   0.806   3.986   6.455  1.8174 -1.8874  2.3719
  186SLPC    C221382   0.824   4.080   6.649 -0.0585 -0.2212 -0.4168
  186SLPC    HS21383   0.850   4.184   6.676  1.8010 -0.1697 -2.2225
  186SLPC   O2121384   0.889   3.976   6.724 -0.6226 -0.4359  0.1546
  186SLPC   C2121385   1.004   4.023   6.763  0.1354 -0.1698 -0.6664
  186SLPC   O2221386   1.030   4.139   6.782  0.1840  0.2402  0.0264
  186SLPC   C2221387   1.100   3.902   6.798  0.3794 -0.3527 -0.8183
  186SLPC   H2R21388   1.048   3.813   6.838  0.7929  0.2133  1.0118
  186SLPC   H2S21389   1.159   3.877   6.707  2.7449  0.6937  0.3918
  186SLPC    C321390   0.671   4.065   6.668 -0.3255 -0.6014 -0.5614
  186SLPC    HX21391   0.652   3.964   6.627  0.3047 -2.3317  3.2149
  186SLPC    HY21392   0.628   4.141   6.598  1.1530 -0.7446 -1.6517
  186SLPC   O3121393   0.628   4.083   6.803 -1.0073 -0.4559 -0.0856
  186SLPC   C3121394   0.589   4.200   6.844 -0.1450  0.3223 -0.2137
  186SLPC   O3221395   0.540   4.288   6.770 -0.5515  0.2018 -0.6481
  186SLPC   C3221396   0.603   4.215   6.990 -0.4381 -0.5822 -0.3854
  186SLPC   H2X21397   0.705   4.197   7.030 -0.7650  0.1852  0.8072
  186SLPC   H2Y21398   0.538   4.136   7.034  0.4283 -1.0890  0.0045
  186SLPC   C2321399   1.212   3.939   6.901 -0.4068  0.6442  0.0402
  186SLPC   H3R21400   1.272   4.008   6.840 -0.4600  0.8620  0.2312
  186SLPC   H3S21401   1.274   3.851   6.928 -0.5129  0.7938  0.7934
  186SLPC   C2421402   1.152   3.987   7.033 -1.0255  0.0716 -0.6167
  186SLPC   H4R21403   1.094   4.078   7.007  0.9846  1.4509 -0.3133
  186SLPC   H4S21404   1.241   4.030   7.083 -0.1019 -0.2348 -1.9515
  186SLPC   C2521405   1.087   3.881   7.128  0.0665  0.2482  0.3142
  186SLPC   H5R21406   1.156   3.798   7.157  2.1355  2.3283  1.4744
  186SLPC   H5S21407   0.995   3.842   7.080 -0.0625  1.7970 -0.7071
  186SLPC   C2621408   1.037   3.924   7.262 -0.2978 -0.3479  0.1414
  186SLPC   H6R21409   0.958   4.001   7.250 -3.2279 -3.0512  1.3136
  186SLPC   H6S21410   1.111   3.983   7.320  2.5004 -2.3611 -1.2837
  186SLPC   C2721411   0.984   3.817   7.356  0.3330  0.2236  0.2075
  186SLPC   H7R21412   1.065   3.753   7.397  1.4913 -0.0726 -2.4703
  186SLPC   H7S21413   0.925   3.744   7.298  1.3468 -0.7752  0.4221
  186SLPC   C2821414   0.887   3.877   7.459  0.5716  0.0393  0.5232
  186SLPC   H8R21415   0.826   3.797   7.506 -0.6556  1.8176  2.0079
  186SLPC   H8S21416   0.815   3.942   7.406 -0.7459 -1.2751  0.6523
  186SLPC   C2921417   0.960   3.970   7.560  0.7763  0.0368 -0.3317
  186SLPC   H9R21418   1.017   4.053   7.515  1.5625  0.4462  1.4084
  186SLPC  C21021419   0.957   3.950   7.694 -0.1597 -0.9803  0.0297
  186SLPC  H10R21420   1.018   4.016   7.758 -0.9086  0.7964 -1.0449
  186SLPC  C21121421   0.882   3.848   7.776 -0.3096 -1.0633  0.5017
  186SLPC  H11R21422   0.869   3.746   7.734 -1.5683 -1.3031  1.4134
  186SLPC  H11S21423   0.774   3.873   7.788 -0.3658 -1.9587  2.0000
  186SLPC  C21221424   0.943   3.821   7.916 -0.0962  0.1466  1.6270
  186SLPC  H12R21425   1.047   3.788   7.920  0.6290  1.3114 -4.2463
  186SLPC  C21321426   0.888   3.832   8.033  0.4370 -0.4956 -0.9216
  186SLPC  H13R21427   0.952   3.822   8.121  1.0797 -1.9090 -1.5349
  186SLPC  C21421428   0.743   3.861   8.071 -0.2415 -0.3355  0.3606
  186SLPC  H14R21429   0.684   3.862   7.977  1.0692  3.3849 -0.5241
  186SLPC  H14S21430   0.734   3.963   8.114  0.8217  0.3788 -1.0709
  186SLPC  C21521431   0.684   3.760   8.167  0.3917 -0.6615  1.1682
  186SLPC  H15R21432   0.708   3.658   8.130  1.5250 -0.1711  0.5362
  186SLPC  H15S21433   0.575   3.778   8.181  0.5085  0.1368  1.0857
  186SLPC  C21621434   0.751   3.762   8.305 -0.4162  0.5328  0.5935
  186SLPC  H16R21435   0.749   3.868   8.340  0.8223 -0.2552  3.1706
  186SLPC  H16S21436   0.854   3.721   8.302 -0.7551 -0.3042  0.3393
  186SLPC  C21721437   0.667   3.681   8.409 -0.3553 -0.0718  0.1925
  186SLPC  H17R21438   0.565   3.725   8.423  0.1609  1.4842 -0.8078
  186SLPC  H17S21439   0.724   3.693   8.504  0.3174 -0.9460 -0.1051
  186SLPC  C21821440   0.643   3.531   8.375  0.7284  0.3999 -0.3255
  186SLPC  H18R21441   0.578   3.519   8.286  2.5521 -1.2292 -1.4693
  186SLPC  H18S21442   0.591   3.485   8.462  0.4527  1.2725 -0.0184
  186SLPC  H18T21443   0.737   3.476   8.352  1.4329  1.4755 -0.1010
  186SLPC   C3321444   0.556   4.348   7.048  1.2590  0.4242 -0.3644
  186SLPC   H3X21445   0.456   4.369   7.005  0.8586  0.7646  0.7038
  186SLPC   H3Y21446   0.627   4.426   7.012  1.5243 -0.4522 -1.7779
  186SLPC   C3421447   0.548   4.342   7.200 -0.2138  0.5232  0.1031
  186SLPC   H4X21448   0.469   4.268   7.223 -1.6676  1.7811 -0.7203
  186SLPC   H4Y21449   0.498   4.437   7.230  0.3720  0.9937 -0.3815
  186SLPC   C3521450   0.678   4.304   7.275  0.7423 -0.6697  0.1884
  186SLPC   H5X21451   0.757   4.357   7.218 -1.1903  0.7032 -1.2828
  186SLPC   H5Y21452   0.703   4.196   7.261 -0.0704 -0.4935 -2.9918
  186SLPC   C3621453   0.671   4.346   7.426 -0.6541 -0.4941  0.6267
  186SLPC   H6X21454   0.630   4.449   7.424 -1.3737 -0.8028 -0.6920
  186SLPC   H6Y21455   0.779   4.348   7.455 -0.3180  0.0143 -0.6286
  186SLPC   C3721456   0.600   4.237   7.514  0.3896  0.3442 -0.1523
  186SLPC   H7X21457   0.635   4.138   7.479 -1.2683  0.7308 -3.0387
  186SLPC   H7Y21458   0.491   4.248   7.497  0.3998 -2.3296 -2.0728
  186SLPC   C3821459   0.614   4.266   7.670 -0.1346 -0.0640 -0.5745
  186SLPC   H8X21460   0.553   4.194   7.728  2.6651 -2.4301 -0.4442
  186SLPC   H8Y21461   0.570   4.367   7.679 -1.2191 -0.4659 -1.2991
  186SLPC   C3921462   0.764   4.271   7.717 -0.6079 -0.4018  0.4458
  186SLPC   H9X21463   0.813   4.363   7.679 -0.7991  0.4086  2.1130
  186SLPC   H9Y21464   0.823   4.183   7.683 -1.3561 -0.9607  0.6013
  186SLPC  C31021465   0.784   4.279   7.870  0.3827 -0.0590 -0.4404
  186SLPC  H10X21466   0.893   4.271   7.888  0.5519  0.4119 -1.2259
  186SLPC  H10Y21467   0.724   4.206   7.929  1.9417 -0.1944  0.9838
  186SLPC  C31121468   0.749   4.413   7.934  0.2889  0.2947  0.0608
  186SLPC  H11X21469   0.645   4.438   7.904  0.1103 -1.4226 -0.8527
  186SLPC  H11Y21470   0.808   4.502   7.903  0.6802 -0.0468 -0.1760
  186SLPC  C31221471   0.772   4.414   8.090  0.7526 -0.7865  0.0610
  186SLPC  H12X21472   0.782   4.521   8.114 -0.4415 -0.8215  0.7726
  186SLPC  H12Y21473   0.874   4.378   8.114  0.4453 -2.8399 -1.4975
  186SLPC  C31321474   0.659   4.352   8.177  0.0914 -0.6308  0.1714
  186SLPC  H13X21475   0.642   4.248   8.140 -0.4674 -0.1936 -0.8157
  186SLPC  H13Y21476   0.563   4.395   8.142  0.8363 -0.0521 -1.2039
  186SLPC  C31421477   0.679   4.383   8.320 -0.2206 -0.9046 -0.4767
  186SLPC  H14X21478   0.704   4.491   8.331 -1.7376 -0.6810  1.0714
  186SLPC  H14Y21479   0.760   4.325   8.368  2.4997  2.8326 -0.2994
  186SLPC  C31521480   0.556   4.359   8.410  0.0275  0.3474  1.0817
  186SLPC  H15X21481   0.529   4.252   8.396  0.2543  0.5218 -0.9175
  186SLPC  H15Y21482   0.470   4.420   8.376  1.5734  1.9448 -0.0380
  186SLPC  C31621483   0.588   4.389   8.554  0.9210 -0.5009 -0.1425
  186SLPC  H16X21484   0.657   4.476   8.553  0.5462 -0.2045 -2.1537
  186SLPC  H16Y21485   0.648   4.303   8.593  3.0351  0.4016 -1.3613
  186SLPC  C31721486   0.476   4.425   8.647  0.4293  0.1545  0.1656
  186SLPC  H17X21487   0.422   4.522   8.636 -0.4858 -0.3642  0.0210
  186SLPC  H17Y21488   0.524   4.430   8.748  0.9064  0.0873 -0.0574
  186SLPC  C31821489   0.351   4.337   8.654  0.1113 -0.2509 -0.6843
  186SLPC  H18X21490   0.378   4.232   8.677 -1.0991  0.1677  2.8704
  186SLPC  H18Y21491   0.307   4.342   8.552 -0.0958  3.4562 -0.4844
  186SLPC  H18Z21492   0.276   4.365   8.732  1.0067 -1.0346  0.4591
  187SLPC     N21493   1.614   1.204   6.099  0.9074  0.4016 -0.5194
  187SLPC   C1321494   1.530   1.075   6.117  0.1868 -0.6187 -0.6024
  187SLPC  H13A21495   1.424   1.097   6.119  0.7764  2.2717  2.2758
  187SLPC  H13B21496   1.549   1.000   6.042 -0.0526 -1.0378 -0.2429
  187SLPC  H13C21497   1.553   1.025   6.210  0.7728  1.0529  0.1809
  187SLPC   C1421498   1.572   1.262   5.971 -0.0077 -0.0949  0.3011
  187SLPC  H14A21499   1.560   1.185   5.895 -0.7629  0.5337 -0.2194
  187SLPC  H14B21500   1.478   1.314   5.979 -0.7438 -1.3412 -0.0244
  187SLPC  H14C21501   1.647   1.332   5.939  0.5999  0.0516  1.9927
  187SLPC   C1521502   1.755   1.167   6.092 -0.3736 -0.9158 -0.5794
  187SLPC  H15A21503   1.792   1.122   6.183  0.4832  0.3554 -0.2835
  187SLPC  H15B21504   1.776   1.098   6.011  0.5691 -0.7453 -0.4922
  187SLPC  H15C21505   1.816   1.256   6.083  0.9765 -1.6137  1.3730
  187SLPC   C1221506   1.587   1.290   6.220  0.9488 -0.2753  0.1456
  187SLPC  H12A21507   1.481   1.290   6.242  0.1488 -1.0516 -3.4439
  187SLPC  H12B21508   1.609   1.394   6.202 -1.1426  0.5019  1.8276
  187SLPC   C1121509   1.645   1.258   6.355 -0.1520 -1.2895  0.0796
  187SLPC  H11A21510   1.643   1.353   6.412  0.6170 -1.7710  0.9312
  187SLPC  H11B21511   1.752   1.228   6.348  0.0626 -0.2165 -1.6701
  187SLPC     P21512   1.427   1.184   6.482  0.0635 -0.4637  0.1783
  187SLPC   O1321513   1.348   1.280   6.411 -0.2970  0.8660 -0.2000
  187SLPC   O1421514   1.368   1.052   6.487  0.1615 -0.2903 -0.1854
  187SLPC   O1221515   1.566   1.163   6.416 -0.1714 -0.2203  0.8039
  187SLPC   O1121516   1.470   1.228   6.630  0.6719  0.1550 -0.7790
  187SLPC    C121517   1.567   1.158   6.702  0.4098 -0.2149  0.6222
  187SLPC    HA21518   1.670   1.157   6.659  0.7453  1.8704  1.3187
  187SLPC    HB21519   1.585   1.218   6.794  1.6741 -2.3833  1.8409
  187SLPC    C221520   1.527   1.021   6.763 -0.6482  0.0826  0.1650
  187SLPC    HS21521   1.511   0.951   6.678  0.1201 -1.2975  1.1415
  187SLPC   O2121522   1.410   1.039   6.847 -0.2925  0.4761  0.4896
  187SLPC   C2121523   1.321   0.950   6.826  0.0028 -0.2748 -0.3442
  187SLPC   O2221524   1.334   0.843   6.771 -0.2973 -0.6382  1.2363
  187SLPC   C2221525   1.183   1.007   6.872 -0.1148  0.2932 -0.4971
  187SLPC   H2R21526   1.216   1.084   6.945  2.3279 -1.1543 -0.0081
  187SLPC   H2S21527   1.148   1.064   6.784  1.0662  1.6163 -0.1398
  187SLPC    C321528   1.642   0.977   6.853  0.6243 -0.2748 -0.8597
  187SLPC    HX21529   1.651   1.055   6.932 -1.2560 -0.4970 -0.4021
  187SLPC    HY21530   1.740   0.978   6.800  1.8374 -1.8680  1.2321
  187SLPC   O3121531   1.625   0.859   6.928 -0.3487  0.4724 -0.4951
  187SLPC   C3121532   1.621   0.751   6.861 -0.2208  0.4218  0.3459
  187SLPC   O3221533   1.644   0.733   6.744 -0.0570  0.6394 -0.6793
  187SLPC   C3221534   1.565   0.640   6.951  0.3899 -0.4522 -0.2581
  187SLPC   H2X21535   1.633   0.552   6.955 -0.2993 -0.9838 -0.2128
  187SLPC   H2Y21536   1.462   0.611   6.920  0.4698 -0.8557 -0.1520
  187SLPC   C2321537   1.082   0.901   6.937  0.3086 -0.5975  0.4878
  187SLPC   H3R21538   1.045   0.840   6.852  0.8764  2.1932 -1.8483
  187SLPC   H3S21539   0.993   0.958   6.972 -0.8147 -1.6734 -0.5275
  187SLPC   C2421540   1.130   0.831   7.062 -0.0969 -0.2032  0.1359
  187SLPC   H4R21541   1.193   0.906   7.114 -0.7496  1.5864 -1.5944
  187SLPC   H4S21542   1.186   0.746   7.017 -1.7472 -0.6851 -1.0524
  187SLPC   C2521543   1.013   0.769   7.143  0.0607  0.3013  0.2596
  187SLPC   H5R21544   0.963   0.694   7.079  1.6171  0.3446 -1.0297
  187SLPC   H5S21545   0.941   0.849   7.172  1.1592  2.1156 -1.9098
  187SLPC   C2621546   1.072   0.704   7.267 -0.6608 -0.1310  0.2710
  187SLPC   H6R21547   1.096   0.780   7.344 -1.1473  0.3852 -0.0881
  187SLPC   H6S21548   1.156   0.636   7.241 -1.5678 -1.6086  1.0978
  187SLPC   C2721549   0.980   0.607   7.341  0.1292 -0.3287  0.0595
  187SLPC   H7R21550   1.035   0.570   7.430 -1.1549  0.3686  1.1772
  187SLPC   H7S21551   0.952   0.518   7.281  2.8431 -2.3858  1.7125
  187SLPC   C2821552   0.842   0.673   7.381 -0.4359  0.3600 -0.1093
  187SLPC   H8R21553   0.769   0.593   7.404  1.3400 -0.8690  1.4203
  187SLPC   H8S21554   0.810   0.724   7.288 -0.0191  3.1585  1.2206
  187SLPC   C2921555   0.862   0.774   7.497 -1.0438 -0.4387 -0.2655
  187SLPC   H9R21556   0.952   0.837   7.490  0.2996 -2.3068 -0.0703
  187SLPC  C21021557   0.796   0.782   7.610 -0.8426  0.3508  0.5494
  187SLPC  H10R21558   0.828   0.856   7.686 -1.6790  1.7403 -0.4381
  187SLPC  C21121559   0.683   0.693   7.649 -0.6060 -0.5270 -0.2294
  187SLPC  H11R21560   0.717   0.638   7.740 -0.7114  0.1304  0.2131
  187SLPC  H11S21561   0.670   0.612   7.574  1.9141  0.0127 -1.2898
  187SLPC  C21221562   0.560   0.778   7.676 -0.1841 -0.2588 -0.2078
  187SLPC  H12R21563   0.535   0.835   7.585  0.2696 -1.1618 -0.9048
  187SLPC  C21321564   0.503   0.798   7.797 -0.3423  0.2777 -0.5969
  187SLPC  H13R21565   0.408   0.853   7.806  0.6013  1.5392  2.5181
  187SLPC  C21421566   0.557   0.743   7.926  1.0708  0.1413  0.5173
  187SLPC  H14R21567   0.521   0.802   8.014 -1.8137  0.8661 -1.0972
  187SLPC  H14S21568   0.667   0.756   7.923  1.0391  0.2459 -0.1389
  187SLPC  C21521569   0.528   0.587   7.949  0.7668  0.3628  0.0562
  187SLPC  H15R21570   0.543   0.537   7.851  0.6311 -2.0076  1.2002
  187SLPC  H15S21571   0.418   0.569   7.956  0.4573  2.1701  0.1922
  187SLPC  C21621572   0.606   0.510   8.064  0.0936  0.0973 -0.4581
  187SLPC  H16R21573   0.713   0.513   8.037 -0.3223 -3.5424 -2.8976
  187SLPC  H16S21574   0.575   0.403   8.066 -1.7323  0.6112 -0.2993
  187SLPC  C21721575   0.578   0.571   8.210 -0.5037  1.1916 -0.0421
  187SLPC  H17R21576   0.472   0.539   8.226  0.1669 -0.8611  0.4901
  187SLPC  H17S21577   0.601   0.679   8.208  1.5581  0.7790  0.5769
  187SLPC  C21821578   0.651   0.498   8.324 -0.0385 -0.2156 -0.1450
  187SLPC  H18R21579   0.750   0.467   8.286  0.3251 -2.0161  2.1096
  187SLPC  H18S21580   0.592   0.409   8.354 -2.1605  1.3172  0.4183
  187SLPC  H18T21581   0.668   0.558   8.416  0.4172 -0.8676  0.1999
  187SLPC   C3321582   1.555   0.672   7.102 -0.2121 -0.0699 -0.2439
  187SLPC   H3X21583   1.510   0.772   7.122 -0.6443 -0.8826  3.0981
  187SLPC   H3Y21584   1.657   0.687   7.144 -0.0993 -2.0413  0.2188
  187SLPC   C3421585   1.478   0.583   7.193 -0.5974  0.0026 -0.6332
  187SLPC   H4X21586   1.515   0.479   7.200  1.0949  0.5256 -1.4235
  187SLPC   H4Y21587   1.376   0.576   7.150 -0.7281 -0.3758 -0.2650
  187SLPC   C3521588   1.467   0.642   7.338  0.4627 -0.6256 -0.2716
  187SLPC   H5X21589   1.424   0.744   7.349  1.2265 -0.2196 -0.9913
  187SLPC   H5Y21590   1.572   0.651   7.374  0.5529 -1.0750 -0.4151
  187SLPC   C3621591   1.381   0.562   7.438 -0.2529  0.0682 -0.2684
  187SLPC   H6X21592   1.420   0.459   7.425  0.5019  0.5357 -1.7959
  187SLPC   H6Y21593   1.279   0.561   7.394 -2.0517  1.0756  3.6455
  187SLPC   C3721594   1.378   0.617   7.586 -0.4256  0.3034 -1.0104
  187SLPC   H7X21595   1.323   0.540   7.643  1.8370 -0.1056  0.6622
  187SLPC   H7Y21596   1.482   0.600   7.621 -0.7763 -1.3752 -0.7290
  187SLPC   C3821597   1.340   0.764   7.618 -0.0477  0.2268 -0.1778
  187SLPC   H8X21598   1.254   0.784   7.550  0.1500 -1.2678 -0.8909
  187SLPC   H8Y21599   1.423   0.834   7.594  1.0499 -1.6255 -1.9224
  187SLPC   C3921600   1.297   0.781   7.768  0.0896  0.8494 -0.0432
  187SLPC   H9X21601   1.331   0.884   7.796  3.6550 -0.3974  0.4708
  187SLPC   H9Y21602   1.361   0.709   7.823 -0.3553  1.3351  1.1478
  187SLPC  C31021603   1.148   0.756   7.794  0.3684 -0.3196 -0.0120
  187SLPC  H10X21604   1.120   0.649   7.790 -0.2187 -0.1529 -0.3898
  187SLPC  H10Y21605   1.091   0.807   7.713  0.6975 -0.0413 -0.0697
  187SLPC  C31121606   1.087   0.816   7.921  0.4692  0.6896  0.8713
  187SLPC  H11X21607   0.983   0.785   7.901  0.8141  1.7293 -2.7797
  187SLPC  H11Y21608   1.086   0.927   7.925  2.0267  0.7735 -0.3157
  187SLPC  C31221609   1.124   0.751   8.060 -0.5181 -0.1553  0.8828
  187SLPC  H12X21610   1.232   0.767   8.083 -0.1647  1.2651 -1.5753
  187SLPC  H12Y21611   1.129   0.640   8.061  1.3881 -0.1034  3.1526
  187SLPC  C31321612   1.031   0.800   8.179  0.0592 -0.0717  0.1226
  187SLPC  H13X21613   0.923   0.797   8.152  0.2426  0.1177 -0.6446
  187SLPC  H13Y21614   1.045   0.909   8.189  1.7255 -0.3313  0.6534
  187SLPC  C31421615   1.082   0.729   8.306  0.1158 -0.2414 -1.2739
  187SLPC  H14X21616   1.169   0.790   8.337  0.2090 -0.8007 -0.3896
  187SLPC  H14Y21617   1.109   0.621   8.297  1.2957 -0.0076 -0.6941
  187SLPC  C31521618   0.993   0.748   8.429 -0.7769 -0.0173 -0.3588
  187SLPC  H15X21619   0.886   0.760   8.400 -0.8739  2.1846  0.8538
  187SLPC  H15Y21620   1.018   0.847   8.470 -1.2261 -0.5125  1.1509
  187SLPC  C31621621   1.006   0.643   8.540 -0.6559 -0.6633 -0.2893
  187SLPC  H16X21622   1.116   0.634   8.553 -0.5485  0.6350 -0.1499
  187SLPC  H16Y21623   0.949   0.554   8.507  0.7146 -1.6765  0.0919
  187SLPC  C31721624   0.952   0.684   8.676 -0.3653 -0.4298  0.0932
  187SLPC  H17X21625   0.988   0.784   8.710 -1.1872  0.0002 -0.2666
  187SLPC  H17Y21626   0.987   0.610   8.751 -0.7618 -3.1544 -2.3127
  187SLPC  C31821627   0.805   0.727   8.699 -0.4967  0.6711 -0.0509
  187SLPC  H18X21628   0.769   0.686   8.795 -0.2079 -0.7018 -0.5075
  187SLPC  H18Y21629   0.741   0.673   8.625 -0.2236  0.0337  0.1752
  187SLPC  H18Z21630   0.790   0.837   8.700  0.6891  0.8856 -1.8391
  188SLPC     N21631   2.604   2.387   6.193 -0.0594  0.0542 -0.2654
  188SLPC   C1321632   2.735   2.434   6.235 -0.3224  0.7965  0.7506
  188SLPC  H13A21633   2.804   2.405   6.157 -2.6435  1.3297 -1.5871
  188SLPC  H13B21634   2.740   2.542   6.235  1.9830  0.7222  1.1320
  188SLPC  H13C21635   2.767   2.389   6.327  1.0227 -3.5530 -1.7067
  188SLPC   C1421636   2.580   2.249   6.239 -0.3199 -0.5313 -0.1618
  188SLPC  H14A21637   2.478   2.218   6.221 -1.6876  4.0026 -0.6987
  188SLPC  H14B21638   2.649   2.177   6.196 -1.5841 -1.0858 -1.3093
  188SLPC  H14C21639   2.589   2.241   6.346  1.4475 -2.1075 -0.3865
  188SLPC   C1521640   2.607   2.395   6.041  0.0450 -0.0119  0.1589
  188SLPC  H15A21641   2.592   2.494   6.002 -0.5540  0.1216  0.7222
  188SLPC  H15B21642   2.703   2.367   6.000  0.9578  2.2804  0.7085
  188SLPC  H15C21643   2.536   2.337   5.984  0.9763 -0.8290 -0.1818
  188SLPC   C1221644   2.494   2.482   6.243  0.6648  0.1938  0.4303
  188SLPC  H12A21645   2.398   2.458   6.198  0.5971  2.1895 -0.5469
  188SLPC  H12B21646   2.512   2.580   6.202  1.0259 -0.3015 -0.6224
  188SLPC   C1121647   2.466   2.477   6.395  0.1429 -0.1344 -0.1549
  188SLPC  H11A21648   2.459   2.369   6.418 -0.7275  0.4213  2.3653
  188SLPC  H11B21649   2.366   2.521   6.416  0.5703  1.9006 -2.1569
  188SLPC     P21650   2.580   2.693   6.481 -0.0782 -0.1719  0.0023
  188SLPC   O1321651   2.699   2.721   6.567  0.1649 -0.1935  0.9246
  188SLPC   O1421652   2.575   2.755   6.343 -0.3174  0.3232 -0.1835
  188SLPC   O1221653   2.570   2.535   6.469 -0.3628 -0.2091  0.4776
  188SLPC   O1121654   2.446   2.728   6.559  0.1849 -0.0297 -0.0039
  188SLPC    C121655   2.422   2.686   6.701  0.4888 -0.3695  0.1486
  188SLPC    HA21656   2.386   2.581   6.693 -0.4314 -0.1927  1.8329
  188SLPC    HB21657   2.514   2.687   6.764  0.9568 -0.1439 -0.5325
  188SLPC    C221658   2.323   2.782   6.766 -0.0814  0.2899  0.7644
  188SLPC    HS21659   2.379   2.878   6.765 -0.2529  0.3971  1.3497
  188SLPC   O2121660   2.293   2.736   6.896  0.0469  0.4656 -1.0562
  188SLPC   C2121661   2.266   2.823   6.993 -0.3273  0.2300  0.7918
  188SLPC   O2221662   2.276   2.941   6.980 -0.2264 -0.4719  0.4799
  188SLPC   C2221663   2.230   2.750   7.125  0.2378 -0.5282  0.8111
  188SLPC   H2R21664   2.190   2.652   7.091 -0.4422  0.0133  0.0189
  188SLPC   H2S21665   2.326   2.728   7.175  1.9653  1.7741 -1.3274
  188SLPC    C321666   2.203   2.794   6.662  0.5021  0.3708 -0.3126
  188SLPC    HX21667   2.144   2.701   6.679  2.2311 -0.5226  1.0529
  188SLPC    HY21668   2.244   2.783   6.559 -1.5786 -1.8358 -0.9743
  188SLPC   O3121669   2.126   2.911   6.688 -0.2193 -0.7035  0.1653
  188SLPC   C3121670   2.029   2.948   6.610 -0.4755  0.3192  0.0734
  188SLPC   O3221671   1.996   2.889   6.504 -0.4252 -0.2373 -0.1249
  188SLPC   C3221672   1.951   3.049   6.683 -0.4813  0.7973 -0.1267
  188SLPC   H2X21673   1.857   3.054   6.624 -0.0317 -1.9027 -1.1399
  188SLPC   H2Y21674   2.007   3.143   6.667  2.1301 -0.5840  0.6799
  188SLPC   C2321675   2.118   2.819   7.196  0.6504 -0.2629  0.2623
  188SLPC   H3R21676   2.034   2.819   7.124  0.2262 -1.7541  0.7375
  188SLPC   H3S21677   2.146   2.926   7.208  0.6036 -0.2476  0.2339
  188SLPC   C2421678   2.083   2.748   7.327  0.3905 -0.1411 -0.0875
  188SLPC   H4R21679   2.044   2.646   7.308 -0.0201  0.0573 -0.3125
  188SLPC   H4S21680   2.001   2.799   7.381  0.2144 -1.5888  1.0477
  188SLPC   C2521681   2.204   2.722   7.414 -0.1102  0.5167 -0.0207
  188SLPC   H5R21682   2.283   2.797   7.390  1.9915 -1.1936  1.2644
  188SLPC   H5S21683   2.257   2.634   7.372 -1.1868 -0.0775 -0.1480
  188SLPC   C2621684   2.159   2.708   7.554  0.0766 -0.3288  0.2709
  188SLPC   H6R21685   2.123   2.804   7.595 -0.3191  0.0953 -1.0345
  188SLPC   H6S21686   2.256   2.688   7.605  0.4610 -1.5521 -0.8776
  188SLPC   C2721687   2.059   2.593   7.580 -0.0955  0.3473 -0.2090
  188SLPC   H7R21688   2.084   2.501   7.522 -1.0511 -0.2134  0.2550
  188SLPC   H7S21689   1.957   2.627   7.555  0.4486  0.4706 -2.3566
  188SLPC   C2821690   2.067   2.548   7.736 -0.1744  0.0186  0.0131
  188SLPC   H8R21691   2.170   2.512   7.757  0.0351 -0.2368 -1.4322
  188SLPC   H8S21692   1.993   2.466   7.749 -1.3172  1.2626  1.6605
  188SLPC   C2921693   2.036   2.655   7.837  0.2498  0.2698 -1.0449
  188SLPC   H9R21694   1.946   2.714   7.815 -0.6978 -1.0097 -0.6550
  188SLPC  C21021695   2.101   2.684   7.955 -0.0536  0.2340 -0.3050
  188SLPC  H10R21696   2.053   2.750   8.028 -1.6061  1.1400 -2.0892
  188SLPC  C21121697   2.218   2.607   8.015 -0.3184 -0.1473  0.9523
  188SLPC  H11R21698   2.265   2.662   8.099  0.4518 -1.1921  1.2104
  188SLPC  H11S21699   2.301   2.586   7.944  0.0976 -0.0427  1.4035
  188SLPC  C21221700   2.178   2.472   8.058 -0.9692 -0.5966 -0.3357
  188SLPC  H12R21701   2.160   2.405   7.973  0.1109 -0.3050 -0.8051
  188SLPC  C21321702   2.169   2.421   8.184 -0.2314  0.1536  0.1842
  188SLPC  H13R21703   2.137   2.316   8.196 -1.9570  0.5275 -0.9049
  188SLPC  C21421704   2.194   2.488   8.317  0.2209 -0.3455  1.0853
  188SLPC  H14R21705   2.232   2.591   8.301  1.3620 -0.7241  1.2973
  188SLPC  H14S21706   2.269   2.446   8.387  0.9083 -0.4810  0.2709
  188SLPC  C21521707   2.056   2.498   8.390  0.7708 -0.0680 -0.2365
  188SLPC  H15R21708   2.035   2.392   8.415  0.7637 -0.7398 -3.0163
  188SLPC  H15S21709   1.976   2.527   8.319  0.8899  2.7201  0.7029
  188SLPC  C21621710   2.052   2.597   8.506  0.0658  0.0877  0.1277
  188SLPC  H16R21711   2.137   2.563   8.569  1.8236  1.1336 -1.6160
  188SLPC  H16S21712   1.955   2.581   8.558  0.7776 -0.0551  1.4171
  188SLPC  C21721713   2.068   2.745   8.472  0.1755 -0.6434 -0.1705
  188SLPC  H17R21714   1.987   2.776   8.403 -0.7518 -1.2494  0.6282
  188SLPC  H17S21715   2.166   2.757   8.421 -0.2423 -1.2502 -1.1342
  188SLPC  C21821716   2.052   2.817   8.607 -1.1482 -0.2959  0.3429
  188SLPC  H18R21717   2.126   2.781   8.682 -1.0117 -1.6864 -0.4462
  188SLPC  H18S21718   1.954   2.804   8.657 -0.7257  0.5246  1.4088
  188SLPC  H18T21719   2.052   2.926   8.585 -1.7353 -0.2550  0.5276
  188SLPC   C3321720   1.934   3.024   6.831  0.5850 -0.0076  0.4618
  188SLPC   H3X21721   2.022   3.052   6.893  0.5489  0.7573  0.1716
  188SLPC   H3Y21722   1.924   2.917   6.861 -2.0861  0.1386  0.1760
  188SLPC   C3421723   1.808   3.081   6.898  0.0881 -0.1821  0.3718
  188SLPC   H4X21724   1.713   3.026   6.884 -2.0647  3.0401  1.6276
  188SLPC   H4Y21725   1.789   3.183   6.859 -0.8003 -0.2317  0.6789
  188SLPC   C3521726   1.830   3.099   7.049  0.1634  0.3700 -0.6703
  188SLPC   H5X21727   1.904   3.182   7.047  0.0227  0.5461  0.7058
  188SLPC   H5Y21728   1.873   3.012   7.103 -1.5486 -0.5561 -0.7477
  188SLPC   C3621729   1.714   3.134   7.144  0.3802 -0.2464  0.5007
  188SLPC   H6X21730   1.633   3.059   7.139 -2.1453  2.4543 -0.7271
  188SLPC   H6Y21731   1.662   3.225   7.107 -0.6522 -1.6997 -1.7538
  188SLPC   C3721732   1.749   3.171   7.289 -0.0991 -0.1375  0.3706
  188SLPC   H7X21733   1.655   3.202   7.340 -0.5598 -0.2693 -0.3883
  188SLPC   H7Y21734   1.823   3.254   7.285  0.8210 -0.8478  2.1119
  188SLPC   C3821735   1.810   3.056   7.363 -0.7742 -0.2416  0.2058
  188SLPC   H8X21736   1.907   3.043   7.312 -1.1717  1.1870 -0.9430
  188SLPC   H8Y21737   1.741   2.974   7.334 -1.3106 -0.0879  1.0042
  188SLPC   C3921738   1.835   3.080   7.512  0.1047  0.4113  0.0770
  188SLPC   H9X21739   1.900   3.169   7.527 -0.3189  1.1924 -2.3983
  188SLPC   H9Y21740   1.875   2.992   7.566 -1.3606  1.2000  2.5490
  188SLPC  C31021741   1.709   3.119   7.601  0.1566  0.7465 -0.4595
  188SLPC  H10X21742   1.627   3.053   7.566  0.9853 -0.4576 -0.1856
  188SLPC  H10Y21743   1.698   3.226   7.576  0.9124  0.2670 -3.0090
  188SLPC  C31121744   1.738   3.119   7.755 -0.4176  0.4899  0.3761
  188SLPC  H11X21745   1.834   3.168   7.784 -0.2323  2.5304 -3.3991
  188SLPC  H11Y21746   1.740   3.018   7.801 -0.2474  0.8747  1.2215
  188SLPC  C31221747   1.635   3.200   7.834  0.2039 -0.6083 -0.1542
  188SLPC  H12X21748   1.540   3.143   7.821 -1.6903  2.1543  1.0383
  188SLPC  H12Y21749   1.616   3.302   7.794 -2.8445 -1.3484 -0.6911
  188SLPC  C31321750   1.669   3.213   7.982 -0.6316  0.4161 -0.0604
  188SLPC  H13X21751   1.588   3.267   8.036 -2.0071 -0.5209 -1.1485
  188SLPC  H13Y21752   1.760   3.276   7.972 -1.6937  1.9354 -0.3928
  188SLPC  C31421753   1.723   3.085   8.057 -0.5978  0.2923 -0.1175
  188SLPC  H14X21754   1.820   3.054   8.014  1.5545  1.9506  3.3303
  188SLPC  H14Y21755   1.652   3.002   8.037  1.2931 -1.8132  1.6393
  188SLPC  C31521756   1.752   3.097   8.204 -0.0299 -0.0391  0.1018
  188SLPC  H15X21757   1.660   3.134   8.256 -0.4592 -2.3630  1.0309
  188SLPC  H15Y21758   1.839   3.165   8.213 -0.5751  0.5653  0.9156
  188SLPC  C31621759   1.791   2.962   8.278  0.3010 -0.1403  1.0379
  188SLPC  H16X21760   1.834   2.983   8.378  1.7465 -2.0055  0.8406
  188SLPC  H16Y21761   1.880   2.914   8.230  0.9537  1.0554  1.0277
  188SLPC  C31721762   1.670   2.868   8.291 -0.0145  0.7373 -0.2628
  188SLPC  H17X21763   1.647   2.826   8.191  1.3632  1.2854 -0.8248
  188SLPC  H17Y21764   1.587   2.925   8.337 -1.9563 -1.5896 -0.7667
  188SLPC  C31821765   1.688   2.752   8.389 -0.5605  0.0128  0.1229
  188SLPC  H18X21766   1.722   2.787   8.489  0.9463 -1.0289 -0.0029
  188SLPC  H18Y21767   1.772   2.696   8.342 -0.0794  1.0278 -0.2395
  188SLPC  H18Z21768   1.597   2.690   8.404  0.1865 -1.0785  0.2017
  189SLPC     N21769   4.661   4.237   6.142 -0.1980  1.0300  0.2257
  189SLPC   C1321770   4.695   4.354   6.061 -0.1959  0.1990  0.0972
  189SLPC  H13A21771   4.774   4.411   6.107 -1.3463  0.3891  1.8721
  189SLPC  H13B21772   4.726   4.324   5.962  0.0914  3.0269 -0.7148
  189SLPC  H13C21773   4.601   4.406   6.044 -0.8784 -1.8777 -2.7985
  189SLPC   C1421774   4.560   4.157   6.066  0.5105 -0.1021 -0.2457
  189SLPC  H14A21775   4.579   4.139   5.961  1.9483 -0.6180  0.0844
  189SLPC  H14B21776   4.540   4.067   6.121  0.0044 -0.7123 -1.4160
  189SLPC  H14C21777   4.468   4.211   6.083  0.4463 -0.7621  1.6389
  189SLPC   C1521778   4.596   4.277   6.275 -0.2893  0.2511  0.1766
  189SLPC  H15A21779   4.635   4.364   6.325  0.3331 -0.6644  1.3025
  189SLPC  H15B21780   4.489   4.283   6.260 -0.4755  0.7840  1.6022
  189SLPC  H15C21781   4.619   4.193   6.339  1.5747 -1.3714 -2.5128
  189SLPC   C1221782   4.791   4.162   6.171 -0.2967 -0.0526  0.5241
  189SLPC  H12A21783   4.846   4.219   6.245 -2.2201 -0.2896  2.1679
  189SLPC  H12B21784   4.863   4.163   6.090 -0.7582  0.2884  0.1214
  189SLPC   C1121785   4.784   4.012   6.223 -0.1954  0.7273 -0.0473
  189SLPC  H11A21786   4.889   3.987   6.249 -0.4308 -0.0019  0.2216
  189SLPC  H11B21787   4.747   3.942   6.146  0.1204  0.3224  0.1674
  189SLPC     P21788   4.655   3.866   6.407 -0.3061 -0.1014  0.0347
  189SLPC   O1321789   4.604   3.774   6.302  0.7403  0.0907 -0.3192
  189SLPC   O1421790   4.770   3.826   6.487 -0.8398  0.0710  0.1996
  189SLPC   O1221791   4.700   4.002   6.337 -0.0020 -0.2941 -0.5779
  189SLPC   O1121792   4.545   3.910   6.509  0.1318 -0.1412 -0.0339
  189SLPC    C121793   4.451   4.010   6.468 -0.2454  0.5275  0.6533
  189SLPC    HA21794   4.492   4.109   6.498 -0.5079  0.5069  1.0911
  189SLPC    HB21795   4.423   4.000   6.361  3.3519  2.0625 -0.5155
  189SLPC    C221796   4.321   4.008   6.550  0.0444  0.0934 -0.8080
  189SLPC    HS21797   4.265   4.099   6.520 -0.1442  0.2342 -0.0379
  189SLPC   O2121798   4.349   3.999   6.691 -0.5103 -0.3804  0.0807
  189SLPC   C2121799   4.393   4.110   6.743  0.4317 -0.0021 -0.0799
  189SLPC   O2221800   4.395   4.220   6.694 -0.2355 -0.2019  0.1941
  189SLPC   C2221801   4.451   4.079   6.884  0.7270 -0.3492 -0.2517
  189SLPC   H2R21802   4.388   4.005   6.938  0.8251 -1.3940 -1.5397
  189SLPC   H2S21803   4.549   4.028   6.870  0.2579 -0.8221 -1.9077
  189SLPC    C321804   4.233   3.882   6.509 -1.2174  0.4326  0.6185
  189SLPC    HX21805   4.298   3.793   6.522  0.5091  1.6180  0.3922
  189SLPC    HY21806   4.217   3.894   6.400 -0.1937  1.5086  0.5737
  189SLPC   O3121807   4.114   3.884   6.592  0.1317  0.0525 -0.4073
  189SLPC   C3121808   4.107   3.794   6.683  0.2855 -0.2308  0.6439
  189SLPC   O3221809   4.188   3.711   6.717  0.1035 -0.1309  0.2068
  189SLPC   C3221810   3.974   3.817   6.749 -0.8019  0.2308 -0.5865
  189SLPC   H2X21811   3.910   3.730   6.722 -1.0743  0.6471 -1.3003
  189SLPC   H2Y21812   3.922   3.914   6.732  1.4555  0.8393 -4.6640
  189SLPC   C2321813   4.455   4.212   6.973  0.9280 -0.0708 -0.3163
  189SLPC   H3R21814   4.360   4.211   7.030  0.8165  0.3738 -0.4893
  189SLPC   H3S21815   4.451   4.302   6.907  0.7212 -0.9986 -1.5788
  189SLPC   C2421816   4.575   4.225   7.069  0.1029 -0.0944 -0.3058
  189SLPC   H4R21817   4.595   4.327   7.106 -0.8460  0.2962 -0.8690
  189SLPC   H4S21818   4.657   4.200   6.999 -0.6173  0.6371 -1.4296
  189SLPC   C2521819   4.587   4.125   7.190  0.5575  0.0989  0.4414
  189SLPC   H5R21820   4.683   4.144   7.241  1.0895 -1.5837  0.0784
  189SLPC   H5S21821   4.593   4.018   7.161 -1.2421  0.0628  0.1216
  189SLPC   C2621822   4.477   4.136   7.295  0.8513 -0.2270 -0.1792
  189SLPC   H6R21823   4.378   4.109   7.251  1.3718  0.2433 -1.6843
  189SLPC   H6S21824   4.473   4.241   7.331  1.5293 -0.8524  1.7638
  189SLPC   C2721825   4.504   4.041   7.416 -0.3283 -0.0638 -0.8451
  189SLPC   H7R21826   4.603   4.073   7.455 -0.3457  0.4762 -1.2375
  189SLPC   H7S21827   4.518   3.940   7.373 -1.7661 -0.4215 -0.4681
  189SLPC   C2821828   4.402   4.033   7.529 -0.2343 -0.2413 -0.0263
  189SLPC   H8R21829   4.433   3.951   7.598 -0.5349 -1.9653 -1.9146
  189SLPC   H8S21830   4.309   4.005   7.476 -0.7035  0.1341  0.5858
  189SLPC   C2921831   4.390   4.165   7.599  0.1999 -0.2838 -0.7784
  189SLPC   H9R21832   4.368   4.246   7.527 -1.0948  0.7953  0.7718
  189SLPC  C21021833   4.388   4.185   7.734  0.4059 -0.8764 -0.0300
  189SLPC  H10R21834   4.369   4.284   7.778  0.0382 -0.3609 -1.3229
  189SLPC  C21121835   4.402   4.081   7.844 -0.6305 -0.1096  0.2902
  189SLPC  H11R21836   4.466   4.119   7.925  0.7145 -1.0645 -0.2920
  189SLPC  H11S21837   4.451   3.986   7.811 -0.8377 -0.7135  1.6722
  189SLPC  C21221838   4.266   4.054   7.906 -0.3268 -0.0105  0.1747
  189SLPC  H12R21839   4.184   4.036   7.835 -1.1535  2.1270  0.5471
  189SLPC  C21321840   4.241   4.051   8.041  0.3337 -0.1723  0.2833
  189SLPC  H13R21841   4.143   4.017   8.078  0.2790 -1.8360 -1.3514
  189SLPC  C21421842   4.351   4.081   8.145  0.2703 -0.6661  0.4781
  189SLPC  H14R21843   4.377   4.187   8.129 -0.1673 -0.6947 -0.4491
  189SLPC  H14S21844   4.449   4.029   8.132 -0.5225 -1.3516 -3.1162
  189SLPC  C21521845   4.303   4.064   8.293 -0.4894  0.3554  0.2739
  189SLPC  H15R21846   4.400   4.052   8.345 -0.1653  0.4866 -0.2892
  189SLPC  H15S21847   4.246   3.969   8.289  0.4664 -0.2363  0.4919
  189SLPC  C21621848   4.211   4.165   8.368  0.4236 -0.0287 -0.2671
  189SLPC  H16R21849   4.122   4.187   8.305  0.3068  2.9237  0.8500
  189SLPC  H16S21850   4.268   4.259   8.381  0.3053  0.0231 -0.1273
  189SLPC  C21721851   4.171   4.124   8.511  0.9551 -0.0387 -0.0308
  189SLPC  H17R21852   4.117   4.027   8.503  0.7480 -0.1076  2.0396
  189SLPC  H17S21853   4.094   4.196   8.544 -0.1014 -2.0125  1.8827
  189SLPC  C21821854   4.291   4.135   8.616  0.4575 -0.5350  0.4109
  189SLPC  H18R21855   4.271   4.093   8.716  1.4522 -2.8437 -0.3426
  189SLPC  H18S21856   4.310   4.243   8.633 -1.0872 -0.6054  2.8111
  189SLPC  H18T21857   4.385   4.087   8.583  0.4834  1.0366 -1.9733
  189SLPC   C3321858   3.992   3.803   6.899 -0.1701 -0.4966 -0.3290
  189SLPC   H3X21859   4.089   3.848   6.929 -1.1243  2.2687 -1.3094
  189SLPC   H3Y21860   4.021   3.696   6.912  0.5997 -0.4150 -1.3835
  189SLPC   C3421861   3.863   3.842   6.970  0.4822  0.0680  0.3144
  189SLPC   H4X21862   3.781   3.790   6.917 -0.2388  0.3694  1.1244
  189SLPC   H4Y21863   3.842   3.951   6.968  0.8985  0.1580  0.7563
  189SLPC   C3521864   3.864   3.818   7.124  0.1127  0.1550  0.2941
  189SLPC   H5X21865   3.955   3.867   7.165 -0.4399  0.5547  1.0537
  189SLPC   H5Y21866   3.875   3.708   7.123  3.0654  0.4066 -0.8755
  189SLPC   C3621867   3.745   3.878   7.204  0.6067  0.6237  0.1732
  189SLPC   H6X21868   3.646   3.856   7.159 -1.3464  2.8922  3.1152
  189SLPC   H6Y21869   3.746   3.989   7.207 -0.2562  0.7818 -3.5716
  189SLPC   C3721870   3.748   3.836   7.361  0.3260  0.9116  0.2212
  189SLPC   H7X21871   3.852   3.845   7.398  0.1880 -0.6841  1.0656
  189SLPC   H7Y21872   3.725   3.728   7.374 -2.5439  1.1451 -2.2037
  189SLPC   C3821873   3.637   3.906   7.435  0.5636  0.1111 -0.1927
  189SLPC   H8X21874   3.537   3.866   7.409 -0.2292  0.6864  1.8174
  189SLPC   H8Y21875   3.656   4.013   7.411  0.3494  0.7536  2.3320
  189SLPC   C3921876   3.645   3.883   7.589  0.5903 -0.2878 -0.2230
  189SLPC   H9X21877   3.748   3.907   7.623  1.1074  0.2236 -2.0505
  189SLPC   H9Y21878   3.641   3.774   7.605 -0.0669 -0.2981 -0.4192
  189SLPC  C31021879   3.533   3.945   7.680 -0.2504 -0.4139  0.0533
  189SLPC  H10X21880   3.436   3.925   7.630  0.5244 -0.3297 -1.5168
  189SLPC  H10Y21881   3.553   4.054   7.678 -1.0420 -0.2201  1.8851
  189SLPC  C31121882   3.554   3.890   7.819  0.2609  0.4802  0.0828
  189SLPC  H11X21883   3.661   3.886   7.847  0.1674  3.1545  1.0205
  189SLPC  H11Y21884   3.525   3.783   7.812  1.2507  0.2028  0.2541
  189SLPC  C31221885   3.474   3.965   7.930  0.0415  0.1393  0.2334
  189SLPC  H12X21886   3.374   3.947   7.886 -0.4796  0.2270  1.3737
  189SLPC  H12Y21887   3.507   4.071   7.935  0.5471  0.1384 -2.5173
  189SLPC  C31321888   3.472   3.894   8.068 -0.3874 -0.0535 -0.4763
  189SLPC  H13X21889   3.573   3.851   8.083 -0.2288  1.2362  2.5823
  189SLPC  H13Y21890   3.408   3.805   8.052 -1.1496  0.5482 -0.7755
  189SLPC  C31421891   3.435   3.994   8.176  0.2897 -0.5246  0.0336
  189SLPC  H14X21892   3.347   4.044   8.130 -0.3074  0.7386  2.4413
  189SLPC  H14Y21893   3.516   4.065   8.202 -0.5874  0.7151 -0.5228
  189SLPC  C31521894   3.390   3.915   8.304  0.3531 -1.1185  0.2030
  189SLPC  H15X21895   3.470   3.843   8.333  2.7338  1.6068  0.6881
  189SLPC  H15Y21896   3.303   3.857   8.266  0.9244 -1.3628 -0.7524
  189SLPC  C31621897   3.340   4.017   8.414 -1.0550 -0.5687 -0.0688
  189SLPC  H16X21898   3.271   4.086   8.362 -0.8708 -0.3069  0.0357
  189SLPC  H16Y21899   3.427   4.083   8.433 -0.8186 -1.0761  0.6546
  189SLPC  C31721900   3.279   3.960   8.548  0.2065  0.2942  0.2686
  189SLPC  H17X21901   3.346   3.880   8.585 -0.3149 -0.0564  0.4652
  189SLPC  H17Y21902   3.181   3.911   8.529 -0.7226  2.3328 -0.4110
  189SLPC  C31821903   3.254   4.069   8.652  0.3653  0.4243  0.1439
  189SLPC  H18X21904   3.345   4.131   8.661  1.3618 -1.2161  2.1125
  189SLPC  H18Y21905   3.222   4.031   8.752  0.0436  1.2397  0.3483
  189SLPC  H18Z21906   3.168   4.129   8.616  0.4809  1.4716  1.5392
  190SLPC     N21907   4.629   3.445   6.439 -0.5296  0.1990 -0.1785
  190SLPC   C1321908   4.735   3.500   6.530  1.0901 -0.0240 -0.4335
  190SLPC  H13A21909   4.713   3.480   6.634  2.2061  1.0375  0.0294
  190SLPC  H13B21910   4.830   3.450   6.517 -0.6858 -4.3223  2.0204
  190SLPC  H13C21911   4.764   3.603   6.516  1.3731 -0.0443 -0.0234
  190SLPC   C1421912   4.609   3.303   6.453 -0.1086  0.3456 -0.0173
  190SLPC  H14A21913   4.540   3.280   6.533 -1.9034  2.2231 -0.9991
  190SLPC  H14B21914   4.569   3.258   6.363 -0.4543  1.7929 -0.5953
  190SLPC  H14C21915   4.709   3.267   6.475  0.1740  0.1862 -1.5279
  190SLPC   C1521916   4.676   3.475   6.300 -0.6699  0.6554  0.2839
  190SLPC  H15A21917   4.774   3.433   6.284 -0.9824 -0.8123  2.0186
  190SLPC  H15B21918   4.609   3.436   6.225  0.3256 -1.8185  0.6174
  190SLPC  H15C21919   4.687   3.580   6.282 -0.9829  0.3720 -1.6120
  190SLPC   C1221920   4.495   3.520   6.464  0.0681  0.0478  0.2639
  190SLPC  H12A21921   4.522   3.624   6.465  0.2110  0.0282 -1.2459
  190SLPC  H12B21922   4.461   3.496   6.564 -0.7798 -0.6738 -0.1918
  190SLPC   C1121923   4.380   3.500   6.372  0.4835  0.6133  0.5611
  190SLPC  H11A21924   4.419   3.528   6.272  0.3887 -1.1025  0.0278
  190SLPC  H11B21925   4.296   3.569   6.394  0.2942  0.0449  1.6543
  190SLPC     P21926   4.246   3.299   6.253  0.1774  0.2324 -0.8231
  190SLPC   O1321927   4.186   3.408   6.171  0.3148 -0.4030  0.1036
  190SLPC   O1421928   4.324   3.198   6.187  0.4744  0.5678 -0.4725
  190SLPC   O1221929   4.333   3.361   6.371 -0.3972 -0.3836 -0.6234
  190SLPC   O1121930   4.140   3.236   6.352  0.2629  0.3876 -0.2406
  190SLPC    C121931   4.079   3.294   6.469 -0.3658  0.2011 -0.0237
  190SLPC    HA21932   4.069   3.403   6.451  3.1376  0.4916 -0.6979
  190SLPC    HB21933   3.974   3.258   6.479 -0.6089  1.3531  1.5830
  190SLPC    C221934   4.150   3.272   6.607  0.7497 -0.3133 -0.1439
  190SLPC    HS21935   4.254   3.307   6.587  0.7525 -0.4541 -0.3756
  190SLPC   O2121936   4.131   3.135   6.648  0.3711 -1.3616  0.3738
  190SLPC   C2121937   4.231   3.079   6.712 -0.1609  0.7096 -0.1270
  190SLPC   O2221938   4.345   3.131   6.715  0.2872 -0.3725  0.2118
  190SLPC   C2221939   4.196   2.946   6.767  0.4444  0.5644 -0.0180
  190SLPC   H2R21940   4.086   2.934   6.782  0.4002 -1.5440 -1.8060
  190SLPC   H2S21941   4.225   2.882   6.681 -0.8611 -1.8197  1.2598
  190SLPC    C321942   4.102   3.378   6.718  0.1636  0.0393  0.8794
  190SLPC    HX21943   4.003   3.337   6.746  0.1354 -0.9058 -0.5009
  190SLPC    HY21944   4.071   3.479   6.683 -1.9426 -1.3173 -1.4126
  190SLPC   O3121945   4.186   3.394   6.834 -0.2683 -0.4950  0.0672
  190SLPC   C3121946   4.305   3.449   6.820  0.4960 -0.2139  0.2828
  190SLPC   O3221947   4.363   3.474   6.719  0.0570 -0.1392 -0.0720
  190SLPC   C3221948   4.369   3.478   6.952  0.3727 -0.4694 -0.0737
  190SLPC   H2X21949   4.470   3.519   6.933  0.6146 -0.7785  0.5183
  190SLPC   H2Y21950   4.379   3.377   6.999  3.1119  0.0789  0.5797
  190SLPC   C2321951   4.278   2.907   6.894 -0.7668 -0.4983 -0.1350
  190SLPC   H3R21952   4.387   2.919   6.879 -0.2289  0.3194  3.9871
  190SLPC   H3S21953   4.257   2.800   6.916  0.4369 -0.7295 -0.0929
  190SLPC   C2421954   4.229   2.990   7.013  0.1044  0.9858  0.4401
  190SLPC   H4R21955   4.120   2.985   7.032  0.2074 -1.1283  0.5854
  190SLPC   H4S21956   4.249   3.095   6.983 -0.9735  0.7584 -1.0842
  190SLPC   C2521957   4.305   2.953   7.138 -0.0956  0.0899 -0.0175
  190SLPC   H5R21958   4.401   3.007   7.125  0.0989 -0.1501  0.3892
  190SLPC   H5S21959   4.329   2.844   7.131 -0.0334 -0.1741  3.3365
  190SLPC   C2621960   4.237   2.991   7.271  0.0907 -0.3740  0.6846
  190SLPC   H6R21961   4.309   2.969   7.352  3.0767  1.4959 -1.3465
  190SLPC   H6S21962   4.152   2.921   7.283 -2.4029  3.0434  3.5486
  190SLPC   C2721963   4.204   3.134   7.280  0.7476 -0.1372  0.0107
  190SLPC   H7R21964   4.106   3.157   7.233 -0.1943 -1.2822  1.3424
  190SLPC   H7S21965   4.282   3.199   7.235  0.5579 -0.0422 -0.1802
  190SLPC   C2821966   4.191   3.169   7.431  0.2486  0.2461  0.6886
  190SLPC   H8R21967   4.286   3.143   7.483  0.8992  0.7874 -0.2192
  190SLPC   H8S21968   4.106   3.106   7.465 -2.5810  2.9395 -1.1181
  190SLPC   C2921969   4.152   3.311   7.473 -0.1451  0.0578  0.1470
  190SLPC   H9R21970   4.151   3.393   7.400  2.0418  1.7063  1.9012
  190SLPC  C21021971   4.120   3.348   7.601  0.8721 -0.2479  0.2602
  190SLPC  H10R21972   4.101   3.454   7.621 -2.7742 -1.0965  1.6481
  190SLPC  C21121973   4.117   3.251   7.717 -0.2182 -0.5688 -0.1119
  190SLPC  H11R21974   4.158   3.310   7.801 -2.0101 -0.3477  0.6450
  190SLPC  H11S21975   4.180   3.159   7.713 -1.2267 -1.4658  2.7591
  190SLPC  C21221976   3.971   3.209   7.749  0.6877  0.1443  0.2556
  190SLPC  H12R21977   3.907   3.197   7.660  0.1208 -0.0634  0.6887
  190SLPC  C21321978   3.914   3.207   7.877  0.5452 -0.1176  0.2343
  190SLPC  H13R21979   3.806   3.191   7.880  0.6047 -0.3884  0.8890
  190SLPC  C21421980   3.992   3.218   8.009  0.9522 -0.2650  0.5037
  190SLPC  H14R21981   4.020   3.324   8.027  1.9532  0.1407 -2.9830
  190SLPC  H14S21982   4.093   3.173   8.007  1.4253  0.7569  0.6912
  190SLPC  C21521983   3.920   3.159   8.134 -0.4014 -0.4827 -0.0990
  190SLPC  H15R21984   3.825   3.215   8.139 -0.0390  0.1560 -0.3365
  190SLPC  H15S21985   3.980   3.191   8.222 -0.5657  1.3007 -0.6182
  190SLPC  C21621986   3.911   3.008   8.149 -0.4148 -0.4817  0.6063
  190SLPC  H16R21987   3.894   2.979   8.254  2.2883 -2.1126  0.6477
  190SLPC  H16S21988   4.007   2.964   8.115 -1.3592 -1.7012 -0.5400
  190SLPC  C21721989   3.800   2.944   8.061 -0.0601  0.7186 -0.7673
  190SLPC  H17R21990   3.814   2.834   8.070  0.5461  0.8586 -0.0135
  190SLPC  H17S21991   3.807   2.980   7.956  1.4707 -0.9679 -1.2661
  190SLPC  C21821992   3.658   2.977   8.111 -0.0445  0.9292  0.4331
  190SLPC  H18R21993   3.661   2.943   8.217  2.7398 -0.0566  0.0874
  190SLPC  H18S21994   3.583   2.918   8.053  0.8353  0.1973  0.0358
  190SLPC  H18T21995   3.637   3.085   8.122  0.1238  0.6669  3.8003
  190SLPC   C3321996   4.296   3.570   7.040  0.1058  0.2299 -0.1154
  190SLPC   H3X21997   4.192   3.531   7.045  0.2236 -0.3249 -1.8480
  190SLPC   H3Y21998   4.274   3.677   7.021  0.3800  0.5314  1.1905
  190SLPC   C3421999   4.361   3.571   7.180  0.0165  0.3020 -0.2478
  190SLPC   H4X22000   4.457   3.627   7.169 -0.2439  1.1806  1.6357
  190SLPC   H4Y22001   4.374   3.465   7.212 -0.4474  0.2124 -0.3624
  190SLPC   C3522002   4.264   3.638   7.282 -0.1382 -0.1239  0.6700
  190SLPC   H5X22003   4.160   3.599   7.285 -0.4590  0.7121  0.5135
  190SLPC   H5Y22004   4.250   3.734   7.228  2.7719 -0.5157 -0.9209
  190SLPC   C3622005   4.315   3.646   7.419 -0.4755  0.1460 -0.3945
  190SLPC   H6X22006   4.406   3.708   7.428 -1.3680  1.2037  1.7411
  190SLPC   H6Y22007   4.342   3.542   7.444 -1.0348 -0.1498 -1.0143
  190SLPC   C3722008   4.204   3.706   7.518  0.4074 -0.1084 -0.1167
  190SLPC   H7X22009   4.113   3.645   7.500  0.5435 -0.1259 -0.7808
  190SLPC   H7Y22010   4.177   3.813   7.504  0.8025  0.1134  0.7978
  190SLPC   C3822011   4.249   3.696   7.662 -0.1025  0.5556 -0.4686
  190SLPC   H8X22012   4.345   3.748   7.679 -0.9298  2.1981 -0.7843
  190SLPC   H8Y22013   4.257   3.593   7.704 -0.0222  1.9381  3.0554
  190SLPC   C3922014   4.145   3.757   7.762 -0.0491  0.9558  0.1055
  190SLPC   H9X22015   4.133   3.863   7.731 -0.4317  0.2843 -2.0922
  190SLPC   H9Y22016   4.200   3.764   7.858  0.5995  1.3372 -0.2864
  190SLPC  C31022017   4.009   3.678   7.788 -0.7002  0.7267 -0.2715
  190SLPC  H10X22018   4.016   3.570   7.760  0.1305  1.0495 -1.3723
  190SLPC  H10Y22019   3.934   3.727   7.722 -0.3050  1.5753 -0.0986
  190SLPC  C31122020   3.953   3.693   7.930 -0.1465 -0.5286  0.8581
  190SLPC  H11X22021   3.999   3.615   7.994  2.2084  0.3503  0.2650
  190SLPC  H11Y22022   3.845   3.669   7.946 -0.4580  1.1062  1.4256
  190SLPC  C31222023   3.986   3.827   8.002  0.0604  0.1263 -0.4420
  190SLPC  H12X22024   3.974   3.916   7.937  0.2711 -0.5940 -1.4731
  190SLPC  H12Y22025   4.090   3.820   8.040 -0.1634 -1.4482 -0.0829
  190SLPC  C31322026   3.890   3.848   8.121  0.2668  0.3064  0.2714
  190SLPC  H13X22027   3.789   3.845   8.073  0.0562 -0.0977  0.7355
  190SLPC  H13Y22028   3.893   3.951   8.163 -1.1558  0.7655 -0.6905
  190SLPC  C31422029   3.920   3.752   8.236  0.2294  0.2598  0.5165
  190SLPC  H14X22030   4.018   3.776   8.284 -0.0122 -0.0165  1.1467
  190SLPC  H14Y22031   3.929   3.648   8.200 -0.8225 -0.0205  1.0530
  190SLPC  C31522032   3.813   3.751   8.346  0.0391 -0.8107 -0.3573
  190SLPC  H15X22033   3.795   3.650   8.388 -0.0039  0.1094  1.9294
  190SLPC  H15Y22034   3.719   3.787   8.298 -0.1765 -0.9594 -0.0454
  190SLPC  C31622035   3.855   3.837   8.470  0.5693  0.0839 -0.6387
  190SLPC  H16X22036   3.882   3.943   8.448 -2.0387  0.3569 -2.8138
  190SLPC  H16Y22037   3.952   3.799   8.509  0.1158  1.4901  1.9784
  190SLPC  C31722038   3.754   3.831   8.581 -0.3241 -0.0570  0.2868
  190SLPC  H17X22039   3.658   3.862   8.534 -0.9972  0.0293  1.7080
  190SLPC  H17Y22040   3.767   3.902   8.665 -2.5782  1.2854 -0.4332
  190SLPC  C31822041   3.737   3.690   8.636 -0.5689  0.4718 -0.8719
  190SLPC  H18X22042   3.669   3.697   8.723  1.5526  0.3177  0.8479
  190SLPC  H18Y22043   3.824   3.636   8.678 -0.9045 -0.7881 -1.7465
  190SLPC  H18Z22044   3.683   3.629   8.560 -2.4560 -0.0554  0.8553
  191SLPC     N22045   4.120   5.623   5.822  0.1781 -0.3486  0.2613
  191SLPC   C1322046   4.078   5.620   5.679 -0.2233 -0.1080  0.2549
  191SLPC  H13A22047   4.081   5.719   5.636 -0.6974  0.8285  2.2928
  191SLPC  H13B22048   4.145   5.552   5.628 -1.0937 -1.4743  0.9010
  191SLPC  H13C22049   3.978   5.582   5.665 -0.8558  2.0270 -1.2807
  191SLPC   C1422050   4.017   5.699   5.897  0.2160  0.2450 -0.3577
  191SLPC  H14A22051   4.011   5.663   5.999 -0.2606  2.8210  0.5520
  191SLPC  H14B22052   4.048   5.801   5.909  1.1684  0.0161 -0.7938
  191SLPC  H14C22053   3.918   5.704   5.854 -0.9334 -4.2477  1.4268
  191SLPC   C1522054   4.252   5.690   5.829  0.2482 -0.0362 -0.2105
  191SLPC  H15A22055   4.244   5.783   5.775  3.3043  0.4681  0.1197
  191SLPC  H15B22056   4.284   5.711   5.929  0.4237 -0.9451 -0.0644
  191SLPC  H15C22057   4.326   5.629   5.779  0.4851 -1.0316  1.3349
  191SLPC   C1222058   4.120   5.476   5.868  0.0479 -0.4121  0.7432
  191SLPC  H12A22059   4.187   5.422   5.803 -1.5237 -0.5624 -0.8042
  191SLPC  H12B22060   4.027   5.426   5.846  0.5049 -1.4467  1.1601
  191SLPC   C1122061   4.151   5.433   6.017  0.0050 -0.4769 -0.1063
  191SLPC  H11A22062   4.134   5.330   6.056  1.2884 -0.6468  0.0288
  191SLPC  H11B22063   4.071   5.492   6.067  2.1937  2.4454  0.0809
  191SLPC     P22064   4.393   5.400   6.029 -0.2145  0.0842  0.0602
  191SLPC   O1322065   4.356   5.267   5.978  0.5169  0.1246 -0.0811
  191SLPC   O1422066   4.488   5.473   5.943 -0.0283 -0.5825 -0.1263
  191SLPC   O1222067   4.269   5.482   6.077 -0.2073 -0.4363  0.1916
  191SLPC   O1122068   4.473   5.376   6.167  0.2178 -0.7619 -0.2684
  191SLPC    C122069   4.454   5.453   6.286  0.5467  0.0666 -0.6312
  191SLPC    HA22070   4.551   5.441   6.338  0.5058  0.3620 -0.4825
  191SLPC    HB22071   4.441   5.561   6.263 -1.8790  0.1507  0.9171
  191SLPC    C222072   4.331   5.400   6.365 -0.3020 -0.0313  0.7834
  191SLPC    HS22073   4.256   5.354   6.298  0.6209  1.2169 -1.1596
  191SLPC   O2122074   4.288   5.506   6.450  0.0229 -0.3357  0.3759
  191SLPC   C2122075   4.157   5.488   6.499  0.0918 -0.7319 -0.2852
  191SLPC   O2222076   4.080   5.408   6.448  0.6429 -0.3050 -0.4040
  191SLPC   C2222077   4.123   5.569   6.623 -0.3327 -0.0225  0.6918
  191SLPC   H2R22078   4.224   5.594   6.663  0.1841  0.5327 -0.9159
  191SLPC   H2S22079   4.052   5.648   6.591 -0.5090 -0.6190 -0.4004
  191SLPC    C322080   4.383   5.285   6.452 -0.0461  0.2155  0.6380
  191SLPC    HX22081   4.467   5.318   6.517 -0.5930  1.4560  0.7096
  191SLPC    HY22082   4.424   5.207   6.384 -0.3785  0.2162  0.4355
  191SLPC   O3122083   4.277   5.225   6.532 -0.1669 -0.2380  0.3516
  191SLPC   C3122084   4.284   5.102   6.573  0.0311  0.3439  0.3949
  191SLPC   O3222085   4.374   5.024   6.541 -0.0579  0.0814  0.2207
  191SLPC   C3222086   4.162   5.063   6.643  0.3766 -0.6380  0.7479
  191SLPC   H2X22087   4.157   4.954   6.623  0.5153 -0.2035 -1.8588
  191SLPC   H2Y22088   4.074   5.112   6.594  1.0203  0.6616  0.8661
  191SLPC   C2322089   4.064   5.485   6.738  0.1941 -0.2844 -0.8092
  191SLPC   H3R22090   4.127   5.397   6.762 -0.5421 -0.7643 -0.5958
  191SLPC   H3S22091   3.964   5.448   6.706 -0.1815 -0.8118  0.9143
  191SLPC   C2422092   4.030   5.572   6.870  0.0322 -0.8262 -0.6215
  191SLPC   H4R22093   3.976   5.665   6.843  2.7083  0.3792 -2.0631
  191SLPC   H4S22094   4.132   5.604   6.901 -0.2224  0.7652 -1.3816
  191SLPC   C2522095   3.946   5.495   6.974 -0.0041  0.2309  0.8504
  191SLPC   H5R22096   3.990   5.396   6.995 -0.0732 -0.7851 -3.3234
  191SLPC   H5S22097   3.854   5.469   6.917  0.1390 -2.6670  1.8522
  191SLPC   C2622098   3.916   5.580   7.091 -0.1273  0.0586  0.1154
  191SLPC   H6R22099   3.820   5.535   7.126  0.2998  1.4494  3.2377
  191SLPC   H6S22100   3.888   5.675   7.041 -0.9921 -0.1981  0.1141
  191SLPC   C2722101   4.014   5.585   7.207 -0.2664  0.7764  0.3670
  191SLPC   H7R22102   4.099   5.620   7.145  0.0853  2.1533  1.6282
  191SLPC   H7S22103   4.024   5.478   7.236  0.8597  0.5044 -0.9667
  191SLPC   C2822104   3.960   5.677   7.317 -0.2269 -0.5333  0.2758
  191SLPC   H8R22105   3.852   5.658   7.337 -0.5241 -0.0379 -0.8288
  191SLPC   H8S22106   3.975   5.779   7.277 -2.2612 -0.4128 -0.2413
  191SLPC   C2922107   4.041   5.656   7.443 -0.4186 -0.0662  0.1022
  191SLPC   H9R22108   4.043   5.554   7.485  4.9053 -0.3372 -0.5251
  191SLPC  C21022109   4.112   5.748   7.507 -0.3166  0.9372  0.1933
  191SLPC  H10R22110   4.171   5.721   7.595 -0.2510  0.6831  0.0704
  191SLPC  C21122111   4.133   5.897   7.486 -0.4770 -0.1812 -0.2722
  191SLPC  H11R22112   4.098   5.921   7.384  0.0992 -0.4426 -0.5321
  191SLPC  H11S22113   4.242   5.919   7.490 -0.2184 -1.2482 -1.2809
  191SLPC  C21222114   4.059   5.968   7.592  0.2592  0.7321 -0.3557
  191SLPC  H12R22115   3.951   5.970   7.573  0.3676 -1.0907 -1.2077
  191SLPC  C21322116   4.104   6.037   7.701  0.6062 -0.1309  0.9540
  191SLPC  H13R22117   4.027   6.083   7.765 -1.9748  0.6654 -2.6161
  191SLPC  C21422118   4.242   6.039   7.753  0.1455 -0.3718  0.5518
  191SLPC  H14R22119   4.297   5.944   7.737  0.2326  0.1183 -2.3509
  191SLPC  H14S22120   4.238   6.055   7.863  0.2140 -0.1751  0.5258
  191SLPC  C21522121   4.321   6.159   7.687  0.2440  0.4838 -0.6111
  191SLPC  H15R22122   4.356   6.139   7.583  0.4725 -2.6478  0.0011
  191SLPC  H15S22123   4.414   6.174   7.745  0.4363  0.4840 -0.9172
  191SLPC  C21622124   4.250   6.295   7.679 -0.4646  0.8107 -0.6452
  191SLPC  H16R22125   4.197   6.305   7.776  0.9756 -0.3428  0.2949
  191SLPC  H16S22126   4.176   6.286   7.597 -0.6411 -2.6934 -0.1796
  191SLPC  C21722127   4.350   6.406   7.659 -0.0193 -0.2577  0.0798
  191SLPC  H17R22128   4.433   6.381   7.590  0.3523 -1.8774  1.0895
  191SLPC  H17S22129   4.406   6.407   7.754  0.6775  1.8842 -0.3280
  191SLPC  C21822130   4.280   6.543   7.631  0.1234  0.3939 -0.2283
  191SLPC  H18R22131   4.220   6.575   7.718 -1.7837 -4.1948  0.2753
  191SLPC  H18S22132   4.211   6.544   7.543  0.7820 -0.0479 -0.7573
  191SLPC  H18T22133   4.352   6.625   7.611  0.3257  0.0701 -0.8534
  191SLPC   C3322134   4.177   5.096   6.789 -0.5155 -0.3220 -0.6707
  191SLPC   H3X22135   4.082   5.072   6.841 -1.0723  1.4448 -0.8290
  191SLPC   H3Y22136   4.195   5.205   6.780 -1.9992 -0.0709 -0.8370
  191SLPC   C3422137   4.289   5.011   6.856 -0.2305  0.0209  0.6760
  191SLPC   H4X22138   4.360   5.092   6.881 -0.7215  0.5690  0.3071
  191SLPC   H4Y22139   4.354   4.950   6.789  1.0254  0.7775  1.1985
  191SLPC   C3522140   4.245   4.931   6.978 -0.2428  0.2570 -0.1539
  191SLPC   H5X22141   4.328   4.865   7.011  0.7732  1.9213  0.6902
  191SLPC   H5Y22142   4.178   4.853   6.936  0.3268  0.9721 -2.4486
  191SLPC   C3622143   4.195   5.009   7.098 -0.1079 -0.4149  0.5922
  191SLPC   H6X22144   4.092   5.037   7.066  0.4183  2.8302  1.6198
  191SLPC   H6Y22145   4.242   5.108   7.118 -0.6563  0.0540 -0.4066
  191SLPC   C3722146   4.209   4.930   7.232  0.1093 -0.0390 -0.3509
  191SLPC   H7X22147   4.312   4.896   7.256  0.9025  0.8143 -2.4611
  191SLPC   H7Y22148   4.162   4.830   7.220 -2.0554  0.7625  1.1317
  191SLPC   C3822149   4.139   5.000   7.351  0.0503  0.5566  0.1032
  191SLPC   H8X22150   4.087   4.926   7.415  0.8720  0.5863  0.8252
  191SLPC   H8Y22151   4.071   5.072   7.302  1.1015  2.6911  1.6863
  191SLPC   C3922152   4.235   5.067   7.447  0.3809  0.2136  0.4337
  191SLPC   H9X22153   4.314   5.111   7.383 -0.0378  0.1774 -0.1109
  191SLPC   H9Y22154   4.277   4.991   7.517  0.4611  0.6323  0.8430
  191SLPC  C31022155   4.165   5.171   7.534  0.2933 -0.0163  0.3122
  191SLPC  H10X22156   4.105   5.242   7.472 -1.8106 -2.9861 -1.2003
  191SLPC  H10Y22157   4.240   5.229   7.593  0.4426 -1.2008  1.3001
  191SLPC  C31122158   4.073   5.113   7.643 -0.3843  0.5380 -0.1062
  191SLPC  H11X22159   4.000   5.043   7.596 -2.0492  2.4994 -0.5370
  191SLPC  H11Y22160   4.022   5.207   7.675  1.9171  1.7556  0.0553
  191SLPC  C31222161   4.138   5.052   7.763 -0.4914 -0.1318 -0.3034
  191SLPC  H12X22162   4.221   5.116   7.799 -1.1889  0.6617 -0.0921
  191SLPC  H12Y22163   4.171   4.950   7.734  0.8495  0.4669 -0.8850
  191SLPC  C31322164   4.038   5.046   7.882 -0.3022  0.1116 -0.6311
  191SLPC  H13X22165   4.069   4.967   7.954  1.0844  0.0420 -1.2990
  191SLPC  H13Y22166   3.944   5.005   7.838 -1.0469  2.9784 -1.7978
  191SLPC  C31422167   4.021   5.187   7.946 -0.0978  0.2650  0.2700
  191SLPC  H14X22168   3.959   5.255   7.884 -1.2012 -0.3676  0.6596
  191SLPC  H14Y22169   4.120   5.236   7.949  0.0342 -0.0347  5.0202
  191SLPC  C31522170   3.948   5.175   8.083 -0.6052  0.2255 -0.1032
  191SLPC  H15X22171   4.023   5.132   8.152 -0.2704 -0.5345 -0.9368
  191SLPC  H15Y22172   3.872   5.094   8.083 -2.2668  1.7337  0.1534
  191SLPC  C31622173   3.900   5.314   8.137 -0.1727 -0.2095 -0.5531
  191SLPC  H16X22174   3.821   5.352   8.068 -0.6442  0.5298  0.3784
  191SLPC  H16Y22175   3.979   5.391   8.136 -0.2221 -0.1597 -1.4901
  191SLPC  C31722176   3.842   5.301   8.280 -0.1778  0.3691  0.5591
  191SLPC  H17X22177   3.831   5.411   8.295  1.8056  0.5586  0.7941
  191SLPC  H17Y22178   3.915   5.263   8.355 -1.7725  0.3864  2.1572
  191SLPC  C31822179   3.709   5.228   8.294  0.3248 -0.0956  0.4696
  191SLPC  H18X22180   3.654   5.259   8.385  2.6899 -0.2597  1.9850
  191SLPC  H18Y22181   3.719   5.118   8.295 -1.1950 -0.2691 -1.5231
  191SLPC  H18Z22182   3.644   5.256   8.208  1.4098  1.0539 -0.0044
  192SLPC     N22183   3.603   6.021   6.137 -0.6035 -0.1524  0.0664
  192SLPC   C1322184   3.490   6.111   6.092  0.1273  0.3548 -0.5573
  192SLPC  H13A22185   3.474   6.189   6.165  1.4369 -1.8353  2.1616
  192SLPC  H13B22186   3.495   6.148   5.991 -0.3698 -1.3348 -1.2174
  192SLPC  H13C22187   3.397   6.059   6.112  1.2803 -1.5729 -0.1115
  192SLPC   C1422188   3.595   5.897   6.057 -0.7802 -0.0352  0.1147
  192SLPC  H14A22189   3.677   5.829   6.077  0.5713  2.2301  2.6271
  192SLPC  H14B22190   3.511   5.835   6.081  0.7764 -1.3474  2.4247
  192SLPC  H14C22191   3.591   5.923   5.952 -0.8283  0.7252  0.2998
  192SLPC   C1522192   3.574   5.987   6.280  0.5920  0.0455 -0.5988
  192SLPC  H15A22193   3.643   5.917   6.325 -0.4395  0.6987  2.0884
  192SLPC  H15B22194   3.565   6.077   6.338  2.0169 -1.2324  1.6836
  192SLPC  H15C22195   3.477   5.940   6.285 -1.0995  3.3885 -0.9915
  192SLPC   C1222196   3.737   6.089   6.130 -0.5306  0.2727  0.6169
  192SLPC  H12A22197   3.735   6.183   6.183 -0.9698  1.1744 -0.9645
  192SLPC  H12B22198   3.753   6.105   6.024  0.3156 -2.4548  0.2869
  192SLPC   C1122199   3.866   6.028   6.195 -0.4493 -0.6014 -0.0652
  192SLPC  H11A22200   3.944   6.097   6.157 -0.0877 -0.3799  1.0617
  192SLPC  H11B22201   3.885   5.929   6.148  0.8166 -0.1955 -0.4117
  192SLPC     P22202   3.865   6.161   6.415 -0.1210 -0.2776  0.5358
  192SLPC   O1322203   3.994   6.218   6.392  0.2257 -0.0746 -0.3624
  192SLPC   O1422204   3.744   6.235   6.379 -1.0272 -0.4759  0.6504
  192SLPC   O1222205   3.862   6.017   6.344  0.0221  0.4610  0.3177
  192SLPC   O1122206   3.865   6.141   6.568  0.2627  0.1632  0.0103
  192SLPC    C122207   3.884   6.013   6.627  0.2918  0.6935  0.6473
  192SLPC    HA22208   3.795   5.958   6.664 -0.5532  0.6003 -1.4559
  192SLPC    HB22209   3.943   5.949   6.558 -0.1849 -1.3683  2.1385
  192SLPC    C222210   3.981   6.032   6.751  0.1397  0.2859  0.3596
  192SLPC    HS22211   3.961   5.945   6.816  1.1507  1.9280  2.9471
  192SLPC   O2122212   3.960   6.154   6.823 -0.3204 -0.5159 -0.2548
  192SLPC   C2122213   3.835   6.173   6.876  0.0271 -0.9619 -0.4662
  192SLPC   O2222214   3.754   6.081   6.880  0.0267 -0.1752  0.4540
  192SLPC   C2222215   3.813   6.319   6.925  0.1947 -0.1700 -0.8278
  192SLPC   H2R22216   3.721   6.358   6.877  0.3465  3.0174  1.3433
  192SLPC   H2S22217   3.793   6.308   7.033  1.0052  1.5624 -0.4889
  192SLPC    C322218   4.125   6.035   6.700  0.3319  0.1658  0.0432
  192SLPC    HX22219   4.137   6.125   6.635 -2.9663  0.7722  0.1702
  192SLPC    HY22220   4.137   5.947   6.634  1.4028 -1.3812  2.2342
  192SLPC   O3122221   4.230   6.019   6.804  0.3015 -0.0232 -0.7646
  192SLPC   C3122222   4.278   6.128   6.853  0.2124  0.4198  0.2191
  192SLPC   O3222223   4.271   6.238   6.806  0.3986 -0.0991  0.3745
  192SLPC   C3222224   4.357   6.102   6.979  0.1043  0.6964 -0.2911
  192SLPC   H2X22225   4.453   6.158   6.982  0.8325 -0.5970  1.5366
  192SLPC   H2Y22226   4.380   5.994   6.977  1.3778  0.9776 -1.1706
  192SLPC   C2322227   3.937   6.411   6.898 -0.3639  0.1502  0.5906
  192SLPC   H3R22228   3.952   6.410   6.788  1.3233  0.8185  0.8093
  192SLPC   H3S22229   4.028   6.360   6.936  0.0489  0.8184  0.4925
  192SLPC   C2422230   3.933   6.556   6.957 -1.0110 -0.4094  0.4142
  192SLPC   H4R22231   3.921   6.553   7.068 -0.1948  0.0774  0.5223
  192SLPC   H4S22232   3.843   6.605   6.916  0.0084  3.8696  2.9436
  192SLPC   C2522233   4.067   6.624   6.922  0.1812  0.2998  0.7355
  192SLPC   H5R22234   4.058   6.733   6.939 -2.4414  0.2623 -0.2815
  192SLPC   H5S22235   4.078   6.597   6.815 -0.9240  3.4641 -0.2307
  192SLPC   C2622236   4.190   6.572   6.997 -0.3146  0.9826  0.4702
  192SLPC   H6R22237   4.209   6.467   6.967 -0.4489  0.4089  2.3951
  192SLPC   H6S22238   4.187   6.591   7.106 -1.0545  0.7862  0.4873
  192SLPC   C2722239   4.322   6.637   6.956 -0.0416  0.2204 -0.1813
  192SLPC   H7R22240   4.314   6.742   6.991 -0.5505 -0.1248  0.7653
  192SLPC   H7S22241   4.323   6.661   6.848 -0.8473  2.3978  0.2619
  192SLPC   C2822242   4.454   6.578   7.001 -0.4303  0.4625 -0.9163
  192SLPC   H8R22243   4.537   6.645   6.970  2.4445 -2.8440 -0.7464
  192SLPC   H8S22244   4.482   6.495   6.933  1.2140  1.0731 -0.9938
  192SLPC   C2922245   4.477   6.555   7.148 -0.1682 -0.4889 -0.3878
  192SLPC   H9R22246   4.435   6.461   7.186 -1.0725  0.4024  0.8964
  192SLPC  C21022247   4.539   6.630   7.247  0.8233 -0.0495 -0.1997
  192SLPC  H10R22248   4.556   6.579   7.343 -1.0240  1.7520  1.1179
  192SLPC  C21122249   4.607   6.763   7.244  0.3040  0.6139  0.1383
  192SLPC  H11R22250   4.656   6.792   7.148  1.7461  1.3205  1.0757
  192SLPC  H11S22251   4.695   6.762   7.311  0.6510 -0.0028 -0.3165
  192SLPC  C21222252   4.508   6.870   7.278  1.0725 -0.0924 -0.1132
  192SLPC  H12R22253   4.407   6.853   7.238  1.7532  0.1211 -1.9767
  192SLPC  C21322254   4.524   6.967   7.370 -0.6831  0.1184 -0.0594
  192SLPC  H13R22255   4.447   7.042   7.393  0.0419  0.8355  0.0793
  192SLPC  C21422256   4.654   6.986   7.446  0.5439 -0.2726  0.1091
  192SLPC  H14R22257   4.703   7.084   7.423  0.2822 -0.0935  0.3162
  192SLPC  H14S22258   4.735   6.918   7.413  3.2751  3.6577 -1.7714
  192SLPC  C21522259   4.654   6.988   7.603 -0.0843 -0.6189 -0.5060
  192SLPC  H15R22260   4.596   7.074   7.642 -0.5635 -0.5530 -1.3429
  192SLPC  H15S22261   4.760   6.997   7.636 -0.3472  0.3633  0.0706
  192SLPC  C21622262   4.601   6.858   7.664 -0.0071 -0.6178  0.3460
  192SLPC  H16R22263   4.671   6.776   7.638  1.8713  1.2748 -0.6691
  192SLPC  H16S22264   4.507   6.836   7.609  1.0136  0.1851 -1.7392
  192SLPC  C21722265   4.580   6.857   7.815 -0.2861 -0.2219 -0.3474
  192SLPC  H17R22266   4.670   6.900   7.865  1.5480 -1.0941 -2.8075
  192SLPC  H17S22267   4.491   6.917   7.845  0.4796  1.2761 -0.9949
  192SLPC  C21822268   4.559   6.717   7.868 -0.0518 -0.5150  0.0507
  192SLPC  H18R22269   4.641   6.648   7.836 -1.1726 -2.2818  0.9047
  192SLPC  H18S22270   4.467   6.673   7.825  0.2643  0.9799 -2.2426
  192SLPC  H18T22271   4.557   6.724   7.979  1.2838  0.2396  0.0408
  192SLPC   C3322272   4.280   6.110   7.118 -0.4632 -0.4252 -0.3677
  192SLPC   H3X22273   4.199   6.034   7.113 -2.0143  1.2479 -1.4304
  192SLPC   H3Y22274   4.229   6.209   7.121  2.0363  0.8261  1.6641
  192SLPC   C3422275   4.372   6.093   7.242  0.0312 -0.1478  0.3387
  192SLPC   H4X22276   4.293   6.070   7.316  0.0638 -0.0073  0.4165
  192SLPC   H4Y22277   4.424   6.187   7.272  1.2181 -0.2872 -1.2191
  192SLPC   C3522278   4.466   5.966   7.239  0.8053 -0.4418  0.1791
  192SLPC   H5X22279   4.532   5.973   7.150  0.2061 -0.8889 -0.3042
  192SLPC   H5Y22280   4.402   5.877   7.224  0.2275 -0.0625  0.3948
  192SLPC   C3622281   4.543   5.958   7.373 -0.4035 -0.0159  0.5258
  192SLPC   H6X22282   4.469   5.960   7.456  0.0934  0.5814  0.9597
  192SLPC   H6Y22283   4.607   6.049   7.374 -1.0242  0.4158  0.6123
  192SLPC   C3722284   4.631   5.838   7.400 -0.7930  1.1820  0.0136
  192SLPC   H7X22285   4.717   5.835   7.328 -1.5314  2.2233 -0.9201
  192SLPC   H7Y22286   4.562   5.752   7.390  1.2036 -0.3773 -0.9568
  192SLPC   C3822287   4.687   5.840   7.546  0.7561 -0.6312  0.0812
  192SLPC   H8X22288   4.735   5.940   7.556  0.4566  0.0009 -3.7255
  192SLPC   H8Y22289   4.767   5.763   7.552  1.3452 -0.0586 -0.3507
  192SLPC   C3922290   4.579   5.819   7.656  0.3864  0.3736 -0.1826
  192SLPC   H9X22291   4.509   5.734   7.644 -1.2277  1.7551 -0.9207
  192SLPC   H9Y22292   4.513   5.908   7.667  0.2456  0.4178 -1.3005
  192SLPC  C31022293   4.647   5.820   7.793  0.0924  0.7490 -0.2359
  192SLPC  H10X22294   4.710   5.909   7.814  0.8369  0.0811  0.3951
  192SLPC  H10Y22295   4.718   5.735   7.806 -1.1787 -0.3932 -0.5730
  192SLPC  C31122296   4.551   5.809   7.913  1.1025 -0.4794 -0.4304
  192SLPC  H11X22297   4.477   5.726   7.906 -2.8756  2.5155  3.4528
  192SLPC  H11Y22298   4.497   5.905   7.900 -2.2387 -2.2463  0.0016
  192SLPC  C31222299   4.611   5.792   8.059  0.5414  0.1907  0.0340
  192SLPC  H12X22300   4.662   5.889   8.080 -0.7581  0.7921  0.4818
  192SLPC  H12Y22301   4.677   5.703   8.056 -0.6613 -0.7756  1.9486
  192SLPC  C31322302   4.510   5.777   8.173  0.1894 -0.5367  0.1441
  192SLPC  H13X22303   4.451   5.683   8.167 -0.5555 -0.0356 -0.6296
  192SLPC  H13Y22304   4.444   5.864   8.153 -3.4299 -2.9763  0.9614
  192SLPC  C31422305   4.568   5.791   8.314  0.3911  0.3452  0.0668
  192SLPC  H14X22306   4.624   5.887   8.318  0.0784  0.5168  0.3246
  192SLPC  H14Y22307   4.634   5.704   8.333 -0.3949 -0.4397 -0.7665
  192SLPC  C31522308   4.465   5.792   8.434  1.0511  0.4030 -0.0922
  192SLPC  H15X22309   4.522   5.797   8.530  0.1857  0.6511  0.4108
  192SLPC  H15Y22310   4.418   5.694   8.414 -0.5678  0.9401  0.9782
  192SLPC  C31622311   4.363   5.909   8.428 -0.6978  0.1926 -0.0026
  192SLPC  H16X22312   4.329   5.900   8.323 -0.4518  1.1008 -0.1595
  192SLPC  H16Y22313   4.414   6.005   8.448 -0.1533 -0.3708  1.4015
  192SLPC  C31722314   4.240   5.891   8.519 -0.0663  0.0560  0.2958
  192SLPC  H17X22315   4.181   5.800   8.498 -0.2832  0.4645 -0.9677
  192SLPC  H17Y22316   4.175   5.977   8.491 -0.0257 -0.4390 -1.3844
  192SLPC  C31822317   4.277   5.896   8.666  0.8056 -0.1294 -0.1185
  192SLPC  H18X22318   4.345   5.981   8.686  0.1587  0.4556 -0.4026
  192SLPC  H18Y22319   4.318   5.794   8.685  2.3596  0.0251 -2.4972
  192SLPC  H18Z22320   4.185   5.902   8.729  0.7769  2.6116 -0.3817
  193SOD    SOD22321   0.256   2.787  14.468 -0.2268 -0.2011 -0.1748
  194SOD    SOD22322   4.233   0.098   6.407 -0.0097  0.1123  0.0093
  195SOD    SOD22323   4.124   0.766  14.378 -0.0388 -0.2526  0.0538
  196SOD    SOD22324   6.541   3.402   4.096 -0.0450  0.1498 -0.0701
  197SOD    SOD22325   3.871   2.865   1.286  0.0790  0.2450 -0.1873
  198SOD    SOD22326   0.793   6.010   2.942  0.3249  0.3329 -0.7207
  199SOD    SOD22327   0.674   2.322   3.408 -0.1579  0.5685  0.5588
  200SOD    SOD22328   1.481   2.997   0.296  0.0600  0.0506  0.1129
  201SOD    SOD22329   2.607   3.763  14.203  0.4334 -0.1267  0.1738
  202SOD    SOD22330   5.770   1.947   5.115  0.3227 -0.1950 -0.4986
  203SOD    SOD22331   5.749   6.283   4.912 -0.1786  0.5177 -0.2655
  204SOD    SOD22332   3.166   4.312  16.086  0.1094 -0.4270 -0.1418
  205SOD    SOD22333   6.142   5.338   6.300  0.3805 -0.6967 -0.0373
  206SOD    SOD22334   6.766   0.397   6.205  0.4907  0.3656 -0.1886
  207SOD    SOD22335   2.339   2.851   1.920  0.0134  0.4226 -0.1275
  208SOD    SOD22336   0.927   6.089  16.172 -0.5834 -0.2197  0.1960
  209SOD    SOD22337   5.889   1.398  16.941  0.5739  0.1197 -0.1699
  210SOD    SOD22338   0.351   2.952  15.698  0.7909 -0.0990 -0.2810
  211SOD    SOD22339   4.983   6.081  11.668  0.2562  0.2623  0.3608
  212SOD    SOD22340   2.476   3.734  11.190  0.0544 -0.0078  0.3357
  213SOD    SOD22341   1.598   0.704  11.148  0.2471  0.1379 -0.2679
  214SOD    SOD22342   5.682   5.302   5.608 -0.5812  0.6700  0.0101
  215SOD    SOD22343   1.849   1.101  14.522  0.2605 -0.6041  0.6081
  216SOD    SOD22344   4.227   6.510  13.856 -0.0757 -0.0548 -0.0391
  217SOD    SOD22345   2.838   1.672   6.223  0.0598 -0.2106  0.1707
  218SOD    SOD22346   6.758   6.503   6.348  0.1340 -0.1621 -0.0162
  219SOD    SOD22347   5.349   6.397   4.477 -0.3098 -0.2986 -0.0414
  220SOD    SOD22348   2.009   3.030  11.654 -0.0984 -0.0963  0.1407
  221SOD    SOD22349   5.002   2.119  14.697 -0.3271  0.1002  0.1968
  222SOD    SOD22350   0.440   3.983  15.132 -0.4981 -0.2624  0.1587
  223SOD    SOD22351   1.013   2.671  13.000  0.2744  0.1980 -0.3075
  224SOD    SOD22352   4.975   4.831   4.933 -0.4074  0.2665 -0.0215
  225SOD    SOD22353   6.410   2.976   0.254  0.0552  0.0384 -0.3688
  226SOD    SOD22354   1.825   5.826   4.571  0.2123  0.2937 -0.3266
  227SOD    SOD22355   3.280   6.067   4.303 -0.0866 -0.2793 -0.1540
  228SOD    SOD22356   2.657   1.026   0.334 -0.4185  0.4251 -0.2580
  229SOD    SOD22357   5.023   5.325  14.135  0.2300 -0.3348  0.3072
  230SOD    SOD22358   3.400   4.563  14.502  0.1608  0.2054  0.2095
  231SOD    SOD22359   2.111   6.727   4.117 -0.1975  0.1004  0.0370
  232SOD    SOD22360   3.980   5.890   0.317 -0.7240  0.4623  0.0524
  233SOD    SOD22361   0.509   4.715  10.595  0.1462  0.0070 -0.0421
  234SOD    SOD22362   2.667   1.203  12.315  0.6304  0.4586  0.0674
  235SOD    SOD22363   2.140   3.433   2.705  0.3892  0.1206  0.1913
  236SOD    SOD22364   6.255   3.089   5.930  0.3912  0.6841  0.1431
  237SOD    SOD22365   5.541   4.960  10.813 -0.3011  0.2868 -0.2039
  238SOD    SOD22366   2.593   2.789  11.949  0.4026 -0.0545 -0.2501
  239SOD    SOD22367   1.118   0.567  16.365 -0.2345  0.0792  0.1885
  240SOD    SOD22368   3.217   2.505  16.098 -0.2998 -0.6869  0.1830
  241SOD    SOD22369   0.465   6.254   6.149  0.1414  0.1172  0.6798
  242SOD    SOD22370   1.465   1.764  14.332 -0.1303 -0.3983  0.2947
  243SOD    SOD22371   4.115   2.674  16.513 -0.5160 -0.3668  0.3676
  244SOD    SOD22372   5.268   0.939  16.712 -0.1498  0.1311  0.1592
  245SOD    SOD22373   3.229   2.571  10.635 -0.2733 -0.1940 -0.7326
  246SOD    SOD22374   4.640   3.970  11.603  0.1426 -0.1897  0.1197
  247SOD    SOD22375   5.271   0.979  15.591  0.4898 -0.2285  0.2807
  248SOD    SOD22376   3.630   1.119   5.463 -0.1176  0.4766  0.0845
  249SOD    SOD22377   2.521   0.745  14.247 -0.0697 -0.3661  0.1237
  250SOD    SOD22378   0.171   1.199   1.646 -0.5128  0.1318 -0.7773
  251SOD    SOD22379   5.399   3.267  16.139 -0.4778 -0.2923  0.1784
  252SOD    SOD22380   4.402   4.893  11.520  0.8557  0.2201 -0.4202
  253SOD    SOD22381   6.174   2.101   6.722 -0.3877  0.2117 -0.0155
  254SOD    SOD22382   1.227   6.530  16.341  0.0810  0.2098  0.5194
  255SOD    SOD22383   0.965   0.833  12.996  0.3756  0.0837 -0.5887
  256SOD    SOD22384   0.055   0.000  13.085 -0.4462 -0.0093 -0.0098
  257SOD    SOD22385   2.010   4.898   2.526  0.1491 -0.6150 -0.3401
  258SOD    SOD22386   3.316   0.291  12.518  0.5068 -0.4481  0.2944
  259SOD    SOD22387   6.744   2.157  13.823 -0.0503  0.2346 -0.1824
  260SOD    SOD22388   0.393   4.495  11.886 -0.6119 -0.3470 -0.1160
  261SOD    SOD22389   6.424   4.502  11.268 -0.3414  0.5820 -0.1066
  262SOD    SOD22390   5.357   4.386   2.086 -0.1402 -0.0460 -0.1461
  263SOD    SOD22391   3.846   1.552  17.003  0.2295  0.3950  0.3372
  264SOD    SOD22392   2.952   6.525   5.311  0.2533  0.0629 -0.1746
  265SOD    SOD22393   5.112   5.379   0.334  0.6254  0.3072 -0.1443
  266CLA    CLA22394   2.198   0.318  16.718 -0.2425 -0.3880 -0.2855
  267CLA    CLA22395   3.596   5.060  14.520  0.1367  0.1207  0.0138
  268CLA    CLA22396   4.660   2.189  14.305  0.1493 -0.1012  0.2346
  269CLA    CLA22397   3.533   3.594   3.506 -0.3330 -0.1895  0.1299
  270CLA    CLA22398   6.680   0.326  16.555  0.4191  0.2552  0.2055
  271CLA    CLA22399   5.352   1.221  16.023 -0.2144  0.4251  0.0402
  272CLA    CLA22400   2.323   0.361  11.484 -0.2444  0.1696  0.4141
  273CLA    CLA22401   3.752   1.992  11.271 -0.3643 -0.0011  0.1442
  274CLA    CLA22402   3.127   1.673  16.448  0.1321  0.4290 -0.2243
  275CLA    CLA22403   1.310   5.049   0.872 -0.2047 -0.0726 -0.1833
  276CLA    CLA22404   0.922   2.402  13.888  0.1116 -0.0741  0.0590
  277CLA    CLA22405   4.080   4.738   0.324  0.0392 -0.2058  0.0485
  278CLA    CLA22406   6.740   5.560  16.627 -0.3674  0.0754  0.4068
  279CLA    CLA22407   5.523   0.286  14.759 -0.2680  0.0327 -0.0157
  280CLA    CLA22408   6.024   2.224   4.532 -0.1075  0.0065  0.2259
  281CLA    CLA22409   0.931   0.017  16.103 -0.1378  0.4859 -0.2763
  282CLA    CLA22410   0.876   3.748  13.862  0.0417 -0.2462 -0.0387
  283CLA    CLA22411   5.406   1.147  16.778 -0.2957  0.2103  0.1981
  284CLA    CLA22412   2.270   3.329  14.362  0.3212  0.1589 -0.0695
  285CLA    CLA22413   0.458   5.809   0.567  0.3558  0.0168 -0.1464
  286CLA    CLA22414   3.961   3.008  15.303 -0.0354 -0.5676  0.2706
  287CLA    CLA22415   5.933   6.375  12.092 -0.4777 -0.2058  0.0682
  288CLA    CLA22416   4.314   0.909   2.485  0.0944  0.1804  0.1833
  289CLA    CLA22417   5.738   1.679  13.834  0.4822  0.0730  0.0860
  290CLA    CLA22418   6.016   5.889  13.514  0.3220 -0.1182  0.2955
  291CLA    CLA22419   6.702   5.185   5.638  0.3467  0.3963 -0.1156
  292CLA    CLA22420   6.642   1.522  13.892  0.2315  0.1980 -0.0699
  293CLA    CLA22421   2.383   6.092   5.523  0.1198 -0.5440 -0.3069
  294CLA    CLA22422   6.397   4.133  13.606  0.2842  0.0222  0.3041
  295CLA    CLA22423   5.139   4.283   1.204  0.2493 -0.1881 -0.1050
  296CLA    CLA22424   2.065   1.903  15.545 -0.0361  0.0924 -0.0644
  297CLA    CLA22425   3.763   5.683  12.295  0.0524 -0.4111  0.1752
  298CLA    CLA22426   6.065   3.138   4.195 -0.0802 -0.3847  0.0223
  299CLA    CLA22427   4.444   1.507   4.396 -0.1647  0.4313 -0.3393
  300CLA    CLA22428   5.033   0.226   3.388  0.2108  0.3116 -0.0344
  301CLA    CLA22429   0.986   1.617  12.292 -0.0914 -0.4217  0.1799
  302CLA    CLA22430   5.140   6.100   4.613 -0.0926 -0.0475  0.1639
  303CLA    CLA22431   0.121   3.275   1.698  0.3959  0.0481 -0.1539
  304CLA    CLA22432   4.354   6.035  17.164 -0.2500 -0.2535  0.1364
  305CLA    CLA22433   0.084   5.683  14.532  0.0140 -0.0046 -0.4789
  306CLA    CLA22434   5.059   3.535   0.841 -0.5871 -0.5270 -0.2236
  307CLA    CLA22435   2.478   0.072   1.200 -0.1962 -0.5605  0.2430
  308CLA    CLA22436   3.750   1.433   4.653  0.1889 -0.4389  0.3117
  309CLA    CLA22437   1.389   4.931  12.338  0.1107  0.1215 -0.4297
  310CLA    CLA22438   0.333   4.465   4.673  0.2024  0.1134  0.0648
  311CLA    CLA22439   2.011   6.702  16.710 -0.0100  0.0422  0.0682
  312CLA    CLA22440   6.418   1.312   4.386  0.2735 -0.2540  0.0866
  313CLA    CLA22441   0.299   4.639   0.761  0.3219  0.3348  0.3137
  314CLA    CLA22442   2.063   2.357   1.522  0.1393  0.0935 -0.4009
  315CLA    CLA22443   2.198   3.276   0.651  0.0333 -0.2015  0.3582
  316CLA    CLA22444   5.618   3.964  15.691  0.1381  0.3049  0.3151
  317CLA    CLA22445   5.424   3.815  17.226 -0.0434  0.0419  0.3707
  318CLA    CLA22446   4.854   0.915  13.793  0.3700 -0.0182 -0.2361
  319TIP3   OH222447   2.832   5.395  15.210  0.6078 -0.1052  0.1592
  319TIP3    H122448   2.818   5.460  15.142  1.0748  0.2236  0.3697
  319TIP3    H222449   2.769   5.418  15.279 -0.4632 -0.9583 -0.5161
  320TIP3   OH222450   1.863   0.216  17.006 -0.0394 -0.7080 -0.4117
  320TIP3    H122451   1.906   0.211  16.921 -1.6655  1.0122 -1.3793
  320TIP3    H222452   1.824   0.304  17.007  0.9755 -0.2287  2.5998
  321TIP3   OH222453   3.088   2.334   2.452 -0.9712  0.5665  0.3098
  321TIP3    H122454   3.127   2.277   2.386 -0.0827  0.2234  1.1262
  321TIP3    H222455   3.125   2.304   2.535 -0.9324  1.9743  0.8076
  322TIP3   OH222456   5.082   1.687  10.892 -0.1295 -0.6545 -0.1852
  322TIP3    H122457   5.009   1.743  10.867 -0.2614 -0.3641  0.8521
  322TIP3    H222458   5.077   1.613  10.831 -0.4244  0.0637 -1.0407
  323TIP3   OH222459   4.494   5.178  12.208 -0.4094  0.2460  0.1134
  323TIP3    H122460   4.561   5.112  12.222  1.3054  1.8409 -0.2881
  323TIP3    H222461   4.417   5.130  12.178  0.8479 -1.5292 -0.2976
  324TIP3   OH222462   2.499   5.590   3.706  1.0432 -0.1770 -1.2301
  324TIP3    H122463   2.474   5.498   3.702  1.8802 -0.4313 -0.7061
  324TIP3    H222464   2.417   5.638   3.691 -0.1719 -0.9638  2.3781
  325TIP3   OH222465   4.073   1.169  13.089  0.0894  0.1886 -0.9890
  325TIP3    H122466   4.032   1.121  13.016  0.2600 -0.5362 -0.6204
  325TIP3    H222467   4.003   1.178  13.153  0.2867 -0.3314 -0.6985
  326TIP3   OH222468   6.511   6.336   5.233 -0.5685 -0.0892 -0.1342
  326TIP3    H122469   6.430   6.388   5.241 -1.4538 -1.1328 -1.9519
  326TIP3    H222470   6.551   6.367   5.152 -0.4011 -1.2814 -0.5151
  327TIP3   OH222471   1.128   2.543   5.955  0.0142  0.2570 -0.2762
  327TIP3    H122472   1.184   2.478   5.913 -1.7340 -0.7709 -1.0426
  327TIP3    H222473   1.128   2.617   5.895 -0.7348 -0.3679 -1.0545
  328TIP3   OH222474   4.388   5.459   1.817 -0.0139 -1.1654 -0.3336
  328TIP3    H122475   4.363   5.547   1.789  1.9831 -0.2251  0.6942
  328TIP3    H222476   4.313   5.428   1.869 -0.1963  0.4787  0.4330
  329TIP3   OH222477   1.575   1.744   4.375  0.2557  0.1170 -0.2752
  329TIP3    H122478   1.491   1.701   4.392 -1.0006  1.9355 -1.6544
  329TIP3    H222479   1.567   1.830   4.415  0.5683  1.1532 -2.3484
  330TIP3   OH222480   0.292   1.700   0.930  0.0637  0.3557 -0.2364
  330TIP3    H122481   0.296   1.796   0.928 -1.0709  0.3903 -1.1582
  330TIP3    H222482   0.239   1.677   0.854 -1.0638 -0.9329  0.9234
  331TIP3   OH222483   5.070   4.702  14.196  0.4534  0.0607  0.1876
  331TIP3    H122484   5.104   4.650  14.123  1.4424  0.9939 -0.0295
  331TIP3    H222485   5.122   4.675  14.272  1.8040  1.5954 -0.1732
  332TIP3   OH222486   2.455   2.987  15.865  0.3226 -0.1504 -0.4002
  332TIP3    H122487   2.387   2.926  15.896 -0.9027  1.0927 -0.5969
  332TIP3    H222488   2.537   2.940  15.879 -0.5370 -1.4521  0.3997
  333TIP3   OH222489   4.950   0.864   0.568  0.1961  0.2590 -0.2855
  333TIP3    H122490   4.975   0.956   0.579 -0.1692  0.1831  1.4216
  333TIP3    H222491   4.858   0.862   0.596 -0.4991 -0.2085 -2.5502
  334TIP3   OH222492   2.800   5.320   2.519  0.1761 -0.0159 -0.0950
  334TIP3    H122493   2.881   5.301   2.566 -0.4028 -2.1160  0.1199
  334TIP3    H222494   2.731   5.291   2.579 -0.6984  0.5612 -0.8102
  335TIP3   OH222495   2.678   0.518  12.048 -0.4763 -0.4666  0.2431
  335TIP3    H122496   2.745   0.450  12.043  0.4587  0.3461  1.3019
  335TIP3    H222497   2.597   0.472  12.068  0.0850 -1.2874  0.6241
  336TIP3   OH222498   3.159   0.357  16.937 -0.0061 -0.4251  0.3318
  336TIP3    H122499   3.170   0.401  17.021  2.6859 -2.3204  1.0491
  336TIP3    H222500   3.070   0.322  16.939  0.5272 -1.7295  3.0433
  337TIP3   OH222501   4.097   0.284   2.401  0.6654  0.3625 -0.0582
  337TIP3    H122502   4.142   0.200   2.407  0.4117  0.3827  2.9828
  337TIP3    H222503   4.167   0.349   2.404  0.8578  0.2875 -2.3607
  338TIP3   OH222504   3.403   2.721  16.842  0.2654 -0.1135 -0.2251
  338TIP3    H122505   3.448   2.799  16.809  0.7060 -0.1790  0.2204
  338TIP3    H222506   3.310   2.744  16.838  0.4242  0.6923  0.5636
  339TIP3   OH222507   6.062   3.501  14.365  0.1823  0.2355  0.4239
  339TIP3    H122508   6.004   3.572  14.340  1.3045  0.2125 -2.4103
  339TIP3    H222509   6.121   3.539  14.430 -0.1345  1.4988 -0.0234
  340TIP3   OH222510   3.287   5.824   4.298 -0.4439  0.0940  0.1645
  340TIP3    H122511   3.312   5.740   4.260  0.6269  1.1479 -1.4867
  340TIP3    H222512   3.269   5.804   4.390  0.3883 -1.8265 -0.0753
  341TIP3   OH222513   4.213   0.936  11.974 -0.3987 -0.6411  0.4129
  341TIP3    H122514   4.224   0.954  11.881  0.3829 -0.6407  0.5059
  341TIP3    H222515   4.302   0.929  12.009 -0.6814 -0.3482  1.2189
  342TIP3   OH222516   4.633   0.867  10.673  0.8945 -0.0620 -0.0110
  342TIP3    H122517   4.585   0.785  10.682 -0.1836  0.5386 -0.2490
  342TIP3    H222518   4.597   0.924  10.742  0.8681  0.5723 -0.5460
  343TIP3   OH222519   4.385   2.092   4.417  0.0052  0.2521 -0.4024
  343TIP3    H122520   4.480   2.094   4.405  0.1107  1.3928  0.5662
  343TIP3    H222521   4.349   2.112   4.331  0.6402 -0.2147 -0.7794
  344TIP3   OH222522   4.961   0.288   2.612  1.1948 -0.2134 -0.5847
  344TIP3    H122523   5.013   0.211   2.590  1.2709 -0.6569  1.0852
  344TIP3    H222524   4.876   0.271   2.572  0.8045 -1.7757  0.8437
  345TIP3   OH222525   0.949   2.899   2.157  0.2634  0.3256 -0.8557
  345TIP3    H122526   1.016   2.834   2.178 -0.1546 -0.2428 -1.2545
  345TIP3    H222527   0.870   2.848   2.141 -0.3168  1.0065 -0.2070
  346TIP3   OH222528   3.565   4.048  12.762 -0.2726 -0.8947  0.0495
  346TIP3    H122529   3.529   3.965  12.793  0.5616 -0.6194  1.8319
  346TIP3    H222530   3.635   4.022  12.702  0.7913 -1.5198  1.5347
  347TIP3   OH222531   6.335   5.535  15.661 -0.0462  0.3876  0.2020
  347TIP3    H122532   6.389   5.541  15.740  0.6038 -1.1286 -0.1137
  347TIP3    H222533   6.397   5.509  15.592 -0.9700 -0.2341 -0.4066
  348TIP3   OH222534   2.074   0.748  15.096 -0.3695  0.4083 -0.6476
  348TIP3    H122535   2.093   0.714  15.184 -2.3562 -0.3304 -0.4953
  348TIP3    H222536   2.065   0.843  15.108  0.6676  0.4753 -0.3021
  349TIP3   OH222537   0.108   3.523  12.788 -0.0960  1.1220 -0.4144
  349TIP3    H122538   0.161   3.445  12.808 -1.2002  0.1758 -1.1398
  349TIP3    H222539   0.137   3.550  12.701 -1.0499  0.3944 -0.9606
  350TIP3   OH222540   4.090   6.497   2.378 -0.4401 -0.1032 -0.2609
  350TIP3    H122541   4.069   6.500   2.471  1.1107 -1.1686  0.1281
  350TIP3    H222542   4.059   6.411   2.349  0.8082 -0.5467 -0.3010
  351TIP3   OH222543   5.775   3.548  16.709 -0.6012 -0.1419 -0.4379
  351TIP3    H122544   5.853   3.593  16.741  0.0431 -1.0911 -0.6249
  351TIP3    H222545   5.707   3.570  16.772 -0.1350  0.5555 -0.1685
  352TIP3   OH222546   5.153   6.712  15.944  0.0133 -0.3784 -0.0646
  352TIP3    H122547   5.093   6.669  15.884  0.9638 -0.7773 -0.7481
  352TIP3    H222548   5.170   6.647  16.012 -2.0798  0.5305  1.3629
  353TIP3   OH222549   4.917   5.586  13.069  0.3747  0.1372  0.4799
  353TIP3    H122550   4.954   5.656  13.123  0.6181  0.6973 -0.4047
  353TIP3    H222551   4.935   5.506  13.117  1.3538  0.5549  0.8124
  354TIP3   OH222552   0.638   1.509   5.798  0.4348  0.1272 -0.5988
  354TIP3    H122553   0.690   1.535   5.721  0.1619  0.2102 -0.7540
  354TIP3    H222554   0.548   1.529   5.774  0.2893 -0.3672 -0.4721
  355TIP3   OH222555   6.143   3.387   6.166 -0.3110  0.4904  0.1229
  355TIP3    H122556   6.075   3.440   6.125 -0.0329  0.1816 -0.7438
  355TIP3    H222557   6.097   3.313   6.204 -0.3292 -0.3350 -1.4831
  356TIP3   OH222558   0.579   5.372  15.089  0.0840  0.0591  0.2912
  356TIP3    H122559   0.624   5.309  15.033  1.5251  1.9169 -0.6973
  356TIP3    H222560   0.486   5.359  15.070  0.4137 -1.0644 -0.6366
  357TIP3   OH222561   3.187   5.351   4.135 -0.5246 -0.2951  0.0378
  357TIP3    H122562   3.253   5.308   4.082 -0.2901  0.5273 -0.3531
  357TIP3    H222563   3.140   5.408   4.074  0.1369  1.1197  0.8167
  358TIP3   OH222564   0.031   6.659  13.257 -0.1554 -0.0639 -0.0504
  358TIP3    H122565   0.006   6.693  13.343 -0.4440  0.3629 -0.2981
  358TIP3    H222566   0.060   6.569  13.274  1.4334  0.5726  0.7475
  359TIP3   OH222567   1.312   1.522  16.849  0.6613 -0.2455  0.1915
  359TIP3    H122568   1.275   1.459  16.911  1.2821 -1.6976 -0.8954
  359TIP3    H222569   1.236   1.566  16.811  0.1500 -1.7440 -0.5098
  360TIP3   OH222570   0.242   3.823   5.098 -0.1056  0.3321 -0.6856
  360TIP3    H122571   0.158   3.798   5.060  0.6420 -0.8425 -1.5796
  360TIP3    H222572   0.219   3.872   5.177 -1.6234 -0.5146 -0.5930
  361TIP3   OH222573   1.805   2.378   1.933 -0.5372  0.0192  0.5545
  361TIP3    H122574   1.745   2.323   1.984 -0.2228 -0.7097  0.1364
  361TIP3    H222575   1.833   2.323   1.860 -3.0856  1.9017 -1.9828
  362TIP3   OH222576   1.632   3.103   3.355 -0.0717 -0.2134  0.3927
  362TIP3    H122577   1.688   3.061   3.420  0.0057 -0.5618  0.1050
  362TIP3    H222578   1.668   3.191   3.345 -1.4913  0.6493  2.5354
  363TIP3   OH222579   4.025   4.761  15.053 -0.4622  0.4121  0.2901
  363TIP3    H122580   3.976   4.679  15.053  0.4848 -0.1718  0.0106
  363TIP3    H222581   4.083   4.754  15.129  1.6735 -0.4518 -1.3801
  364TIP3   OH222582   2.718   1.783  15.893 -0.0420  0.0037 -0.1729
  364TIP3    H122583   2.665   1.724  15.946 -0.4370 -0.9580 -1.6210
  364TIP3    H222584   2.679   1.780  15.806  1.2326  0.7619 -0.7891
  365TIP3   OH222585   6.350   2.892   6.001 -0.0527  0.2674  0.0060
  365TIP3    H122586   6.371   2.807   5.963 -2.5406 -0.6810  0.6545
  365TIP3    H222587   6.327   2.872   6.092  2.3164  2.0465  1.0481
  366TIP3   OH222588   1.212   1.372   1.515 -0.1454 -0.5279  0.2079
  366TIP3    H122589   1.195   1.394   1.606 -0.3132 -0.7173  0.2239
  366TIP3    H222590   1.300   1.406   1.498 -1.0185  1.5876 -0.2411
  367TIP3   OH222591   6.022   5.424  14.712 -0.1587  0.1110  0.7054
  367TIP3    H122592   6.107   5.422  14.755 -0.0340 -2.5334  0.4383
  367TIP3    H222593   5.970   5.358  14.758 -0.7260 -1.2069 -1.7015
  368TIP3   OH222594   1.989   4.887  14.451 -0.0704  0.3999 -0.0549
  368TIP3    H122595   2.026   4.940  14.381 -1.0920 -0.0155 -0.9263
  368TIP3    H222596   1.907   4.853  14.414 -0.7324  0.3714  1.4277
  369TIP3   OH222597   5.983   5.744   3.125  0.4550  0.3264 -0.4649
  369TIP3    H122598   6.025   5.798   3.192  0.8634 -0.9738  0.3307
  369TIP3    H222599   6.051   5.731   3.059  0.4872  0.4232 -0.4511
  370TIP3   OH222600   5.394   1.258   5.315 -0.6296 -0.1116  0.2551
  370TIP3    H122601   5.335   1.314   5.366 -0.5464  0.1548  0.0623
  370TIP3    H222602   5.436   1.202   5.380 -2.7357 -1.8580  0.1891
  371TIP3   OH222603   5.801   0.320   2.978 -0.0037  0.2774 -0.0331
  371TIP3    H122604   5.816   0.414   2.969 -1.1314  0.5680  1.0395
  371TIP3    H222605   5.731   0.313   3.044  1.2744 -1.3643  1.1946
  372TIP3   OH222606   2.601   6.235   0.230  0.4650 -0.0943  0.4557
  372TIP3    H122607   2.590   6.308   0.169 -1.2519  0.0312  0.8794
  372TIP3    H222608   2.616   6.159   0.175 -1.2912 -0.0217 -0.1648
  373TIP3   OH222609   1.046   4.283  15.223  0.8249  0.5176  0.0446
  373TIP3    H122610   0.993   4.203  15.221  1.0548  0.2865  1.9314
  373TIP3    H222611   0.983   4.354  15.208  0.3224  0.1026  0.1780
  374TIP3   OH222612   3.928   4.739  14.036  0.2504  0.4951  0.3229
  374TIP3    H122613   4.020   4.740  14.008  1.0282  2.7016  2.8158
  374TIP3    H222614   3.895   4.825  14.011 -0.8368  0.1298  0.4804
  375TIP3   OH222615   4.552   6.267  11.398 -0.2349  0.5448  0.1324
  375TIP3    H122616   4.513   6.252  11.484  0.2967  1.4319  0.5289
  375TIP3    H222617   4.643   6.239  11.407 -0.3820 -0.1120 -0.3679
  376TIP3   OH222618   4.663   4.705   5.460 -0.2254 -0.0431 -0.0883
  376TIP3    H122619   4.742   4.746   5.426 -0.1223 -1.0276 -1.0707
  376TIP3    H222620   4.608   4.692   5.382 -0.8928 -0.3626  0.4339
  377TIP3   OH222621   5.078   3.951  12.803  0.2796  0.0153  0.4044
  377TIP3    H122622   5.018   3.943  12.729 -2.3536 -2.4001  2.7063
  377TIP3    H222623   5.164   3.934  12.765 -0.9177 -0.4163 -2.2409
  378TIP3   OH222624   3.760   2.417   2.337  0.1378 -0.4220  0.1752
  378TIP3    H122625   3.744   2.418   2.431 -0.5928  1.0273  0.0540
  378TIP3    H222626   3.716   2.338   2.306 -0.0248 -0.6523  0.9983
  379TIP3   OH222627   1.255   2.793   2.360 -0.7351 -0.2375 -0.4434
  379TIP3    H122628   1.258   2.882   2.324  1.1285  0.0413  0.3728
  379TIP3    H222629   1.198   2.745   2.299 -0.7874  1.2076 -1.5594
  380TIP3   OH222630   5.975   6.248  16.444  0.3392 -0.0143 -0.2080
  380TIP3    H122631   5.961   6.173  16.502  1.4045  0.7874  1.1189
  380TIP3    H222632   5.887   6.282  16.427 -0.0077 -0.4998  0.5921
  381TIP3   OH222633   1.207   5.872  15.167  0.1808  0.3569 -0.2530
  381TIP3    H122634   1.224   5.816  15.091  0.6765 -0.9105  0.7744
  381TIP3    H222635   1.125   5.917  15.146  0.0529 -0.3533 -1.3185
  382TIP3   OH222636   4.412   4.294  14.594 -0.3938  0.2479 -0.0665
  382TIP3    H122637   4.387   4.209  14.557  0.7496 -0.4360  0.7135
  382TIP3    H222638   4.338   4.317  14.652  0.6755 -1.7508  2.2022
  383TIP3   OH222639   2.950   1.535  12.101 -0.1622 -0.1930  0.2272
  383TIP3    H122640   2.982   1.623  12.124  0.5081  0.2049 -2.0423
  383TIP3    H222641   2.857   1.547  12.085 -0.0130  0.1696 -0.3809
  384TIP3   OH222642   0.953   0.835   4.232 -0.0118  0.6260 -0.4419
  384TIP3    H122643   0.878   0.890   4.255 -0.1047  0.3401 -0.0576
  384TIP3    H222644   0.977   0.792   4.314  0.4408  0.5553 -0.6098
  385TIP3   OH222645   4.902   5.079   0.832 -0.0682 -0.1530 -0.2507
  385TIP3    H122646   4.915   5.043   0.744 -1.5284 -1.0613 -0.1183
  385TIP3    H222647   4.907   5.003   0.890  0.9140  0.4464  0.4684
  386TIP3   OH222648   6.799   2.189   6.302  0.0884 -0.1935  0.1506
  386TIP3    H122649   6.785   2.189   6.397 -1.6186 -2.5655 -0.0870
  386TIP3    H222650   6.894   2.177   6.293  0.1173 -1.1327  1.5265
  387TIP3   OH222651   6.121   5.015   2.237  0.7643  0.3974 -0.0566
  387TIP3    H122652   6.093   5.105   2.225 -0.0705  0.1398 -0.0865
  387TIP3    H222653   6.049   4.974   2.285  1.3424 -0.1356  0.3713
  388TIP3   OH222654   1.179   2.776   0.836 -0.5985  0.0534 -0.2111
  388TIP3    H122655   1.216   2.693   0.865 -0.6890  0.6284  1.5576
  388TIP3    H222656   1.084   2.763   0.841 -0.6329  1.0363  2.3945
  389TIP3   OH222657   2.684   3.201  14.616  0.5974  0.3279 -0.2363
  389TIP3    H122658   2.643   3.132  14.564  0.5319 -0.4852  0.8770
  389TIP3    H222659   2.688   3.165  14.704 -0.0317  2.0103  0.4978
  390TIP3   OH222660   0.539   4.754   5.663  0.8194  0.3337 -0.4154
  390TIP3    H122661   0.477   4.693   5.625  2.7205 -0.3807 -2.5411
  390TIP3    H222662   0.565   4.810   5.589  2.0314  1.1651  0.6194
  391TIP3   OH222663   2.651   0.931   5.928  0.6102 -0.4499  0.0569
  391TIP3    H122664   2.562   0.916   5.894  1.5626 -0.5894 -2.4821
  391TIP3    H222665   2.659   0.870   6.001 -1.1857 -0.8088 -0.0102
  392TIP3   OH222666   4.169   3.041  13.352  0.0330 -0.0071 -0.0437
  392TIP3    H122667   4.209   3.077  13.432 -0.3670  0.6236 -0.1257
  392TIP3    H222668   4.229   2.971  13.325 -0.0568 -0.5125  1.0464
  393TIP3   OH222669   5.459   4.490   1.906  0.2394  0.5775  0.0258
  393TIP3    H122670   5.547   4.526   1.913  0.8639 -0.6435 -1.3319
  393TIP3    H222671   5.456   4.448   1.819 -1.1265 -0.8149  0.7051
  394TIP3   OH222672   0.802   4.862   5.057 -0.0078 -0.2307 -0.4035
  394TIP3    H122673   0.722   4.913   5.041 -1.7141 -2.6028  0.1668
  394TIP3    H222674   0.786   4.779   5.011  1.0672 -1.7064  1.8125
  395TIP3   OH222675   4.999   0.951   2.767 -0.4632 -0.2490  0.0507
  395TIP3    H122676   4.984   0.968   2.674 -3.1461  1.7730  0.7730
  395TIP3    H222677   4.948   0.872   2.786 -0.2178 -0.4498 -0.1339
  396TIP3   OH222678   1.889   6.107   4.803 -0.1368 -0.1909 -0.0627
  396TIP3    H122679   1.831   6.055   4.747 -0.6580  0.5753 -0.2416
  396TIP3    H222680   1.974   6.106   4.758 -0.7012  0.9149 -1.1826
  397TIP3   OH222681   3.312   1.649  15.258 -0.2099  0.0930  0.4155
  397TIP3    H122682   3.278   1.561  15.244  0.7668 -0.0520 -1.2425
  397TIP3    H222683   3.401   1.635  15.292 -0.4675  0.4482  1.2523
  398TIP3   OH222684   4.429   0.680   4.675 -0.0579  0.1038  0.2598
  398TIP3    H122685   4.512   0.637   4.655  0.2492  0.3770  0.9539
  398TIP3    H222686   4.422   0.750   4.609 -0.1753 -0.4936 -0.3651
  399TIP3   OH222687   4.870   2.429   4.736  0.0898  0.0047  0.3905
  399TIP3    H122688   4.783   2.396   4.759  0.4113 -1.0611  0.0868
  399TIP3    H222689   4.873   2.423   4.641 -0.3758  2.2637  0.2094
  400TIP3   OH222690   1.066   4.501  11.061 -0.1098  0.1220 -0.1668
  400TIP3    H122691   1.159   4.502  11.037  0.1830  1.9159  0.9115
  400TIP3    H222692   1.059   4.568  11.129 -2.0351 -0.6351  0.4059
  401TIP3   OH222693   1.509   4.208   0.987 -0.1094 -0.0016  0.2364
  401TIP3    H122694   1.487   4.300   0.975 -0.3461 -0.0270  0.4747
  401TIP3    H222695   1.473   4.185   1.073  1.3774  0.1268  0.9160
  402TIP3   OH222696   3.547   3.350   2.066  0.5028 -0.1764  0.5027
  402TIP3    H122697   3.587   3.290   2.003  0.9271 -0.5014  1.0759
  402TIP3    H222698   3.619   3.404   2.096  0.1532  0.5089  0.1222
  403TIP3   OH222699   6.359   1.670  16.778 -0.0953 -0.2721 -0.7678
  403TIP3    H122700   6.430   1.659  16.715  1.6757  0.2779  1.0626
  403TIP3    H222701   6.365   1.592  16.834  0.8306  1.0553  1.0415
  404TIP3   OH222702   1.602   1.312   0.583 -0.5336 -0.6561  0.4017
  404TIP3    H122703   1.536   1.252   0.548 -0.8942 -0.6621  1.0654
  404TIP3    H222704   1.581   1.318   0.677  0.7721 -1.1116  0.7315
  405TIP3   OH222705   1.296   0.259  15.526  0.8127  0.0957 -0.5184
  405TIP3    H122706   1.224   0.196  15.519  0.9522 -0.0214 -0.8919
  405TIP3    H222707   1.264   0.336  15.478 -0.4182  1.2782  2.1072
  406TIP3   OH222708   0.418   0.242  14.604  0.1853 -0.4455 -0.4152
  406TIP3    H122709   0.372   0.282  14.678 -1.3603 -0.6677 -1.2270
  406TIP3    H222710   0.426   0.313  14.540  1.9485 -0.1261  0.1381
  407TIP3   OH222711   4.603   6.165  16.906 -0.2854 -0.0355 -0.0065
  407TIP3    H122712   4.644   6.127  16.983 -0.3923 -0.1404 -0.0012
  407TIP3    H222713   4.588   6.257  16.929  0.0413  0.0306 -0.0474
  408TIP3   OH222714   4.212   1.092  12.234 -0.1871 -0.4785  0.5685
  408TIP3    H122715   4.175   1.064  12.151 -0.4274  0.3144  0.4033
  408TIP3    H222716   4.254   1.014  12.269 -2.1103 -1.4392  0.8125
  409TIP3   OH222717   1.044   1.744   3.913 -0.3611  0.0786  0.5264
  409TIP3    H122718   1.071   1.669   3.860  0.3953  0.1077  0.8712
  409TIP3    H222719   0.948   1.743   3.908 -0.3077  0.0011 -0.7371
  410TIP3   OH222720   1.886   3.031  14.292 -0.0669 -0.4243 -0.0010
  410TIP3    H122721   1.848   2.952  14.252 -0.9114  1.0225 -2.1066
  410TIP3    H222722   1.819   3.059  14.355 -1.9911  1.2974 -2.6836
  411TIP3   OH222723   4.012   0.043   6.664 -0.5981  0.8716  0.1414
  411TIP3    H122724   4.011   0.076   6.575 -1.1295 -0.4657 -0.3560
  411TIP3    H222725   3.922   0.012   6.680 -0.1037 -0.3894  0.5610
  412TIP3   OH222726   5.427   3.072   2.224 -0.2773 -0.0936  0.4548
  412TIP3    H122727   5.432   3.022   2.143 -1.4224  0.0568  0.2904
  412TIP3    H222728   5.395   3.158   2.198  1.0170  0.5269  0.8362
  413TIP3   OH222729   3.361   2.566  15.391  0.6167 -0.6925 -0.8764
  413TIP3    H122730   3.375   2.651  15.432 -1.5809 -0.5324 -0.4494
  413TIP3    H222731   3.449   2.539  15.363  1.2682  1.9474 -1.5011
  414TIP3   OH222732   4.493   5.120  15.204 -0.1001  0.5600  0.2278
  414TIP3    H122733   4.503   5.208  15.168  0.1164  0.0793 -0.8978
  414TIP3    H222734   4.405   5.119  15.240 -0.3586  1.0133 -0.3766
  415TIP3   OH222735   0.028   4.570   3.971 -0.5656  0.1773  0.1191
  415TIP3    H122736  -0.053   4.520   3.965 -0.7244  0.4718 -0.2202
  415TIP3    H222737   0.004   4.658   3.942 -0.2176  0.3702  0.4091
  416TIP3   OH222738   4.740   4.827   4.939  0.2320 -0.1454 -0.5871
  416TIP3    H122739   4.675   4.758   4.924 -0.1147 -0.0725  0.5677
  416TIP3    H222740   4.719   4.894   4.874 -0.5787 -0.3198 -0.5063
  417TIP3   OH222741   6.771   4.495  11.518  0.2370 -0.8671  0.0862
  417TIP3    H122742   6.852   4.542  11.496 -0.1183 -0.3683 -0.1587
  417TIP3    H222743   6.731   4.549  11.587 -0.0500 -0.9454 -0.0221
  418TIP3   OH222744   1.636   2.902  10.873 -0.4663  0.2138  0.0979
  418TIP3    H122745   1.555   2.939  10.839  0.0914 -0.1960 -1.7421
  418TIP3    H222746   1.685   2.977  10.905 -1.0530  0.5992  0.0952
  419TIP3   OH222747   6.432   1.743   2.111  0.3469  0.4038 -0.1499
  419TIP3    H122748   6.458   1.833   2.089 -0.4079  0.6034 -0.2124
  419TIP3    H222749   6.348   1.752   2.155 -0.1250 -0.3416 -0.8798
  420TIP3   OH222750   4.659   5.858   5.800  0.1846 -0.1543  0.0829
  420TIP3    H122751   4.724   5.914   5.756  0.7860 -2.4183 -2.0140
  420TIP3    H222752   4.703   5.825   5.877  0.4620  0.7821  0.3260
  421TIP3   OH222753   4.513   1.118   2.039  0.3961 -0.3722  0.4698
  421TIP3    H122754   4.596   1.150   2.074  1.8237 -0.9408 -2.2769
  421TIP3    H222755   4.494   1.040   2.090  1.4586 -0.1224  1.2597
  422TIP3   OH222756   0.114   4.766  17.275 -0.4728 -0.1725 -0.4815
  422TIP3    H122757   0.206   4.789  17.262 -0.2856 -1.5452 -1.6842
  422TIP3    H222758   0.096   4.698  17.210 -2.6030  0.7323 -0.8919
  423TIP3   OH222759   3.537   2.573   4.402  0.0011 -0.4749  0.2623
  423TIP3    H122760   3.484   2.587   4.323 -1.6128 -0.0228  1.4001
  423TIP3    H222761   3.563   2.661   4.430 -0.5176 -0.5368  0.9523
  424TIP3   OH222762   4.471   5.486   0.390 -0.2345 -0.7406 -0.0412
  424TIP3    H122763   4.503   5.478   0.480  1.4988 -0.4299 -0.6160
  424TIP3    H222764   4.382   5.521   0.400 -0.4474 -1.6699  1.5822
  425TIP3   OH222765   6.173   1.107   0.010  0.0981 -0.0600  0.3556
  425TIP3    H122766   6.188   1.013  -0.003  0.1436  0.2534 -2.1053
  425TIP3    H222767   6.105   1.111   0.077 -0.9588 -1.9078 -0.5668
  426TIP3   OH222768   3.411   0.190   5.377  0.2999  0.3869 -0.2534
  426TIP3    H122769   3.364   0.225   5.302  0.5629  1.3890  0.0500
  426TIP3    H222770   3.353   0.204   5.451  0.4238  0.2245 -0.1247
  427TIP3   OH222771   0.482   4.841  13.560  0.3131 -0.0615  0.1012
  427TIP3    H122772   0.535   4.888  13.625 -1.9999  2.9425 -0.0836
  427TIP3    H222773   0.527   4.857  13.477 -1.5519  3.7473 -0.2760
  428TIP3   OH222774   0.855   5.798   2.902 -0.3028  0.8356 -0.0787
  428TIP3    H122775   0.921   5.733   2.927 -0.8823 -0.3442 -1.5144
  428TIP3    H222776   0.813   5.760   2.825 -0.3668  3.1219 -1.2138
  429TIP3   OH222777   1.090   3.924   6.003  0.0207 -0.2450  0.0076
  429TIP3    H122778   1.054   3.995   5.949  1.4621  1.7099  1.5565
  429TIP3    H222779   1.058   3.942   6.091  1.9291 -0.4203  0.7683
  430TIP3   OH222780   6.619   0.225   4.534  0.4651  0.4924  0.0073
  430TIP3    H122781   6.603   0.310   4.493  1.5872  0.4067 -0.6116
  430TIP3    H222782   6.533   0.184   4.538  0.0109  1.3996 -0.2599
  431TIP3   OH222783   1.490   3.639   3.567  0.2552 -0.2584 -0.6290
  431TIP3    H122784   1.460   3.621   3.657 -2.5361 -0.5309 -1.5462
  431TIP3    H222785   1.509   3.733   3.567 -0.4833 -0.0977  0.0433
  432TIP3   OH222786   2.356   6.682  15.415 -0.3359 -0.3686  0.2423
  432TIP3    H122787   2.297   6.623  15.462  1.3361 -5.3302 -3.4085
  432TIP3    H222788   2.430   6.694  15.474 -1.0718 -1.2601  1.3639
  433TIP3   OH222789   0.308   2.422   0.338  0.6083 -0.2061 -0.3246
  433TIP3    H122790   0.285   2.346   0.285 -2.6396  0.3073  0.2269
  433TIP3    H222791   0.288   2.397   0.428  4.5330 -0.4895  0.5674
  434TIP3   OH222792   4.050   6.182  12.137  0.5907 -0.3512 -0.4523
  434TIP3    H122793   3.969   6.137  12.162 -1.6531  1.7868 -3.4388
  434TIP3    H222794   4.074   6.143  12.053  0.6505  1.4379 -1.2919
  435TIP3   OH222795   1.449   4.712   1.300 -0.3901 -0.7496  0.5277
  435TIP3    H122796   1.509   4.639   1.286 -0.6251 -0.6951 -0.8916
  435TIP3    H222797   1.391   4.710   1.224  0.0058  1.2959  0.1214
  436TIP3   OH222798   5.164   0.745   0.712 -0.7032 -0.2473  0.2205
  436TIP3    H122799   5.155   0.652   0.730  0.0468 -0.7827 -1.9878
  436TIP3    H222800   5.084   0.769   0.666  0.6628 -0.6832 -2.4974
  437TIP3   OH222801   1.836   2.009   1.521  0.1056 -0.0605  0.0375
  437TIP3    H122802   1.766   2.074   1.516  0.4950  0.2408 -2.3727
  437TIP3    H222803   1.790   1.925   1.526 -0.4508  0.1637 -1.0133
  438TIP3   OH222804   6.504   1.526   0.991 -0.0550  0.4332 -0.0381
  438TIP3    H122805   6.530   1.602   1.043  0.5371  0.2074  0.0009
  438TIP3    H222806   6.547   1.452   1.033  0.2807  0.2242 -0.7442
  439TIP3   OH222807   6.304   6.023   4.920  0.2628  0.1481 -0.1776
  439TIP3    H122808   6.341   6.104   4.886  1.3000 -0.1888  0.1162
  439TIP3    H222809   6.380   5.972   4.949 -0.1972 -1.9113 -2.4710
  440TIP3   OH222810   0.667   2.514  16.641  0.1236  0.1011  0.2925
  440TIP3    H122811   0.596   2.476  16.589  0.0604 -0.3426  0.6971
  440TIP3    H222812   0.648   2.487  16.730  1.5689 -1.2039  0.2211
  441TIP3   OH222813   0.779   4.702   1.261  0.0975  0.0955 -0.0983
  441TIP3    H122814   0.685   4.683   1.249  0.6979 -2.5531 -0.9955
  441TIP3    H222815   0.808   4.729   1.174  0.4807 -0.5763 -0.1791
  442TIP3   OH222816   5.555   3.742   6.373  0.2303 -0.0868  0.2833
  442TIP3    H122817   5.547   3.727   6.467 -2.1744  1.7419  0.4195
  442TIP3    H222818   5.604   3.824   6.366  0.6146 -0.3434 -0.0742
  443TIP3   OH222819   0.388   4.465   5.356  0.2697  0.2044 -0.3833
  443TIP3    H122820   0.465   4.519   5.334  0.8205 -0.5441 -0.3143
  443TIP3    H222821   0.367   4.489   5.446  1.0761 -0.3536 -0.0401
  444TIP3   OH222822   3.699   4.143   3.785  0.2760  0.6749  0.3521
  444TIP3    H122823   3.716   4.088   3.710  0.2642 -0.8204  1.4222
  444TIP3    H222824   3.784   4.152   3.829  0.0205  0.4316  0.8985
  445TIP3   OH222825   0.335   1.902  16.459  0.2405  0.3873 -0.0004
  445TIP3    H122826   0.281   1.861  16.391 -3.3285  3.3597  0.8954
  445TIP3    H222827   0.308   1.858  16.540 -0.4502  1.4842  0.3719
  446TIP3   OH222828   5.222   0.473   5.976  0.3442  0.7932 -0.3947
  446TIP3    H122829   5.214   0.510   6.064  1.3406 -2.5350  1.1627
  446TIP3    H222830   5.132   0.464   5.946 -0.1987 -1.2540  1.7049
  447TIP3   OH222831   3.289   3.208   3.618  0.5534  0.7052 -0.2610
  447TIP3    H122832   3.360   3.233   3.677  1.5842 -1.7777 -0.3953
  447TIP3    H222833   3.313   3.246   3.534  1.5885  0.0804 -0.2467
  448TIP3   OH222834   0.099   6.644  17.034  0.0962 -0.6816 -0.1668
  448TIP3    H122835   0.116   6.716  16.974 -0.8637  0.4184  0.8574
  448TIP3    H222836   0.182   6.629  17.079  0.0979  0.3154  0.1746
  449TIP3   OH222837   6.236   6.454   3.562  0.1443 -0.3443 -0.6040
  449TIP3    H122838   6.303   6.521   3.575 -1.0673  0.6113  0.9074
  449TIP3    H222839   6.199   6.472   3.476 -1.2732  1.9793  0.4339
  450TIP3   OH222840   4.474   3.501  14.504  0.3295 -0.2282  0.1336
  450TIP3    H122841   4.500   3.465  14.589  0.7554 -0.6680 -0.1807
  450TIP3    H222842   4.397   3.451  14.479 -0.4289  0.5992  0.7351
  451TIP3   OH222843   5.154   5.720   5.666 -0.0111  0.1542  0.2223
  451TIP3    H122844   5.128   5.729   5.575  1.5901  0.3158 -0.2224
  451TIP3    H222845   5.138   5.806   5.704 -0.1452  0.2477 -0.0491
  452TIP3   OH222846   0.618   2.672   0.789  0.5886 -1.0845 -0.2058
  452TIP3    H122847   0.574   2.686   0.872  1.2813 -2.1405  0.3634
  452TIP3    H222848   0.554   2.696   0.722 -0.2465 -0.9991  0.6226
  453TIP3   OH222849   6.297   3.264   2.035  0.2420 -0.0839  0.2700
  453TIP3    H122850   6.308   3.323   1.961  1.5947  0.2111  0.6946
  453TIP3    H222851   6.336   3.181   2.006  0.1634 -0.1685  0.4037
  454TIP3   OH222852   3.972   0.108  12.254  0.0669 -0.2858  0.1680
  454TIP3    H122853   4.041   0.174  12.244  1.6552 -1.7064  1.3940
  454TIP3    H222854   3.970   0.090  12.348 -1.5942 -0.7045  0.0652
  455TIP3   OH222855   0.622   6.409  13.540 -0.1072  0.2906  0.5735
  455TIP3    H122856   0.552   6.467  13.569 -1.5123 -0.1570 -1.8730
  455TIP3    H222857   0.629   6.424  13.446  2.2127 -0.6195  0.5713
  456TIP3   OH222858   4.976   2.735   4.682 -0.4607  0.4439  0.1016
  456TIP3    H122859   4.931   2.654   4.706 -0.7118  0.4282 -0.4335
  456TIP3    H222860   5.053   2.737   4.739 -0.4954 -0.1306  0.1696
  457TIP3   OH222861   5.577   1.325   3.328 -0.8842  0.0090 -0.1934
  457TIP3    H122862   5.593   1.235   3.355 -1.2216 -0.1625 -0.5638
  457TIP3    H222863   5.496   1.321   3.277 -0.8314  0.5002 -0.3174
  458TIP3   OH222864   3.674   0.568   3.359  0.0632 -0.2065  0.3673
  458TIP3    H122865   3.646   0.633   3.424 -0.4207 -1.0030  0.9673
  458TIP3    H222866   3.683   0.487   3.409  0.3816 -0.6697 -0.4346
  459TIP3   OH222867   2.828   5.939  13.992  0.1056 -0.0541 -0.2433
  459TIP3    H122868   2.892   5.888  14.042 -1.1845 -1.1492  0.3347
  459TIP3    H222869   2.806   5.883  13.918 -0.3753  0.2029 -0.2965
  460TIP3   OH222870   1.130   2.573   3.854  0.4925 -0.1282 -0.0859
  460TIP3    H122871   1.175   2.647   3.896  0.2766 -1.3213  2.2955
  460TIP3    H222872   1.199   2.529   3.804  0.9467  0.7763 -0.2730
  461TIP3   OH222873   0.452   5.682  11.384  0.2294 -0.1719  0.2965
  461TIP3    H122874   0.449   5.589  11.408  0.6960 -0.6294 -1.3858
  461TIP3    H222875   0.400   5.725  11.452  0.2490 -1.6224  1.2612
  462TIP3   OH222876   6.045   0.787  14.993 -0.1912  0.4041 -0.3608
  462TIP3    H122877   6.039   0.747  15.079  0.0307  0.3624 -0.3649
  462TIP3    H222878   5.975   0.746  14.942  0.8418 -0.8998 -0.7415
  463TIP3   OH222879   5.036   3.494   4.877  0.1208 -0.3424 -0.1411
  463TIP3    H122880   5.060   3.407   4.846  0.9744  0.0492 -0.6158
  463TIP3    H222881   4.978   3.529   4.810  1.4464  0.2508 -1.0212
  464TIP3   OH222882   6.682   2.457  13.012  0.5232 -0.1378  0.2193
  464TIP3    H122883   6.606   2.409  13.046  1.1477  0.0119  1.8698
  464TIP3    H222884   6.659   2.475  12.921 -0.0382 -2.9228 -0.2597
  465TIP3   OH222885   3.820   1.514  14.571  0.0263  0.2302 -0.2373
  465TIP3    H122886   3.742   1.569  14.574 -0.9758 -1.2127  1.4781
  465TIP3    H222887   3.824   1.481  14.482 -1.2289  0.4496 -0.3737
  466TIP3   OH222888   1.292   3.241   1.537 -0.2915  0.2003 -0.2214
  466TIP3    H122889   1.387   3.238   1.541 -0.3660 -1.8264  0.7598
  466TIP3    H222890   1.265   3.287   1.616 -0.1723 -0.0789 -0.0215
  467TIP3   OH222891   3.973   4.680   4.347 -0.0207 -0.3884  0.1668
  467TIP3    H122892   3.892   4.664   4.396 -0.1890  0.7452  0.2718
  467TIP3    H222893   4.041   4.688   4.414 -0.2968  1.4390  0.2556
  468TIP3   OH222894   4.554   0.153   2.308  0.4945 -0.2759 -0.0694
  468TIP3    H122895   4.477   0.194   2.268  0.5963 -0.7268 -0.7384
  468TIP3    H222896   4.615   0.142   2.235  0.5204 -1.4899  0.1293
  469TIP3   OH222897   1.500   3.565  16.858  0.0241  0.1992  0.2387
  469TIP3    H122898   1.588   3.549  16.893  0.1389  0.4667  0.0733
  469TIP3    H222899   1.474   3.649  16.895 -0.5497 -0.3272  1.0388
  470TIP3   OH222900   6.010   1.386  11.273 -0.1366  0.3084 -0.0740
  470TIP3    H122901   6.098   1.416  11.250  0.0654 -1.9080 -2.4109
  470TIP3    H222902   5.952   1.434  11.214 -0.3770  0.6371  0.4253
  471TIP3   OH222903   6.166   1.657  13.225  0.2743 -0.1003  0.2756
  471TIP3    H122904   6.090   1.599  13.231 -2.0030  2.6638 -0.9059
  471TIP3    H222905   6.223   1.628  13.296 -0.5631 -4.0367 -0.5276
  472TIP3   OH222906   2.400   2.571  13.614  0.2884  0.3518 -0.3517
  472TIP3    H122907   2.373   2.483  13.640  2.2784  0.1665  1.1964
  472TIP3    H222908   2.468   2.557  13.548 -0.0104  0.7462 -0.7477
  473TIP3   OH222909   5.772   2.039   6.085 -0.2250  0.0317 -0.1273
  473TIP3    H122910   5.829   2.056   6.160 -1.2255  1.5903  0.3128
  473TIP3    H222911   5.691   2.004   6.123  0.3578 -1.9894 -0.7316
  474TIP3   OH222912   1.658   5.176   0.801 -0.1087  0.4754  0.4482
  474TIP3    H122913   1.651   5.080   0.807  0.1947  0.4818  0.8894
  474TIP3    H222914   1.612   5.198   0.720 -0.3505 -0.0252  0.4478
  475TIP3   OH222915   4.808   3.076  10.383  0.2076 -0.5348  0.3260
  475TIP3    H122916   4.731   3.131  10.366  0.1215 -0.5833  0.5546
  475TIP3    H222917   4.780   2.987  10.363  0.9070 -0.2944 -1.8669
  476TIP3   OH222918   1.078   4.615  10.740 -0.3088 -0.9566 -0.8313
  476TIP3    H122919   0.989   4.581  10.729 -0.4413 -0.7105 -0.5234
  476TIP3    H222920   1.134   4.538  10.733 -0.4823 -0.9904 -1.9000
  477TIP3   OH222921   6.050   5.489  12.695 -0.2066 -0.4893  0.2340
  477TIP3    H122922   6.050   5.480  12.599  0.1248  3.6460 -0.2414
  477TIP3    H222923   6.128   5.443  12.723 -1.0355 -2.9576 -1.3142
  478TIP3   OH222924   5.644   2.429  16.497  0.0008  0.5118 -0.8052
  478TIP3    H122925   5.652   2.334  16.498  2.9487  0.7383 -0.2133
  478TIP3    H222926   5.609   2.451  16.583 -0.2859  0.0086 -0.7906
  479TIP3   OH222927   5.923   3.042  14.483  0.0910 -0.7535  0.3699
  479TIP3    H122928   5.990   3.025  14.549 -0.9632  2.7535  2.4966
  479TIP3    H222929   5.915   3.137  14.481 -3.1549 -0.9819 -1.5121
  480TIP3   OH222930   4.827   1.845  16.348  0.2508 -0.4405 -0.1114
  480TIP3    H122931   4.876   1.917  16.387  1.2704 -0.2107 -1.7824
  480TIP3    H222932   4.735   1.868  16.363  0.5862  0.5482  0.5026
  481TIP3   OH222933   1.773   1.128  10.842  0.5903 -0.0008  0.0550
  481TIP3    H122934   1.752   1.209  10.794  0.1350 -0.9551 -1.3898
  481TIP3    H222935   1.690   1.082  10.849  0.9492 -0.6052  0.3974
  482TIP3   OH222936   3.919   5.837   2.135 -0.2864  0.3066  0.5502
  482TIP3    H122937   3.929   5.742   2.125  0.1130  0.3364  0.6466
  482TIP3    H222938   3.870   5.865   2.058 -0.8749 -0.0567  0.7943
  483TIP3   OH222939   0.809   4.405  15.175  0.0924  0.6237  0.4532
  483TIP3    H122940   0.714   4.402  15.180  0.1881 -0.2534  1.9124
  483TIP3    H222941   0.831   4.498  15.180 -0.7917  1.0225 -2.3305
  484TIP3   OH222942   3.092   3.389   2.013 -0.1079 -0.2017  0.4483
  484TIP3    H122943   3.093   3.430   2.099 -2.5841 -0.4293  0.6192
  484TIP3    H222944   3.183   3.364   1.997  1.1285  3.4580  1.2196
  485TIP3   OH222945   2.772   0.528   4.040 -0.1073  0.1663  0.5306
  485TIP3    H122946   2.795   0.618   4.015  1.0686 -0.1492  0.4709
  485TIP3    H222947   2.842   0.501   4.099 -0.6723 -0.5747  0.8603
  486TIP3   OH222948   3.082   1.052  15.789 -1.0890 -0.3580 -0.0231
  486TIP3    H122949   3.161   1.105  15.800 -1.1494 -0.2800  0.0355
  486TIP3    H222950   3.085   1.022  15.698 -1.0581 -0.2486 -0.0567
  487TIP3   OH222951   6.638   2.828   1.991  0.1149  0.6418  0.1281
  487TIP3    H122952   6.681   2.745   1.970 -0.0341 -0.0381  2.3390
  487TIP3    H222953   6.687   2.894   1.942  2.5203 -0.3346  1.1283
  488TIP3   OH222954   4.230   5.685   5.370  0.0036 -0.2862  0.5077
  488TIP3    H122955   4.177   5.759   5.397  1.3070  1.7709 -2.3264
  488TIP3    H222956   4.168   5.623   5.332 -0.7611  0.6758  0.1599
  489TIP3   OH222957   0.438   6.149   4.222 -0.0553  0.2545 -0.0067
  489TIP3    H122958   0.464   6.234   4.259 -0.8338  0.7869 -0.6574
  489TIP3    H222959   0.369   6.118   4.280 -0.2435  0.3928 -0.1542
  490TIP3   OH222960   4.083   3.581   2.980  0.1642  0.2506 -0.3029
  490TIP3    H122961   4.128   3.497   2.970 -0.8665 -0.8087  3.0379
  490TIP3    H222962   4.080   3.594   3.075 -2.6285  2.4541 -0.6530
  491TIP3   OH222963   4.140   3.771  14.929  0.5322  0.2861 -0.2850
  491TIP3    H122964   4.215   3.807  14.974  1.0045  0.3303 -1.0941
  491TIP3    H222965   4.082   3.740  14.998 -0.2961  3.3684  0.4732
  492TIP3   OH222966   3.796   2.636  15.324  0.2313  0.2766  0.1425
  492TIP3    H122967   3.789   2.600  15.235 -2.6133 -0.5427  0.6565
  492TIP3    H222968   3.758   2.724  15.317  2.6343  1.3442 -0.0297
  493TIP3   OH222969   4.734   6.664  13.203  0.5343  0.2639 -0.0311
  493TIP3    H122970   4.825   6.689  13.217  0.5627  0.6240 -0.8133
  493TIP3    H222971   4.705   6.629  13.287  1.7560 -1.0004 -0.1154
  494TIP3   OH222972   6.254   4.598  12.471 -0.3193 -0.6572 -0.0443
  494TIP3    H122973   6.226   4.625  12.558  0.7857  1.9467 -0.4678
  494TIP3    H222974   6.191   4.639  12.412  1.6860  1.5523 -0.7253
  495TIP3   OH222975   4.734   5.041   4.700  0.1617 -0.4890  0.3499
  495TIP3    H122976   4.697   4.995   4.625  0.9504 -0.1872 -0.2258
  495TIP3    H222977   4.713   5.133   4.684  2.0337 -0.1914 -0.4951
  496TIP3   OH222978   3.654   6.201  11.890 -0.0455  0.2185  0.4200
  496TIP3    H122979   3.699   6.118  11.871 -0.0962  0.6601 -1.7131
  496TIP3    H222980   3.618   6.229  11.806 -1.1698  1.7498  1.3852
  497TIP3   OH222981   4.479   4.077   1.662 -0.0911 -0.5073  0.2250
  497TIP3    H122982   4.531   4.131   1.602  0.9667  0.5530  2.0729
  497TIP3    H222983   4.391   4.113   1.655  0.8524  2.4313  2.4558
  498TIP3   OH222984   1.991   3.935  15.854 -0.0638  0.2366  0.0924
  498TIP3    H122985   2.077   3.893  15.861 -0.3247 -0.5631 -1.2202
  498TIP3    H222986   1.983   3.957  15.761 -1.5642 -0.3267  0.0854
  499TIP3   OH222987   5.450   6.750   4.567 -0.3987  0.2247  0.7102
  499TIP3    H122988   5.539   6.779   4.547 -0.4908 -0.0447 -0.1136
  499TIP3    H222989   5.394   6.812   4.521 -0.6136 -0.5336 -0.0646
  500TIP3   OH222990   3.455   1.664  12.697  0.4884 -0.9306 -0.2647
  500TIP3    H122991   3.506   1.735  12.734 -2.0267  0.9237 -0.2804
  500TIP3    H222992   3.515   1.622  12.634  2.4865  0.1750  0.8564
  501TIP3   OH222993   2.440   5.560  14.103 -0.0817 -0.3493 -0.1961
  501TIP3    H122994   2.453   5.512  14.021  1.3470  0.4631 -0.4510
  501TIP3    H222995   2.345   5.572  14.109 -0.3183 -1.7289 -0.9716
  502TIP3   OH222996   2.416   5.109   1.224  0.1323 -0.3952  0.0175
  502TIP3    H122997   2.493   5.102   1.168 -0.4651  1.7391 -1.1155
  502TIP3    H222998   2.410   5.202   1.245 -0.9411 -0.8483  1.8261
  503TIP3   OH222999   0.294   2.005   6.056 -0.1581  1.4421  0.0778
  503TIP3    H123000   0.233   2.059   6.005 -0.7899 -0.5095 -1.2978
  503TIP3    H223001   0.291   2.043   6.144 -1.9137  2.5588 -0.4248
  504TIP3   OH223002   2.016   0.566   1.849  0.0679  0.3616 -0.7194
  504TIP3    H123003   2.047   0.554   1.760  2.6710 -0.1411  0.2207
  504TIP3    H223004   1.999   0.660   1.856 -0.6929  0.3219 -1.8904
  505TIP3   OH223005   2.890   1.743  16.695  0.5605  0.6685 -0.4283
  505TIP3    H123006   2.962   1.703  16.646  0.9670  0.2125  0.5067
  505TIP3    H223007   2.921   1.830  16.717  0.7428  0.5511 -0.2169
  506TIP3   OH223008   0.820   5.277  15.692 -0.1711  0.7584 -0.1013
  506TIP3    H123009   0.865   5.274  15.608  0.3654  2.5655  0.0821
  506TIP3    H223010   0.733   5.242  15.675  1.0846 -2.2418 -0.5946
  507TIP3   OH223011   1.177   0.668  16.544  0.1707  0.3320  0.0482
  507TIP3    H123012   1.147   0.745  16.592  1.1307  0.1282  1.0038
  507TIP3    H223013   1.234   0.622  16.606  0.2772 -0.7044 -0.7973
  508TIP3   OH223014   5.904   4.694  10.489 -0.5987  0.0878 -0.2165
  508TIP3    H123015   5.846   4.622  10.514  0.4409 -0.7237 -0.0811
  508TIP3    H223016   5.985   4.676  10.537 -1.0663  2.6002  1.6549
  509TIP3   OH223017   0.894   6.013   5.268  0.1757  0.1390 -0.4167
  509TIP3    H123018   0.804   6.035   5.292 -0.1064 -1.6267  0.2606
  509TIP3    H223019   0.947   6.082   5.306 -0.7910  0.4821  0.3289
  510TIP3   OH223020   2.524   2.176   5.222 -0.4438  0.4275 -0.0511
  510TIP3    H123021   2.552   2.127   5.145  0.6391  1.5010 -0.3648
  510TIP3    H223022   2.464   2.243   5.188 -0.1253  0.7705  0.0538
  511TIP3   OH223023   5.601   0.191  16.450  0.0339  0.1497 -0.5008
  511TIP3    H123024   5.589   0.113  16.396 -1.4129  0.1652 -0.2138
  511TIP3    H223025   5.696   0.200  16.459  0.2364 -0.6953 -1.8049
  512TIP3   OH223026   1.348   4.476   1.573  0.3751 -0.1724 -0.0782
  512TIP3    H123027   1.402   4.551   1.599 -0.5665  0.2840  0.6018
  512TIP3    H223028   1.281   4.514   1.516 -0.5948 -0.3505  0.9186
  513TIP3   OH223029   3.762   5.932   1.927  0.3861  0.0804 -0.2081
  513TIP3    H123030   3.677   5.923   1.884 -0.0918  1.0719  0.5211
  513TIP3    H223031   3.768   6.024   1.950  1.3336 -0.1352  0.4411
  514TIP3   OH223032   1.423   2.813   2.745  0.4606 -0.0981 -0.1663
  514TIP3    H123033   1.488   2.757   2.788 -0.2956 -1.8731 -1.2840
  514TIP3    H223034   1.469   2.848   2.669  0.3527 -0.7810 -0.5553
  515TIP3   OH223035   0.237   6.259  16.895 -0.1656 -0.4948 -0.0369
  515TIP3    H123036   0.156   6.209  16.883 -0.5998  0.2577 -0.2604
  515TIP3    H223037   0.263   6.285  16.807  0.4497 -0.9274  0.0118
  516TIP3   OH223038   6.247   3.074   2.750 -0.0830 -0.4281 -0.2247
  516TIP3    H123039   6.297   3.052   2.672 -0.4732 -2.3766  0.0487
  516TIP3    H223040   6.156   3.051   2.727 -0.2403 -0.7535  0.6925
  517TIP3   OH223041   0.306   3.899  13.027 -0.3515 -0.4335 -0.0634
  517TIP3    H123042   0.328   3.885  12.935  1.5009  0.2961  0.2435
  517TIP3    H223043   0.350   3.828  13.073  0.9095  0.6890  0.5042
  518TIP3   OH223044   5.051   2.886  13.836  0.1283  0.4403  0.6470
  518TIP3    H123045   5.041   2.814  13.773 -0.0378  1.6909 -0.7750
  518TIP3    H223046   4.985   2.868  13.904 -0.6996 -0.1360 -0.2925
  519TIP3   OH223047   0.844   0.472  11.568  0.5921  0.4194  0.5119
  519TIP3    H123048   0.782   0.523  11.619 -1.2886  0.0298 -1.2940
  519TIP3    H223049   0.883   0.411  11.630 -0.3563  1.1165  1.7972
  520TIP3   OH223050   6.104   5.102  12.887  0.0092  0.8296  0.2338
  520TIP3    H123051   6.150   5.184  12.872 -0.5962  1.5107  2.0260
  520TIP3    H223052   6.148   5.062  12.962 -1.4780  0.8813  1.1598
  521TIP3   OH223053   3.069   4.813   2.071 -0.1738  0.4133  0.0114
  521TIP3    H123054   3.105   4.850   1.990  2.2644 -2.7643 -0.4959
  521TIP3    H223055   3.080   4.882   2.136  3.0909  1.0666 -1.1257
  522TIP3   OH223056   5.949   5.329   6.432 -0.2233  0.0960  0.6195
  522TIP3    H123057   5.880   5.370   6.484 -1.1687  0.9729 -1.2639
  522TIP3    H223058   5.916   5.242   6.413 -0.0103 -0.1189  1.2327
  523TIP3   OH223059   1.277   0.136   1.302 -0.3972  0.1393  0.5621
  523TIP3    H123060   1.288   0.085   1.383 -1.5211  0.0553  0.6624
  523TIP3    H223061   1.184   0.157   1.299 -0.5770 -0.8357 -1.3052
  524TIP3   OH223062   5.342   5.254  11.610  0.1919 -0.3677  0.1660
  524TIP3    H123063   5.270   5.248  11.547  0.4184  0.5423 -0.2012
  524TIP3    H223064   5.398   5.179  11.590  0.8481  0.5171 -1.4982
  525TIP3   OH223065   4.467   2.115   4.106  0.1024  0.0952  0.3742
  525TIP3    H123066   4.513   2.044   4.061  1.6082  0.9395  0.5557
  525TIP3    H223067   4.530   2.187   4.109 -0.6207  0.6922  2.1893
  526TIP3   OH223068   0.789   0.985  12.913 -0.2771 -0.2295 -0.2522
  526TIP3    H123069   0.698   0.965  12.935  0.0653 -0.2834  1.1634
  526TIP3    H223070   0.783   1.066  12.862 -1.1300 -0.2459 -0.1915
  527TIP3   OH223071   0.347   6.296   2.203 -0.4183 -0.1834  0.4071
  527TIP3    H123072   0.330   6.344   2.122 -0.6030 -2.2984 -0.8427
  527TIP3    H223073   0.266   6.247   2.220  1.0507 -3.0480 -0.4814
  528TIP3   OH223074   2.024   1.709   6.311 -1.0966 -0.3193 -0.0323
  528TIP3    H123075   2.082   1.676   6.242 -1.0094  0.3071 -0.2542
  528TIP3    H223076   1.972   1.632   6.335 -1.0725 -0.5694 -0.7358
  529TIP3   OH223077   5.564   1.621  14.781 -0.2760  0.2758  0.1196
  529TIP3    H123078   5.483   1.607  14.732  0.8563 -0.6489 -1.5083
  529TIP3    H223079   5.633   1.586  14.725  1.2203  0.6613  1.6774
  530TIP3   OH223080   0.747   3.714   0.395  0.0838 -0.1899 -0.0181
  530TIP3    H123081   0.686   3.783   0.370  0.0642 -0.3832 -0.5176
  530TIP3    H223082   0.833   3.756   0.395 -0.0574  0.1144  0.8132
  531TIP3   OH223083   1.441   6.133  15.661  0.1341  0.1430  0.0247
  531TIP3    H123084   1.368   6.105  15.715 -0.4299  0.7872 -0.3978
  531TIP3    H223085   1.410   6.124  15.571 -0.0142  1.9533 -0.1327
  532TIP3   OH223086   2.809   4.804   4.983  0.9466  0.0821 -0.4697
  532TIP3    H123087   2.778   4.880   4.934 -0.6726 -0.9258 -1.0405
  532TIP3    H223088   2.831   4.839   5.070  0.2449  1.1925 -0.7274
  533TIP3   OH223089   2.702   4.018   0.126 -0.1246 -0.1558 -0.0622
  533TIP3    H123090   2.739   4.099   0.162 -1.0678  0.3946 -0.3181
  533TIP3    H223091   2.703   4.032   0.031 -0.8837 -0.1827 -0.0747
  534TIP3   OH223092   3.244   4.384   1.151  0.8077 -0.5608  0.1264
  534TIP3    H123093   3.194   4.317   1.198  0.9916  0.1583  1.3796
  534TIP3    H223094   3.181   4.454   1.135  1.3876  0.3584  1.7354
  535TIP3   OH223095   1.502   1.437  11.958  0.1867 -0.1298 -0.1253
  535TIP3    H123096   1.561   1.407  12.028  1.3714 -1.4663 -1.6638
  535TIP3    H223097   1.561   1.455  11.884 -1.0642  1.1780 -0.8233
  536TIP3   OH223098   2.803   0.402  11.573  0.5334  0.8734 -0.2923
  536TIP3    H123099   2.758   0.320  11.550  0.5513  0.1956  1.9841
  536TIP3    H223100   2.734   0.462  11.597  0.7264  0.1967  2.0719
  537TIP3   OH223101   5.316   5.684  15.774  0.1258  0.0316  0.1401
  537TIP3    H123102   5.310   5.618  15.706  0.7990 -0.2130  0.3194
  537TIP3    H223103   5.409   5.706  15.779 -0.0140  0.5614  0.4902
  538TIP3   OH223104   2.862   2.283   2.302  0.2273 -0.0319  0.1361
  538TIP3    H123105   2.880   2.270   2.209  1.1528 -1.8842  0.5512
  538TIP3    H223106   2.946   2.310   2.339  1.5110 -5.2537  1.4553
  539TIP3   OH223107   3.440   3.004  14.648 -0.1661  0.0442 -0.2635
  539TIP3    H123108   3.479   2.922  14.615  0.4927  0.3806 -0.3390
  539TIP3    H223109   3.515   3.055  14.680 -0.6405  0.3634  0.3501
  540TIP3   OH223110   3.491   6.008   1.351 -0.1304 -0.5189  0.0463
  540TIP3    H123111   3.416   6.005   1.411 -0.5324 -1.0220 -0.4802
  540TIP3    H223112   3.479   5.932   1.295  0.6352 -0.4457 -0.2122
  541TIP3   OH223113   5.873   0.933  12.506  0.5715  0.0467  0.5395
  541TIP3    H123114   5.925   1.013  12.506  0.3581  0.1866  1.8300
  541TIP3    H223115   5.923   0.872  12.451  2.6084 -0.1499  2.5544
  542TIP3   OH223116   3.646   6.796   4.761 -0.2581  0.1106 -0.2197
  542TIP3    H123117   3.700   6.734   4.712  0.9036 -1.5555  2.9775
  542TIP3    H223118   3.694   6.879   4.756  0.0178 -0.1272 -1.5724
  543TIP3   OH223119   5.863   4.920   4.584 -0.1648  0.0175  0.5268
  543TIP3    H123120   5.838   4.839   4.540 -1.0914  0.2759  0.5580
  543TIP3    H223121   5.953   4.906   4.613 -0.8174 -1.5606  1.8360
  544TIP3   OH223122   3.604   6.559  11.929  0.1400 -0.5010  0.2838
  544TIP3    H123123   3.689   6.515  11.928  0.2798 -0.2227 -0.7386
  544TIP3    H223124   3.625   6.651  11.941  0.0805 -0.2582 -1.3101
  545TIP3   OH223125   1.347   0.069   2.400 -0.4640 -0.1100  0.3083
  545TIP3    H123126   1.361   0.128   2.326 -0.5591 -1.9332 -1.1911
  545TIP3    H223127   1.428   0.017   2.405 -0.4956 -0.0685  1.4220
  546TIP3   OH223128   1.717   0.542   2.368  0.0433  0.2687 -0.2126
  546TIP3    H123129   1.733   0.610   2.302 -0.6776  0.0756 -0.5827
  546TIP3    H223130   1.675   0.471   2.320 -2.7001  1.0946  0.9116
  547TIP3   OH223131   3.334   0.396  15.258 -0.0017 -0.4450 -0.1930
  547TIP3    H123132   3.427   0.380  15.242  0.1596 -2.4449  2.3489
  547TIP3    H223133   3.330   0.418  15.351 -2.0488 -0.0333 -0.3659
  548TIP3   OH223134   2.737   3.715   2.337 -0.4965 -0.1551  0.1469
  548TIP3    H123135   2.760   3.807   2.349  0.5919 -0.0987 -2.0521
  548TIP3    H223136   2.741   3.678   2.425  1.1181  1.4476  0.7968
  549TIP3   OH223137   0.816   5.444  16.757  0.0538 -0.0635  0.2471
  549TIP3    H123138   0.800   5.495  16.836 -2.0569 -2.0392  1.1434
  549TIP3    H223139   0.815   5.353  16.786 -1.5768 -0.8837 -2.1620
  550TIP3   OH223140   5.591   3.761   5.085  0.5408  0.3505 -0.5084
  550TIP3    H123141   5.562   3.755   5.176  2.4781 -1.1920  0.0363
  550TIP3    H223142   5.628   3.850   5.078  1.8236 -0.0686  0.6692
  551TIP3   OH223143   6.693   6.135   6.608 -0.2099 -0.2094 -0.8499
  551TIP3    H123144   6.681   6.120   6.702  1.2980 -2.7434 -0.9870
  551TIP3    H223145   6.737   6.220   6.603 -0.8642  0.2460  0.6990
  552TIP3   OH223146   1.576   6.669  10.816 -0.4158 -0.3939  0.3243
  552TIP3    H123147   1.558   6.699  10.727  1.2328  2.1913  0.8235
  552TIP3    H223148   1.668   6.643  10.815  0.0117  1.0328  1.6381
  553TIP3   OH223149   0.004   0.250  16.268  0.2866  0.4103 -0.5199
  553TIP3    H123150   0.057   0.328  16.250 -0.3347  1.3280  1.5274
  553TIP3    H223151  -0.027   0.261  16.358  1.8253 -3.1892  0.5452
  554TIP3   OH223152   5.482   5.505  14.742 -0.3186 -0.2683 -0.1565
  554TIP3    H123153   5.546   5.530  14.808  0.4225 -0.1565 -0.9056
  554TIP3    H223154   5.533   5.499  14.661 -0.2494 -5.0369  0.1118
  555TIP3   OH223155   2.013   4.630   3.675 -0.4779  0.2906  0.6101
  555TIP3    H123156   2.107   4.634   3.656 -0.9412  0.1505 -1.9750
  555TIP3    H223157   1.988   4.541   3.652 -1.3696  0.5478  0.5574
  556TIP3   OH223158   5.666   1.736   1.767  0.0863 -0.7053  0.1213
  556TIP3    H123159   5.701   1.728   1.678  2.3717 -0.4128  0.9507
  556TIP3    H223160   5.589   1.793   1.758  0.1696 -0.8574 -1.6912
  557TIP3   OH223161   3.690   2.981   0.131 -0.2197  0.2529  0.1537
  557TIP3    H123162   3.757   3.024   0.184 -1.2323  1.1150  0.7326
  557TIP3    H223163   3.667   2.903   0.182 -1.9636  1.6304  1.5514
  558TIP3   OH223164   3.937   2.386  12.450 -0.1096  0.1472 -0.0094
  558TIP3    H123165   4.004   2.451  12.469  0.9531 -1.3587  1.5302
  558TIP3    H223166   3.961   2.352  12.363 -0.0291  1.0149 -0.3273
  559TIP3   OH223167   4.503   2.384   3.408 -0.1771  0.2347  0.5761
  559TIP3    H123168   4.409   2.363   3.414  0.1497 -1.3516  0.2379
  559TIP3    H223169   4.542   2.338   3.482  0.8380 -2.0032 -1.3124
  560TIP3   OH223170   5.793   3.405  14.100 -0.3739  0.0950  0.0754
  560TIP3    H123171   5.823   3.412  14.009 -1.5341  0.9444 -0.2509
  560TIP3    H223172   5.873   3.391  14.150  0.2750 -0.4349 -1.0765
  561TIP3   OH223173   5.860   5.206   5.499 -0.2623 -0.1151  0.2063
  561TIP3    H123174   5.953   5.208   5.479 -0.3704  0.0516 -0.2945
  561TIP3    H223175   5.826   5.130   5.452 -0.4750  0.1439 -0.0686
  562TIP3   OH223176   0.931   5.444   6.087 -0.2094 -0.0860  0.3082
  562TIP3    H123177   0.979   5.376   6.134 -0.9248 -1.2233 -0.5853
  562TIP3    H223178   0.968   5.442   5.998 -0.4940  0.4395  0.1744
  563TIP3   OH223179   0.269   4.377   4.363 -0.4306 -0.4321 -0.2901
  563TIP3    H123180   0.273   4.395   4.457  2.2232  0.2722 -0.4871
  563TIP3    H223181   0.184   4.411   4.335 -0.5224  0.9077  1.5520
  564TIP3   OH223182   6.514   1.528  14.735 -0.1710  0.4063  0.2656
  564TIP3    H123183   6.605   1.514  14.709  0.0712  1.8681  0.2861
  564TIP3    H223184   6.512   1.505  14.828 -0.0019 -0.3773  0.0778
  565TIP3   OH223185   6.740   0.147  13.235  0.6249 -0.1778 -0.6016
  565TIP3    H123186   6.735   0.149  13.330  0.9002 -0.7692 -0.5756
  565TIP3    H223187   6.649   0.142  13.205  0.6106 -1.8485 -0.3300
  566TIP3   OH223188   2.844   2.968   1.078  0.1667 -0.3276  0.5434
  566TIP3    H123189   2.774   2.923   1.029  0.7509 -0.7592  0.0946
  566TIP3    H223190   2.798   3.033   1.131 -0.5606 -0.4591  0.0869
  567TIP3   OH223191   4.052   1.952  14.358  0.2785  0.1111  0.5372
  567TIP3    H123192   4.094   2.006  14.425  0.4505 -0.0116  0.5260
  567TIP3    H223193   4.053   2.005  14.279 -1.7000  1.0532  1.1078
  568TIP3   OH223194   5.413   0.440  15.298 -0.3868 -0.2589 -0.0808
  568TIP3    H123195   5.467   0.406  15.370 -0.1155  0.6934  0.1683
  568TIP3    H223196   5.399   0.364  15.241  0.0704 -0.8311  0.5620
  569TIP3   OH223197   4.824   5.802   0.382  0.0020  0.0480 -0.4593
  569TIP3    H123198   4.881   5.776   0.454 -0.5771  0.2703  0.0842
  569TIP3    H223199   4.839   5.896   0.372 -0.3912  0.1428 -0.1943
  570TIP3   OH223200   0.872   2.541   2.167  0.4952 -0.2753  0.5642
  570TIP3    H123201   0.789   2.578   2.137 -0.3579 -0.5862  2.5526
  570TIP3    H223202   0.861   2.447   2.161  1.8005 -0.3237 -2.0693
  571TIP3   OH223203   0.797   4.984  12.696  0.0615 -0.1342 -0.9380
  571TIP3    H123204   0.857   4.910  12.697 -0.0761 -0.2413 -0.8111
  571TIP3    H223205   0.829   5.043  12.764 -0.3796 -0.5029 -0.4154
  572TIP3   OH223206   3.961   3.397   5.078  0.3481  0.7113 -0.0272
  572TIP3    H123207   3.913   3.474   5.047  1.3564  2.4756  2.5875
  572TIP3    H223208   4.035   3.389   5.019 -0.3869  1.0722 -1.0049
  573TIP3   OH223209   3.796   2.055   0.039 -0.4368 -0.0745 -0.0873
  573TIP3    H123210   3.739   1.984   0.010 -0.2636 -0.9262  1.6185
  573TIP3    H223211   3.871   2.011   0.079  0.9175  1.0396 -1.3193
  574TIP3   OH223212   3.647   2.275  17.252  0.0955 -0.4397 -0.3146
  574TIP3    H123213   3.680   2.185  17.258  0.1440 -0.5400 -1.7797
  574TIP3    H223214   3.644   2.292  17.158  0.9520  1.4197 -0.0209
  575TIP3   OH223215   2.120   4.793   2.705  0.3835  0.1432 -0.3437
  575TIP3    H123216   2.142   4.818   2.795  0.7378  1.1056 -0.6940
  575TIP3    H223217   2.097   4.700   2.711  0.4595  0.1886  0.7300
  576TIP3   OH223218   4.107   6.486  13.239 -0.3637 -0.2032  0.6565
  576TIP3    H123219   4.185   6.477  13.293  0.4008  0.3421 -0.3389
  576TIP3    H223220   4.128   6.440  13.158 -0.8209  0.5063  0.1208
  577TIP3   OH223221   3.629   5.687  17.047  0.0614 -0.1710  0.2455
  577TIP3    H123222   3.715   5.715  17.079  0.1045  0.1720 -0.1626
  577TIP3    H223223   3.644   5.598  17.014  0.4270  0.1599 -0.4893
  578TIP3   OH223224   2.997   5.932   2.524  0.3690 -0.1676 -0.3303
  578TIP3    H123225   2.952   5.939   2.608  2.6512 -2.0819  1.1211
  578TIP3    H223226   2.932   5.958   2.459 -1.8494  0.0468  1.9187
  579TIP3   OH223227   3.831   2.370   6.510 -0.1348 -0.1658  0.0692
  579TIP3    H123228   3.830   2.371   6.414  0.7593  0.0970  0.0548
  579TIP3    H223229   3.900   2.307   6.532  0.1365  0.2883  0.5272
  580TIP3   OH223230   2.417   1.577  15.327 -0.4034 -0.2389 -1.2608
  580TIP3    H123231   2.460   1.588  15.242  1.8696  0.4239 -0.0775
  580TIP3    H223232   2.477   1.522  15.377 -1.5032 -0.2578  0.0536
  581TIP3   OH223233   6.002   4.553  12.018 -0.3902 -0.2268  0.7812
  581TIP3    H123234   5.985   4.545  11.925 -0.0491 -0.3603  0.7275
  581TIP3    H223235   5.981   4.644  12.039  0.6226  0.1200  0.3380
  582TIP3   OH223236   3.013   4.375   1.855  0.2094  0.2768  0.2294
  582TIP3    H123237   2.960   4.373   1.775  3.0160  0.1472 -1.7433
  582TIP3    H223238   3.057   4.459   1.851  0.4684  0.2020  1.5817
  583TIP3   OH223239   3.525   0.592   0.666 -0.0683  0.4327  0.1543
  583TIP3    H123240   3.498   0.676   0.703 -0.5486  0.3860 -0.0785
  583TIP3    H223241   3.617   0.604   0.643  0.1612  0.5332  1.1346
  584TIP3   OH223242   6.687   6.367  11.807  0.0728  0.1997  0.1037
  584TIP3    H123243   6.591   6.368  11.812  0.1459  0.4974  1.4357
  584TIP3    H223244   6.706   6.294  11.747 -0.9836  0.2308 -0.2921
  585TIP3   OH223245   2.922   2.019   0.739 -0.1836 -0.5267  0.0724
  585TIP3    H123246   2.927   2.076   0.663 -1.3782 -0.1947  0.2347
  585TIP3    H223247   2.886   2.074   0.809 -0.0418 -1.0996  0.6058
  586TIP3   OH223248   2.868   5.720   4.648  0.1228  0.0523  0.1753
  586TIP3    H123249   2.812   5.689   4.578 -0.5173  0.3038  0.5694
  586TIP3    H223250   2.859   5.655   4.718  0.9921 -0.3575 -0.0817
  587TIP3   OH223251   5.655   5.688   2.321  0.0472 -0.7402  0.5933
  587TIP3    H123252   5.635   5.602   2.358  0.3066 -0.2600  1.8861
  587TIP3    H223253   5.750   5.689   2.310  0.0210 -0.7034  0.3750
  588TIP3   OH223254   2.895   5.134  15.609  0.1668 -0.0005 -0.8013
  588TIP3    H123255   2.822   5.109  15.665 -0.3854  3.8758  0.3282
  588TIP3    H223256   2.867   5.110  15.520 -1.2452 -1.1541 -0.0531
  589TIP3   OH223257   3.618   1.468  11.539 -0.1170  0.1475  0.1924
  589TIP3    H123258   3.704   1.508  11.539 -0.4269  0.8260 -0.6688
  589TIP3    H223259   3.584   1.482  11.450  0.1294 -2.8157 -0.4372
  590TIP3   OH223260   6.002   2.962  15.641  0.6858  0.0902  0.0846
  590TIP3    H123261   5.987   2.948  15.734  0.1139  0.6090  0.0777
  590TIP3    H223262   5.914   2.978  15.605  0.9706  0.5190 -0.4318
  591TIP3   OH223263   5.769   5.553  12.651  0.1666  0.3133 -0.7561
  591TIP3    H123264   5.690   5.503  12.674  0.4062 -0.3670 -1.3793
  591TIP3    H223265   5.829   5.537  12.723  0.2929 -0.4244 -1.0183
  592TIP3   OH223266   4.221   0.530   6.449  0.0624 -0.4764 -0.1922
  592TIP3    H123267   4.147   0.558   6.396 -0.5354 -0.8325  0.4482
  592TIP3    H223268   4.294   0.584   6.420 -1.3566  2.7093  1.9406
  593TIP3   OH223269   2.971   5.902  11.729 -0.0460  0.1985 -0.2668
  593TIP3    H123270   3.018   5.876  11.650 -0.3299  0.4372 -0.5176
  593TIP3    H223271   2.958   5.820  11.777 -0.4276 -0.0415 -0.7708
  594TIP3   OH223272   1.799   6.333  15.190  0.2293 -0.1904 -0.2141
  594TIP3    H123273   1.796   6.278  15.111 -1.9733 -2.9224  1.6622
  594TIP3    H223274   1.811   6.271  15.262 -2.0918  1.7942  1.9805
  595TIP3   OH223275   4.536   3.509   6.037  0.4305  0.0312  0.6140
  595TIP3    H123276   4.447   3.542   6.054  0.7493  0.5753  1.2444
  595TIP3    H223277   4.593   3.583   6.057  1.0225 -0.2916  0.1218
  596TIP3   OH223278   5.910   3.293   5.544  0.6443  0.2427 -0.0830
  596TIP3    H123279   5.994   3.314   5.504  0.5845  0.2756 -0.1911
  596TIP3    H223280   5.928   3.216   5.599  1.1433  1.2923  1.2610
  597TIP3   OH223281   1.444   1.163  15.654  0.2305  0.1191 -0.3904
  597TIP3    H123282   1.351   1.177  15.637 -0.1195 -0.7022  0.7714
  597TIP3    H223283   1.447   1.079  15.700  1.7980 -1.2282 -2.8624
  598TIP3   OH223284   6.768   1.849   0.764  0.3591 -0.0961  0.2220
  598TIP3    H123285   6.727   1.891   0.840 -0.7955 -1.5385  0.4140
  598TIP3    H223286   6.695   1.816   0.713  1.1470  0.5473 -1.3577
  599TIP3   OH223287   0.008   3.247  12.966  0.0500 -0.1884  0.2584
  599TIP3    H123288  -0.022   3.337  12.975  0.5328 -0.0613  0.6601
  599TIP3    H223289  -0.070   3.197  12.942 -0.2081  0.3430 -0.0063
  600TIP3   OH223290   6.383   0.437  17.101  0.2053  0.2725 -0.7744
  600TIP3    H123291   6.448   0.394  17.156  0.0073 -0.2934 -0.9715
  600TIP3    H223292   6.310   0.374  17.097  0.1997  0.3304 -1.6366
  601TIP3   OH223293   5.459   1.413  15.331  0.0761 -0.0408 -0.0453
  601TIP3    H123294   5.478   1.453  15.246  1.9499  0.1036  0.4116
  601TIP3    H223295   5.543   1.414  15.377 -0.4832 -1.9066  1.0698
  602TIP3   OH223296   6.223   5.355   2.315  0.5232  0.3584 -0.6687
  602TIP3    H123297   6.141   5.310   2.295  1.2889 -1.9202  1.1321
  602TIP3    H223298   6.197   5.447   2.326 -1.6454 -0.1893 -0.9216
  603TIP3   OH223299   4.975   6.220  14.169  0.0315  0.3316  0.0457
  603TIP3    H123300   4.988   6.144  14.226 -0.1585  0.7363  0.6360
  603TIP3    H223301   5.026   6.290  14.210 -0.6912  0.8214  0.1247
  604TIP3   OH223302   4.183   1.270  13.463  0.3900 -0.4079 -0.2213
  604TIP3    H123303   4.253   1.291  13.401 -0.5423 -0.6333 -1.3768
  604TIP3    H223304   4.174   1.175  13.458 -1.5570 -0.1686 -1.8369
  605TIP3   OH223305   6.500   1.534  15.847  0.2925  0.8546  0.9116
  605TIP3    H123306   6.522   1.604  15.786  0.1384  0.0875 -0.0421
  605TIP3    H223307   6.558   1.548  15.922  2.5415  0.1517 -0.6302
  606TIP3   OH223308   2.206   5.082  12.835  0.4606  0.4464  0.3648
  606TIP3    H123309   2.199   5.097  12.929 -0.8775 -0.0221  0.3554
  606TIP3    H223310   2.274   5.142  12.805  0.7722  0.7139  1.6038
  607TIP3   OH223311   2.801   3.315   2.562 -0.4998  0.5777 -0.0737
  607TIP3    H123312   2.726   3.369   2.587 -0.5312  1.0266 -1.1289
  607TIP3    H223313   2.812   3.255   2.636 -1.1698  1.2701  0.6019
  608TIP3   OH223314   1.107   3.595  13.043  0.1278 -0.2127  0.4294
  608TIP3    H123315   1.151   3.610  13.126  0.7367 -0.5300  0.1632
  608TIP3    H223316   1.138   3.664  12.985 -0.7883  0.3963  0.6510
  609TIP3   OH223317   0.673   5.436   5.178  0.6142  0.0192 -0.1684
  609TIP3    H123318   0.706   5.521   5.148 -1.1240  0.5218 -0.7491
  609TIP3    H223319   0.639   5.394   5.099 -1.8417  0.3443  0.6625
  610TIP3   OH223320   6.812   2.658   1.158  0.7206  0.1658 -0.2256
  610TIP3    H123321   6.803   2.642   1.251  0.6742 -1.1205 -0.4436
  610TIP3    H223322   6.891   2.712   1.150  0.8606  0.0730  0.5251
  611TIP3   OH223323   6.590   4.703   2.322 -0.0047 -0.2972 -0.6541
  611TIP3    H123324   6.632   4.654   2.392  0.6977  0.4561 -0.5440
  611TIP3    H223325   6.625   4.664   2.241 -0.1379 -0.5662 -0.5860
  612TIP3   OH223326   4.269   1.137   3.252 -0.1529 -0.3289  0.2915
  612TIP3    H123327   4.293   1.170   3.165  0.4772 -0.3009  0.4780
  612TIP3    H223328   4.285   1.211   3.311  1.0225 -0.8806  0.6740
  613TIP3   OH223329   4.367   6.665  13.071  0.2279 -0.2827 -0.1947
  613TIP3    H123330   4.390   6.586  13.120 -0.7452 -1.0181 -0.9154
  613TIP3    H223331   4.415   6.657  12.989  0.0989 -0.1483 -0.2825
  614TIP3   OH223332   2.690   5.863   4.942 -0.6400  0.1302 -0.0805
  614TIP3    H123333   2.718   5.803   5.011  1.3897  0.3795 -0.6632
  614TIP3    H223334   2.698   5.813   4.861 -0.1284  0.7839 -0.4428
  615TIP3   OH223335   6.477   6.613   2.667 -0.1730 -0.4937 -0.5013
  615TIP3    H123336   6.522   6.624   2.751 -0.8490 -1.8196  0.0616
  615TIP3    H223337   6.399   6.668   2.675  0.2234  0.0871 -0.6179
  616TIP3   OH223338   5.527   2.567   0.948  0.0006 -0.3498  0.2402
  616TIP3    H123339   5.464   2.497   0.963 -0.6283 -0.3201 -2.1846
  616TIP3    H223340   5.602   2.543   1.003 -0.7983 -2.1068  0.5974
  617TIP3   OH223341   3.914   0.333   1.491  0.2568  0.3593 -0.3492
  617TIP3    H123342   3.891   0.256   1.439  1.2645  0.1399 -0.4697
  617TIP3    H223343   3.976   0.301   1.556  0.1712  0.9403  0.0300
  618TIP3   OH223344   2.599   4.988  13.526 -0.0052 -0.3486 -0.2029
  618TIP3    H123345   2.518   4.967  13.478 -0.1071  0.4881 -0.3916
  618TIP3    H223346   2.645   4.904  13.532 -1.0336 -0.8965  0.1691
  619TIP3   OH223347   2.112   1.584   2.398 -0.1897  0.2421  0.3950
  619TIP3    H123348   2.175   1.624   2.338 -0.4997  0.2925  0.1003
  619TIP3    H223349   2.153   1.592   2.484  0.4685 -0.2421  0.1364
  620TIP3   OH223350   6.706   3.114  16.839 -0.5651 -0.4664  0.3948
  620TIP3    H123351   6.669   3.193  16.879 -0.4310 -1.0029  1.5982
  620TIP3    H223352   6.652   3.043  16.873  0.0171 -1.0031  0.1972
  621TIP3   OH223353   2.325   2.677  13.278 -0.0737  0.3160 -0.1890
  621TIP3    H123354   2.270   2.652  13.353  0.9691  0.6716  0.7129
  621TIP3    H223355   2.390   2.736  13.315 -0.3489  1.5541 -1.6485
  622TIP3   OH223356   3.295   1.609   5.661  0.3618 -0.0813  0.6089
  622TIP3    H123357   3.366   1.578   5.718  1.5618 -1.0668 -1.3496
  622TIP3    H223358   3.323   1.696   5.633  0.1349  0.0884  0.9030
  623TIP3   OH223359   2.749   2.352  17.037  0.2945 -0.0506 -0.1175
  623TIP3    H123360   2.745   2.417  17.108 -0.5931  0.9947 -1.1121
  623TIP3    H223361   2.843   2.335  17.025  0.5641  1.5066 -0.2704
  624TIP3   OH223362   2.755   3.819   3.372 -0.3355  0.6646 -0.0587
  624TIP3    H123363   2.803   3.871   3.436  1.0720 -0.2425 -0.3448
  624TIP3    H223364   2.678   3.788   3.419 -0.2464  1.5135  0.6496
  625TIP3   OH223365   0.848   2.337   3.236 -0.2358  0.1051 -0.0657
  625TIP3    H123366   0.882   2.426   3.243  0.2204  0.0503 -1.5013
  625TIP3    H223367   0.799   2.337   3.154 -1.2177 -0.6411  0.5200
  626TIP3   OH223368   0.601   4.230  12.165  0.7198  0.3991 -0.6474
  626TIP3    H123369   0.628   4.183  12.087 -0.0088  0.2541 -0.8204
  626TIP3    H223370   0.587   4.161  12.231  1.4169  0.5277 -0.3582
  627TIP3   OH223371   2.006   5.461   3.671 -0.0571 -0.1664  0.0665
  627TIP3    H123372   2.044   5.447   3.758  1.6209  1.0643 -0.4474
  627TIP3    H223373   2.031   5.383   3.622  0.3043 -0.1720  0.2526
  628TIP3   OH223374   0.936   2.942   3.673 -0.1112  0.1641 -0.0376
  628TIP3    H123375   1.010   3.001   3.686 -0.5266  0.7358 -0.2818
  628TIP3    H223376   0.923   2.901   3.759 -0.1048  0.7461  0.2423
  629TIP3   OH223377   5.879   5.016   2.666 -0.8077  0.0387 -0.3621
  629TIP3    H123378   5.853   5.015   2.758  1.2751 -0.5980  0.2521
  629TIP3    H223379   5.958   4.962   2.663 -1.2210 -0.4781 -2.6434
  630TIP3   OH223380   4.998   5.689   4.356  0.6055  0.5492 -0.5305
  630TIP3    H123381   5.056   5.623   4.394 -1.0073 -0.5697  0.0429
  630TIP3    H223382   4.948   5.724   4.430  0.5475  1.5099 -1.0114
  631TIP3   OH223383   1.597   2.613   2.609  0.1188  0.2078  0.2379
  631TIP3    H123384   1.652   2.593   2.684 -0.2330 -1.6476  0.0171
  631TIP3    H223385   1.534   2.542   2.605 -1.4230  1.5614 -0.3685
  632TIP3   OH223386   5.296   0.300   2.817  0.0084  0.1937  0.4127
  632TIP3    H123387   5.229   0.293   2.885  0.2372  1.2528  0.7398
  632TIP3    H223388   5.274   0.229   2.756 -2.3622  1.4932 -0.3107
  633TIP3   OH223389   4.515   5.088   5.205  0.4080  0.1026  0.2005
  633TIP3    H123390   4.573   5.012   5.197  0.3431  0.1534 -0.8297
  633TIP3    H223391   4.572   5.159   5.235  0.5599 -0.2350  0.7196
  634TIP3   OH223392   3.357   3.686  10.512  0.1329  0.1050  0.0235
  634TIP3    H123393   3.438   3.709  10.556 -1.6790  0.5823  3.2364
  634TIP3    H223394   3.366   3.723  10.424  3.5239 -0.2303  0.1889
  635TIP3   OH223395   6.374   6.067   6.513 -0.3835  0.0946 -0.0905
  635TIP3    H123396   6.467   6.064   6.491 -0.5510 -0.9418 -0.6859
  635TIP3    H223397   6.370   6.121   6.592  0.6627  0.5577 -0.3436
  636TIP3   OH223398   4.480   3.838  11.524  0.4925  0.3752 -0.0052
  636TIP3    H123399   4.464   3.794  11.440  1.3205 -1.3596  0.7168
  636TIP3    H223400   4.422   3.793  11.585  2.2502 -0.5894  1.0022
  637TIP3   OH223401   4.710   6.626   2.557  0.5000  0.6927  0.5912
  637TIP3    H123402   4.658   6.666   2.627  0.0627  2.9935 -0.9936
  637TIP3    H223403   4.666   6.543   2.540 -1.3782  1.6051  0.8016
  638TIP3   OH223404   2.227   3.715   4.633 -0.0440 -0.4388 -0.4710
  638TIP3    H123405   2.195   3.654   4.700  1.5446  1.2861  1.9437
  638TIP3    H223406   2.148   3.738   4.583 -1.3171 -1.6299  0.9228
  639TIP3   OH223407   5.013   5.798  11.336 -0.6392 -0.1888 -0.7914
  639TIP3    H123408   5.049   5.825  11.251  3.4158 -1.2533  0.5082
  639TIP3    H223409   5.053   5.714  11.354  2.5428  2.1869  4.4003
  640TIP3   OH223410   2.938   2.641  12.720 -0.2486  0.0950  0.3823
  640TIP3    H123411   3.024   2.649  12.679 -0.6238 -0.9541 -0.6148
  640TIP3    H223412   2.958   2.627  12.813  0.6379  0.4401  0.2528
  641TIP3   OH223413   3.076   6.203   4.616  0.6346  0.2960 -0.6497
  641TIP3    H123414   2.995   6.203   4.668  1.2674 -1.9150  0.3728
  641TIP3    H223415   3.046   6.209   4.525 -0.7348 -1.3095 -0.3252
  642TIP3   OH223416   1.863   0.390  14.555  0.3245 -0.0553 -0.2523
  642TIP3    H123417   1.789   0.426  14.506  0.5007 -1.3437 -1.5167
  642TIP3    H223418   1.937   0.396  14.495  0.6297 -1.3117 -0.0277
  643TIP3   OH223419   5.715   3.129  11.641  0.2813  0.0031  0.2911
  643TIP3    H123420   5.750   3.210  11.605  0.7131  0.6009  2.0418
  643TIP3    H223421   5.754   3.121  11.728 -1.9727 -0.5878  1.3030
  644TIP3   OH223422   3.021   4.707  17.258 -0.1367 -0.0039 -0.3215
  644TIP3    H123423   3.002   4.626  17.305 -0.7096  1.2482  1.6189
  644TIP3    H223424   3.115   4.721  17.271 -0.2234  0.1454  0.1353
  645TIP3   OH223425   3.186   0.620  11.294 -0.0160 -0.2330  0.0756
  645TIP3    H123426   3.168   0.594  11.384  0.5311 -1.0625 -0.0460
  645TIP3    H223427   3.128   0.565  11.241  2.0115 -2.1513 -0.2516
  646TIP3   OH223428   0.859   0.692   2.049 -0.5185 -0.0994  0.2220
  646TIP3    H123429   0.867   0.609   2.002  3.7594 -0.3933  1.2126
  646TIP3    H223430   0.826   0.669   2.136  0.3923 -0.7662  0.3981
  647TIP3   OH223431   1.795   4.267  13.171  0.2193 -0.3832 -0.3422
  647TIP3    H123432   1.872   4.319  13.148  0.4178  0.2455  1.6244
  647TIP3    H223433   1.729   4.292  13.107  1.1557  0.2555 -1.0805
  648TIP3   OH223434   3.810   0.201   1.088 -0.0409 -0.4917  0.2082
  648TIP3    H123435   3.757   0.141   1.142 -0.1272 -0.9369 -0.3705
  648TIP3    H223436   3.837   0.148   1.013  0.6689 -0.0703  0.1666
  649TIP3   OH223437   5.870   6.641  12.226 -0.2946 -0.6022 -0.4329
  649TIP3    H123438   5.775   6.639  12.209 -0.5756 -1.5115  1.1017
  649TIP3    H223439   5.906   6.573  12.171 -0.4292  0.2620 -1.6021
  650TIP3   OH223440   1.249   4.298  13.245 -0.1556 -0.3178  0.9140
  650TIP3    H123441   1.187   4.301  13.318  1.3800  0.4024  2.2554
  650TIP3    H223442   1.333   4.276  13.287  0.2407 -2.6660 -1.0165
  651TIP3   OH223443   5.151   6.575  14.567 -0.1486 -0.1435  0.1550
  651TIP3    H123444   5.079   6.564  14.630 -0.4178 -0.1964 -0.1634
  651TIP3    H223445   5.150   6.669  14.548 -0.4268 -0.2153 -0.1952
  652TIP3   OH223446   2.036   2.624   4.206 -0.1910  0.3055 -0.0651
  652TIP3    H123447   2.075   2.628   4.118  1.5040  2.4238  0.7148
  652TIP3    H223448   2.065   2.541   4.242  2.2841  1.0863 -0.1544
  653TIP3   OH223449   6.788   4.614   5.600 -0.1178  0.3172 -0.1713
  653TIP3    H123450   6.713   4.655   5.558  0.7728  2.0985 -0.0632
  653TIP3    H223451   6.846   4.687   5.623  1.0123 -0.9104  0.9866
  654TIP3   OH223452   0.398   3.989   4.294 -0.2024  0.1473 -0.0438
  654TIP3    H123453   0.340   3.985   4.218 -0.1543 -0.6343 -0.0431
  654TIP3    H223454   0.347   4.033   4.361 -0.2754  0.7698 -0.5085
  655TIP3   OH223455   5.197   1.410   0.478 -0.2393 -0.6738  0.2226
  655TIP3    H123456   5.179   1.379   0.389 -1.3885  0.1659  0.1587
  655TIP3    H223457   5.152   1.494   0.484 -1.3202 -1.3584  2.0448
  656TIP3   OH223458   0.383   1.360   5.993  0.1278  0.3862 -0.4312
  656TIP3    H123459   0.293   1.347   6.022 -0.1618  1.0709 -1.0167
  656TIP3    H223460   0.375   1.412   5.913  1.0025 -0.1616 -0.8777
  657TIP3   OH223461   6.174   0.023  11.720 -0.3212 -0.7122  0.4193
  657TIP3    H123462   6.197   0.054  11.632 -0.7440 -0.2152  0.4769
  657TIP3    H223463   6.078   0.019  11.719 -0.3153 -0.9393  0.7806
  658TIP3   OH223464   6.634   0.798  12.856 -0.1433 -0.2945 -0.1436
  658TIP3    H123465   6.638   0.822  12.764  0.3392 -2.8904 -0.8341
  658TIP3    H223466   6.561   0.736  12.862 -0.5393  0.2862  1.3257
  659TIP3   OH223467   6.074   5.311   1.332  0.0671  0.4965  0.5711
  659TIP3    H123468   6.051   5.333   1.242 -1.9909 -1.1183  0.6443
  659TIP3    H223469   6.080   5.215   1.332  2.0391  0.5840  1.7254
  660TIP3   OH223470   4.723   4.740   1.595 -0.1321  0.2348  0.0745
  660TIP3    H123471   4.801   4.709   1.641 -0.0742 -1.3205 -1.0086
  660TIP3    H223472   4.653   4.731   1.660  0.3332  0.2327  0.5859
  661TIP3   OH223473   2.243   0.109   3.710  0.1347  0.6046  0.1075
  661TIP3    H123474   2.201   0.036   3.665 -0.5461  0.3355  1.1688
  661TIP3    H223475   2.236   0.182   3.648 -1.4411  0.4282  0.0491
  662TIP3   OH223476   1.109   1.140  12.471 -0.1775  0.1267 -0.3585
  662TIP3    H123477   1.065   1.064  12.433 -0.9943  1.3103 -1.8147
  662TIP3    H223478   1.038   1.200  12.495  0.5241  1.0107 -0.4545
  663TIP3   OH223479   4.368   1.332  14.147  0.3401 -0.6484  0.3561
  663TIP3    H123480   4.347   1.257  14.204 -0.4640 -1.7637 -1.3752
  663TIP3    H223481   4.412   1.294  14.072  0.1613  0.6635 -0.4265
  664TIP3   OH223482   5.713   3.793  16.394  0.3908 -0.4285 -0.5115
  664TIP3    H123483   5.758   3.863  16.442  0.5688  0.2398 -1.6325
  664TIP3    H223484   5.632   3.778  16.443  0.4556  0.4128 -0.1414
  665TIP3   OH223485   0.317   5.485  10.522  0.1825  0.0507 -0.3211
  665TIP3    H123486   0.312   5.389  10.524  0.5508  0.0266 -0.5974
  665TIP3    H223487   0.387   5.504  10.460 -0.2448  0.5123 -0.6606
  666TIP3   OH223488   2.366   1.052  12.299 -0.3959  0.4167 -0.3955
  666TIP3    H123489   2.420   0.983  12.337 -3.7298 -1.6957  0.6709
  666TIP3    H223490   2.322   1.011  12.225 -1.1547  1.8577 -0.7615
  667TIP3   OH223491   2.882   3.553  16.269 -0.5097 -0.0846 -0.0610
  667TIP3    H123492   2.838   3.527  16.350 -1.2291  0.4466 -0.2795
  667TIP3    H223493   2.831   3.627  16.237 -1.0701 -1.1698 -1.7400
  668TIP3   OH223494   1.162   0.710  15.882  0.6128 -0.0267  0.3430
  668TIP3    H123495   1.099   0.642  15.859  0.5048  0.2672 -0.2390
  668TIP3    H223496   1.227   0.665  15.936  0.7699 -0.6893 -0.3849
  669TIP3   OH223497   3.826   4.262   1.927  0.0536  0.1045 -0.0157
  669TIP3    H123498   3.867   4.217   1.852  1.1855  0.6313  0.2727
  669TIP3    H223499   3.808   4.191   1.989  0.7739 -0.1039 -0.0369
  670TIP3   OH223500   3.059   1.174  16.254  0.4736 -0.1328 -0.0915
  670TIP3    H123501   3.049   1.161  16.349 -2.3104  0.8878 -0.2227
  670TIP3    H223502   3.095   1.262  16.246  0.2562 -0.0365 -0.0074
  671TIP3   OH223503   0.032   6.738   0.794 -0.1926 -0.0375  0.5354
  671TIP3    H123504   0.063   6.675   0.729  2.9624  1.7857  0.1555
  671TIP3    H223505   0.029   6.689   0.876  0.5064 -1.1199 -0.0823
  672TIP3   OH223506   1.830   0.596  11.485 -0.1682 -0.2527  0.3141
  672TIP3    H123507   1.895   0.627  11.423  0.1661  1.0267  1.2912
  672TIP3    H223508   1.750   0.586  11.433  0.7655 -1.7916 -0.8800
  673TIP3   OH223509   6.049   1.832   0.869  0.3284  0.1930  0.2702
  673TIP3    H123510   6.061   1.826   0.774  0.3177  3.2131  0.0280
  673TIP3    H223511   6.126   1.788   0.905  0.9549  0.0917 -1.1310
  674TIP3   OH223512   4.960   0.749   4.235 -0.5337 -0.0886  0.1869
  674TIP3    H123513   4.909   0.700   4.300  0.2275  0.5816  1.3144
  674TIP3    H223514   5.026   0.687   4.204 -1.3957 -0.6539 -0.5479
  675TIP3   OH223515   6.029   3.184  14.139  0.4128  0.4672 -0.2900
  675TIP3    H123516   6.102   3.241  14.114 -0.0367  0.8427 -0.7683
  675TIP3    H223517   6.066   3.096  14.140  0.8596  0.6507 -0.5849
  676TIP3   OH223518   1.693   5.972  15.038 -0.0473  0.0313  0.0007
  676TIP3    H123519   1.703   5.910  15.110 -1.1225 -0.4958 -0.2770
  676TIP3    H223520   1.602   6.001  15.044 -0.3114 -0.4568 -1.4829
  677TIP3   OH223521   2.318   0.266  11.162  0.0477 -0.0388 -0.4612
  677TIP3    H123522   2.361   0.187  11.129  1.2267  0.2504  0.3522
  677TIP3    H223523   2.324   0.259  11.257 -1.6907  0.0260 -0.3344
  678TIP3   OH223524   1.024   4.493   3.446  0.2762  0.5185 -1.0457
  678TIP3    H123525   1.069   4.572   3.418  2.9235 -0.7741 -0.5703
  678TIP3    H223526   1.032   4.433   3.372 -1.3762  0.5448 -1.2567
  679TIP3   OH223527   3.733   5.825  14.885  0.3285 -0.2378 -0.0291
  679TIP3    H123528   3.653   5.873  14.907  1.2555  0.6880  1.3923
  679TIP3    H223529   3.725   5.742  14.932  0.4775  0.1042  0.6063
  680TIP3   OH223530   3.129   4.363  13.479 -0.1010 -0.0052 -0.1325
  680TIP3    H123531   3.195   4.299  13.454  1.3643  1.2311  0.5115
  680TIP3    H223532   3.085   4.385  13.397  1.5352  0.5460 -0.8814
  681TIP3   OH223533   1.746   4.008  15.390  0.6882  0.0353 -0.2250
  681TIP3    H123534   1.772   3.975  15.303 -3.1989 -0.7270 -1.1965
  681TIP3    H223535   1.706   4.093  15.372 -3.0097 -1.5041  0.3354
  682TIP3   OH223536   5.580   0.762   3.857 -0.0409 -0.7298  0.2799
  682TIP3    H123537   5.644   0.795   3.919  0.6657  0.9163 -1.2784
  682TIP3    H223538   5.596   0.667   3.854  1.9127 -0.4148  0.3757
  683TIP3   OH223539   2.279   1.851   3.516 -0.4810 -0.5706 -0.5832
  683TIP3    H123540   2.308   1.781   3.574  0.8682 -0.1836 -0.7553
  683TIP3    H223541   2.195   1.821   3.480 -1.1619 -0.9527  1.3017
  684TIP3   OH223542   1.423   2.301  12.068  0.0942  0.5042  0.2388
  684TIP3    H123543   1.349   2.352  12.034  1.4570  2.5039  0.1592
  684TIP3    H223544   1.463   2.358  12.134  2.1470 -0.1095 -0.4401
  685TIP3   OH223545   3.355   4.780  12.119 -0.4979 -0.6042  0.9463
  685TIP3    H123546   3.433   4.834  12.126 -0.1514 -0.9290 -0.2629
  685TIP3    H223547   3.285   4.841  12.097 -0.3646 -0.4739  0.8883
  686TIP3   OH223548   2.648   3.553  10.779 -0.1301 -0.1645  0.7586
  686TIP3    H123549   2.560   3.520  10.799  0.4046  0.5125  4.5135
  686TIP3    H223550   2.650   3.557  10.683 -3.7805 -1.2541  0.5418
  687TIP3   OH223551   1.494   5.131  15.178  0.3094  0.3510 -0.1490
  687TIP3    H123552   1.535   5.046  15.163  1.2052  0.7693 -0.1440
  687TIP3    H223553   1.425   5.138  15.112  1.2058  0.2461 -1.1008
  688TIP3   OH223554   0.451   3.495   0.884 -0.0345  0.0274 -0.2129
  688TIP3    H123555   0.473   3.435   0.955  2.8583  2.7500  1.3594
  688TIP3    H223556   0.474   3.448   0.804  1.4687 -1.2434  0.9383
  689TIP3   OH223557   4.187   2.105   4.118 -0.0701  0.0462 -0.2140
  689TIP3    H123558   4.280   2.117   4.098  0.1894 -0.6567  0.5828
  689TIP3    H223559   4.180   2.014   4.148 -0.5798  0.8264  2.1370
  690TIP3   OH223560   2.861   4.467   0.087 -0.2000 -0.0333  0.7706
  690TIP3    H123561   2.916   4.391   0.067  0.4880  0.3427  1.2312
  690TIP3    H223562   2.772   4.437   0.067  0.2013 -0.5086 -0.3868
  691TIP3   OH223563   2.701   2.816  12.808 -0.2087 -0.4318  0.0251
  691TIP3    H123564   2.790   2.803  12.774  0.5218 -0.2346  1.8068
  691TIP3    H223565   2.652   2.740  12.778  0.6074 -0.6595 -0.7712
  692TIP3   OH223566   3.291   3.021   1.867 -0.4138 -0.1728 -0.0723
  692TIP3    H123567   3.273   2.964   1.792  2.0062 -0.6797 -0.3188
  692TIP3    H223568   3.252   2.976   1.942 -0.0465 -1.3015 -0.5408
  693TIP3   OH223569   3.464   0.944  14.528  0.0063  0.4781  0.1131
  693TIP3    H123570   3.388   0.935  14.471 -1.2450 -2.2507  2.1076
  693TIP3    H223571   3.526   0.878  14.498  0.9271  1.5662 -0.4368
  694TIP3   OH223572   5.402   6.052  15.893  0.0884 -0.0457  0.0482
  694TIP3    H123573   5.479   6.012  15.933 -0.1176 -2.0036 -1.4376
  694TIP3    H223574   5.328   6.003  15.928 -0.2697 -0.1247 -0.8094
  695TIP3   OH223575   4.039   0.148  16.972  0.1606  0.1376  0.3641
  695TIP3    H123576   4.075   0.220  16.920 -4.0155  1.9907 -0.1227
  695TIP3    H223577   4.013   0.083  16.907  0.5753 -0.2363  0.5711
  696TIP3   OH223578   4.231   6.347   4.627 -0.1822 -0.0866 -0.2424
  696TIP3    H123579   4.304   6.313   4.575  0.4042 -1.2452  1.2769
  696TIP3    H223580   4.154   6.334   4.572  0.4664 -1.0019 -0.9472
  697TIP3   OH223581   4.350   2.646   3.534  0.4191 -0.8113  0.6242
  697TIP3    H123582   4.383   2.600   3.612 -1.6891 -0.5673  1.7103
  697TIP3    H223583   4.417   2.711   3.514  1.2337 -1.2312  1.9339
  698TIP3   OH223584   1.886   1.576   4.284  0.0192  0.1610  0.5793
  698TIP3    H123585   1.861   1.614   4.368 -3.0834 -2.1282  0.7879
  698TIP3    H223586   1.845   1.633   4.219  0.7445  0.7866  0.6618
  699TIP3   OH223587   3.493   1.617  13.241 -0.1968  0.8592 -0.1364
  699TIP3    H123588   3.487   1.580  13.153  1.4226 -2.6446  1.1453
  699TIP3    H223589   3.587   1.633  13.254 -0.1111 -1.0271  1.8401
  700TIP3   OH223590   6.260   5.716  12.643 -0.4347 -0.2925  0.1251
  700TIP3    H123591   6.246   5.746  12.553 -1.4637  3.2398  1.4018
  700TIP3    H223592   6.172   5.706  12.679 -0.0100 -0.3104  1.1729
  701TIP3   OH223593   0.881   3.281  14.277 -0.4742  0.1712  0.2350
  701TIP3    H123594   0.957   3.309  14.225 -0.8656  2.2233  0.7170
  701TIP3    H223595   0.806   3.318  14.231 -1.0191 -0.1921  0.8384
  702TIP3   OH223596   6.091   1.777   4.096  0.0517  0.6731  0.1506
  702TIP3    H123597   6.177   1.756   4.059  0.9405  3.2164  0.6018
  702TIP3    H223598   6.033   1.783   4.020  0.7994  1.1133 -0.4000
  703TIP3   OH223599   0.841   5.266   4.046  0.1328  0.3604 -0.2629
  703TIP3    H123600   0.875   5.190   4.094  0.3150 -1.2835 -2.8956
  703TIP3    H223601   0.895   5.339   4.076  2.6325 -1.2925 -0.5844
  704TIP3   OH223602   0.361   2.058   0.785  0.1230  0.6210 -0.3986
  704TIP3    H123603   0.311   2.010   0.852  1.2833 -0.3783 -0.2174
  704TIP3    H223604   0.416   2.118   0.835  1.4349 -0.5567 -0.4076
  705TIP3   OH223605   5.842   5.143   1.013 -0.2219 -0.2824 -0.1469
  705TIP3    H123606   5.767   5.090   1.039 -1.1751  1.5451  0.8946
  705TIP3    H223607   5.825   5.229   1.050  1.4614  0.6822 -1.5320
  706TIP3   OH223608   5.186   6.492   3.562  0.0336  0.3340 -0.2427
  706TIP3    H123609   5.280   6.506   3.574  0.1325  0.0597 -0.6962
  706TIP3    H223610   5.162   6.550   3.490 -0.3470  1.1689  0.5489
  707TIP3   OH223611   5.835   0.087  12.461  0.0234  0.1174  0.1463
  707TIP3    H123612   5.820   0.122  12.549  1.5215 -0.3879  0.6094
  707TIP3    H223613   5.813  -0.006  12.468 -2.1551  0.5488 -0.6218
  708TIP3   OH223614   3.166   1.656  17.141 -0.0550 -0.1926 -0.4826
  708TIP3    H123615   3.079   1.692  17.122 -0.7596  0.1209  3.0200
  708TIP3    H223616   3.213   1.728  17.183  1.3271 -0.9293 -0.7336
  709TIP3   OH223617   2.037   3.045  12.795 -0.5688 -0.3613 -0.0105
  709TIP3    H123618   2.044   2.980  12.725  0.7920  1.5433 -1.7208
  709TIP3    H223619   1.943   3.065  12.800 -0.6452 -0.3077 -1.5088
  710TIP3   OH223620   2.314   5.530  16.684 -0.0999 -0.2483  0.5441
  710TIP3    H123621   2.313   5.608  16.740 -1.1577  0.0361  0.1502
  710TIP3    H223622   2.255   5.552  16.612  0.8578 -0.8118 -0.4237
  711TIP3   OH223623   5.374   1.352   3.629  0.4280 -0.6598  0.0555
  711TIP3    H123624   5.316   1.338   3.704  2.0599 -2.0811  1.0893
  711TIP3    H223625   5.381   1.447   3.621 -0.6044 -0.4915  1.0225
  712TIP3   OH223626   4.328   1.203  13.202  0.1272  0.0253  0.0920
  712TIP3    H123627   4.242   1.225  13.165 -1.0309  0.2687  2.8460
  712TIP3    H223628   4.347   1.115  13.168 -1.2924 -0.0997 -0.4010
  713TIP3   OH223629   5.268   4.775   5.689  0.7281  0.3249 -0.9933
  713TIP3    H123630   5.269   4.855   5.741  1.2143 -0.2037 -0.1817
  713TIP3    H223631   5.179   4.771   5.652 -0.4039 -0.4886  1.6981
  714TIP3   OH223632   5.121   1.159   2.917  0.4149 -0.0828 -0.3049
  714TIP3    H123633   5.080   1.181   3.001  0.7616 -2.2342  0.4643
  714TIP3    H223634   5.076   1.080   2.889  1.3021 -0.1984 -1.4412
  715TIP3   OH223635   3.155   4.964  12.039  0.3001  0.4625  0.1964
  715TIP3    H123636   3.181   4.959  11.947 -0.5141 -1.3641  0.0493
  715TIP3    H223637   3.059   4.962  12.037  0.3025 -1.5322  1.1689
  716TIP3   OH223638   0.569   2.601  14.387 -0.1317 -0.1752 -0.5526
  716TIP3    H123639   0.476   2.610  14.407  0.1741  0.1546  0.7810
  716TIP3    H223640   0.589   2.675  14.330 -0.2657  0.9216  0.7858
  717TIP3   OH223641   3.341   0.584  14.915 -0.9517 -0.2646  0.0619
  717TIP3    H123642   3.333   0.580  14.820 -1.4758  0.6708  0.0594
  717TIP3    H223643   3.260   0.547  14.948 -0.6254 -0.9021  0.1477
  718TIP3   OH223644   2.080   3.416  14.605  0.0669  0.4293  1.0700
  718TIP3    H123645   2.123   3.362  14.539 -0.4700  1.7699 -0.4030
  718TIP3    H223646   1.991   3.383  14.610  0.0716  0.4087  1.0194
  719TIP3   OH223647   2.064   5.193  12.247  0.5497 -0.0605  0.8684
  719TIP3    H123648   2.043   5.106  12.280  1.1898 -0.2052  0.9014
  719TIP3    H223649   2.117   5.177  12.169  2.7465  0.3047  2.2524
  720TIP3   OH223650   0.672   4.410   1.759 -0.4222  0.0376  0.3108
  720TIP3    H123651   0.650   4.318   1.740  0.1369 -0.4042  1.7325
  720TIP3    H223652   0.684   4.412   1.853 -0.8446  1.6834  0.3362
  721TIP3   OH223653   3.173   0.512   4.560 -0.2533 -0.0161  0.4789
  721TIP3    H123654   3.239   0.581   4.549 -0.5091 -0.0360 -1.2955
  721TIP3    H223655   3.211   0.453   4.625  1.1751  0.3405 -0.0058
  722TIP3   OH223656   2.273   3.381  16.788  0.3342 -0.0945 -0.2534
  722TIP3    H123657   2.313   3.356  16.705  0.7516 -0.9538  0.1956
  722TIP3    H223658   2.336   3.439  16.830  0.2459  0.1144 -0.4069
  723TIP3   OH223659   5.976   1.238  13.691  1.0133  0.3461 -0.3690
  723TIP3    H123660   5.890   1.200  13.678  1.5855 -1.4214  0.8421
  723TIP3    H223661   5.960   1.331  13.704 -0.5117  0.3626 -2.1580
  724TIP3   OH223662   0.824   0.317   6.346 -1.0723 -0.0481 -0.5025
  724TIP3    H123663   0.831   0.333   6.440  0.8972 -0.9610 -0.4565
  724TIP3    H223664   0.749   0.369   6.318 -2.3433 -0.6197  1.7560
  725TIP3   OH223665   4.292   0.474  15.706  0.1593 -0.0874 -0.3226
  725TIP3    H123666   4.266   0.383  15.694 -1.0719  0.1383  0.5019
  725TIP3    H223667   4.343   0.473  15.787 -0.3145  0.0401 -0.0211
  726TIP3   OH223668   2.207   3.958   4.780 -0.3694  0.3192  0.1138
  726TIP3    H123669   2.237   3.870   4.756 -2.1376  0.2618 -2.1553
  726TIP3    H223670   2.118   3.962   4.745 -0.5316  2.8074  0.7487
  727TIP3   OH223671   3.571   5.829   2.618 -0.3084  0.0883 -0.4014
  727TIP3    H123672   3.501   5.862   2.675  0.8605 -0.5327  1.4415
  727TIP3    H223673   3.568   5.734   2.629  2.5590  0.1941  1.8599
  728TIP3   OH223674   2.953   3.120  12.633 -0.0638 -0.3274  0.5478
  728TIP3    H123675   2.902   3.191  12.671 -1.3909 -0.3789 -1.1048
  728TIP3    H223676   2.888   3.058  12.600  1.0497 -0.4274 -1.5365
  729TIP3   OH223677   2.568   4.013  11.434  0.9123 -0.3184 -0.2792
  729TIP3    H123678   2.588   4.099  11.397 -2.0240 -0.2378 -1.8318
  729TIP3    H223679   2.568   4.026  11.528  1.6687  1.1029 -0.4631
  730TIP3   OH223680   2.324   0.372   4.913  0.1607  0.3039  0.3892
  730TIP3    H123681   2.415   0.346   4.927 -0.0468 -0.1382  0.9366
  730TIP3    H223682   2.289   0.305   4.855  0.2559  0.6115 -0.0191
  731TIP3   OH223683   3.894   2.987  13.829 -0.3289 -0.1703 -0.2086
  731TIP3    H123684   3.908   2.925  13.901  0.5916  0.5276  0.2217
  731TIP3    H223685   3.951   2.956  13.759  0.1463  0.2016  0.0139
  732TIP3   OH223686   2.512   2.187   2.121 -0.5763 -0.1380 -0.4810
  732TIP3    H123687   2.571   2.224   2.186  0.9756  0.2867 -2.0970
  732TIP3    H223688   2.485   2.261   2.067 -0.3260 -0.7799 -1.5079
  733TIP3   OH223689   1.244   2.010   5.560  0.0277  0.2812  0.5739
  733TIP3    H123690   1.191   1.932   5.576 -0.2629  0.1426 -0.9555
  733TIP3    H223691   1.285   2.029   5.644  0.0800 -1.5119  0.9718
  734TIP3   OH223692   4.409   1.977   5.606  0.0428 -0.1370  0.1709
  734TIP3    H123693   4.350   1.976   5.681  0.7830 -0.9168  0.7588
  734TIP3    H223694   4.481   2.034   5.634 -1.2004  2.1090 -1.1540
  735TIP3   OH223695   6.747   5.044   4.529 -0.1934  0.2537  0.1178
  735TIP3    H123696   6.659   5.063   4.561 -0.4741 -0.9409  0.0720
  735TIP3    H223697   6.744   4.952   4.503  1.4408 -0.1764  1.3719
  736TIP3   OH223698   4.451   0.155   6.086  0.6107 -0.2058  0.1791
  736TIP3    H123699   4.396   0.188   6.015  2.0966  0.8507 -0.5033
  736TIP3    H223700   4.402   0.175   6.166 -0.6184 -0.5121 -0.4881
  737TIP3   OH223701   3.818   0.802  12.998 -0.2925  0.8286 -0.1696
  737TIP3    H123702   3.782   0.870  12.942  0.2618  1.3730  0.1330
  737TIP3    H223703   3.912   0.803  12.980 -0.1613  0.7550  0.4933
  738TIP3   OH223704   0.207   3.205   2.324 -0.5356  0.0357  0.2207
  738TIP3    H123705   0.253   3.260   2.387  3.1546  0.9500 -3.1158
  738TIP3    H223706   0.149   3.265   2.276  0.0886  0.1936 -0.3408
  739TIP3   OH223707   0.144   5.910  15.256  0.1382 -0.3409  0.4873
  739TIP3    H123708   0.118   5.944  15.171  0.5492  0.5065  0.6939
  739TIP3    H223709   0.061   5.897  15.303 -0.0268  0.3531  0.3918
  740TIP3   OH223710   4.541   3.407  11.741 -0.5616 -0.0752 -0.2258
  740TIP3    H123711   4.610   3.345  11.762  0.2212  0.6304 -0.6533
  740TIP3    H223712   4.566   3.443  11.656 -0.2449  1.8605  0.6562
  741TIP3   OH223713   4.280   4.107   4.700  0.3464 -0.0443  0.1419
  741TIP3    H123714   4.202   4.162   4.700 -0.1713 -0.7660  0.6218
  741TIP3    H223715   4.320   4.122   4.786  0.9424  0.6068 -0.2456
  742TIP3   OH223716   5.003   4.658   2.415 -0.6046  0.1106 -0.1196
  742TIP3    H123717   5.057   4.701   2.348 -1.0699 -1.1930 -1.3684
  742TIP3    H223718   5.024   4.565   2.406 -1.1528 -0.1428  1.1355
  743TIP3   OH223719   4.666   1.012   0.411  0.0463  0.0410  0.0945
  743TIP3    H123720   4.732   1.028   0.343 -0.6116 -0.9439 -0.7898
  743TIP3    H223721   4.699   0.937   0.460  0.5203  0.7519  0.8669
  744TIP3   OH223722   3.763   4.432  13.534 -0.3592 -0.4440  0.2284
  744TIP3    H123723   3.713   4.385  13.601 -0.8718 -1.4221 -0.8325
  744TIP3    H223724   3.761   4.524  13.563  0.2951 -0.9820  2.0986
  745TIP3   OH223725   2.582   3.544  15.657  0.0576 -0.1759 -0.5735
  745TIP3    H123726   2.507   3.592  15.621 -0.6269 -0.3407  0.5821
  745TIP3    H223727   2.587   3.465  15.604  0.6180  0.7468 -1.8962
  746TIP3   OH223728   2.488   0.817  12.539 -0.2027 -0.6162 -0.1431
  746TIP3    H123729   2.448   0.824  12.626  0.7173 -2.1071  0.4187
  746TIP3    H223730   2.563   0.876  12.543 -0.6501 -0.0428 -0.2063
  747TIP3   OH223731   2.923   1.023  16.516  0.1938  0.1093 -0.3919
  747TIP3    H123732   3.006   1.059  16.487  0.1491 -0.5929 -1.4202
  747TIP3    H223733   2.865   1.099  16.526 -0.1643  0.2678 -3.3906
  748TIP3   OH223734   4.491   5.719  12.890  0.0312 -0.1403 -0.6507
  748TIP3    H123735   4.422   5.765  12.843  0.7134  1.1048 -0.4558
  748TIP3    H223736   4.535   5.666  12.823 -0.6833 -0.4327 -0.8943
  749TIP3   OH223737   2.952   6.494   1.720 -0.2335 -0.4885  0.0223
  749TIP3    H123738   2.863   6.525   1.738  0.0935 -0.4352  1.5712
  749TIP3    H223739   2.939   6.411   1.673 -1.0935  0.1084 -0.8220
  750TIP3   OH223740   0.290   1.998  12.048  0.2283 -0.5431 -0.6136
  750TIP3    H123741   0.342   2.046  11.983  0.4714  0.8008  0.5444
  750TIP3    H223742   0.209   2.048  12.056  0.6235 -0.1118  0.8517
  751TIP3   OH223743   0.118   4.615  16.767 -0.2607 -0.5140 -0.3903
  751TIP3    H123744   0.119   4.658  16.682  0.6433  1.3839  0.5563
  751TIP3    H223745   0.200   4.566  16.771  1.7494  2.8065  1.0427
  752TIP3   OH223746   2.552   4.959  10.780 -0.2633 -0.1049  0.1977
  752TIP3    H123747   2.618   5.024  10.805 -0.8693  0.8617 -0.6406
  752TIP3    H223748   2.564   4.948  10.686 -1.7826  0.6486 -0.0938
  753TIP3   OH223749   2.960   5.305   2.096  0.5948  0.8725 -0.7831
  753TIP3    H123750   2.954   5.381   2.154  0.9887 -0.7156  1.3547
  753TIP3    H223751   2.953   5.343   2.008  0.4455  3.3520  0.2454
  754TIP3   OH223752   4.201   0.317  17.269  0.6221  0.0262 -0.4711
  754TIP3    H123753   4.293   0.343  17.272  0.2650  1.3348 -0.5447
  754TIP3    H223754   4.173   0.315  17.360  0.5388  0.3024 -0.4906
  755TIP3   OH223755   4.859   4.159  15.008 -0.4843  0.6926 -0.3370
  755TIP3    H123756   4.770   4.150  15.042  0.0178 -0.1351  0.7904
  755TIP3    H223757   4.872   4.081  14.954  0.8892 -1.2207  2.6201
  756TIP3   OH223758   2.702   1.390   1.310 -0.3730 -1.0210  0.1374
  756TIP3    H123759   2.689   1.303   1.347 -0.8242 -1.5009 -1.1490
  756TIP3    H223760   2.749   1.376   1.229  1.7172  0.1467  1.1046
  757TIP3   OH223761   1.505   0.068   1.173  0.3618 -0.4032  0.0485
  757TIP3    H123762   1.551   0.151   1.158  2.0058 -1.2610  0.1894
  757TIP3    H223763   1.423   0.093   1.216  1.3559  1.0585  1.1253
  758TIP3   OH223764   0.254   3.314  17.263  0.7683 -0.5559  0.3503
  758TIP3    H123765   0.334   3.348  17.303  0.1312  0.8955  0.4145
  758TIP3    H223766   0.227   3.381  17.200 -0.0878 -1.2804 -0.0761
  759TIP3   OH223767   6.809   3.264   2.849 -0.6722 -0.2646 -0.3669
  759TIP3    H123768   6.844   3.310   2.925  0.6975 -0.8645 -0.6298
  759TIP3    H223769   6.724   3.231   2.879  0.1877 -1.1400  1.1594
  760TIP3   OH223770   4.421   2.047   0.784 -0.1826 -0.0016 -0.7973
  760TIP3    H123771   4.330   2.066   0.809 -0.1259 -1.0064  0.2421
  760TIP3    H223772   4.466   2.033   0.867  1.0020  0.7438 -1.2911
  761TIP3   OH223773   5.330   0.407   2.537 -0.2742 -0.3633 -0.2376
  761TIP3    H123774   5.349   0.477   2.599 -0.3347 -1.5752  1.1960
  761TIP3    H223775   5.383   0.427   2.460  0.2486  0.8555  0.4326
  762TIP3   OH223776   2.940   2.594  17.030 -0.1488  0.2803 -0.3509
  762TIP3    H123777   2.999   2.527  17.064  1.3558  0.6632 -2.1619
  762TIP3    H223778   2.894   2.551  16.958 -2.4334 -0.1434  1.2844
  763TIP3   OH223779   3.656   4.923   4.864 -0.2363  0.2105 -0.3178
  763TIP3    H123780   3.606   4.869   4.925  1.1731 -1.3577 -0.4883
  763TIP3    H223781   3.720   4.969   4.919  0.9233 -1.0750 -0.5439
  764TIP3   OH223782   0.754   4.997  12.119 -0.2061 -0.1202 -0.1537
  764TIP3    H123783   0.813   4.927  12.147  0.9481  1.0767  0.4357
  764TIP3    H223784   0.812   5.063  12.080 -1.2652  0.5668 -0.5937
  765TIP3   OH223785   0.197   3.934   1.112  0.5370  0.2132  0.0023
  765TIP3    H123786   0.225   3.843   1.105 -1.3456 -0.3468 -0.6700
  765TIP3    H223787   0.106   3.929   1.143  0.3165  1.8435 -0.3093
  766TIP3   OH223788   6.339   2.958   4.490  0.1999 -0.0786 -0.4896
  766TIP3    H123789   6.271   2.987   4.551  2.0496  2.8287  0.2940
  766TIP3    H223790   6.293   2.950   4.406 -1.7513 -1.2940  0.6575
  767TIP3   OH223791   3.222   4.743   5.584 -0.0571  0.4152 -0.1268
  767TIP3    H123792   3.165   4.787   5.521 -0.0969 -1.1873 -1.2413
  767TIP3    H223793   3.299   4.800   5.591 -1.0008  1.7015  0.0506
  768TIP3   OH223794   2.926   4.245  11.104 -0.3138  0.4098  0.3439
  768TIP3    H123795   2.928   4.333  11.142 -0.6233 -0.0457  1.4131
  768TIP3    H223796   3.018   4.217  11.106 -0.1641  0.8413 -0.3169
  769TIP3   OH223797   6.601   5.508  12.445  0.2909  0.5336  0.1328
  769TIP3    H123798   6.630   5.566  12.516  0.9447  0.0514  0.2726
  769TIP3    H223799   6.518   5.471  12.477 -1.3605  3.1717 -0.9753
  770TIP3   OH223800   4.449   0.432  17.198  0.4211 -0.0533 -0.1293
  770TIP3    H123801   4.458   0.383  17.117  1.6176  0.2465 -0.1780
  770TIP3    H223802   4.532   0.477  17.209 -0.4954  1.6066  0.1592
  771TIP3   OH223803   6.733   1.114   2.583  0.0739 -0.8466 -0.6102
  771TIP3    H123804   6.692   1.033   2.552  0.2899 -1.8300  1.5887
  771TIP3    H223805   6.827   1.096   2.582  0.1086 -0.7570  0.1988
  772TIP3   OH223806   1.651   0.861  14.871 -0.2954 -0.2151  0.0990
  772TIP3    H123807   1.578   0.801  14.883 -1.8569  1.6079  0.0605
  772TIP3    H223808   1.614   0.933  14.820  1.3705  1.0012  0.5633
  773TIP3   OH223809   2.395   0.405   4.294 -0.2193 -0.2869 -0.2573
  773TIP3    H123810   2.453   0.458   4.239  0.1475  0.1799  0.5598
  773TIP3    H223811   2.332   0.367   4.233 -0.9905  1.7600 -0.7586
  774TIP3   OH223812   0.218   0.567  12.790  0.5147  0.7998  0.2457
  774TIP3    H123813   0.253   0.502  12.729  0.2676  0.5879  0.3288
  774TIP3    H223814   0.295   0.601  12.836  0.4124 -1.4072  2.1438
  775TIP3   OH223815   5.560   0.309  14.371  0.0286 -0.4563 -0.1831
  775TIP3    H123816   5.599   0.249  14.434  0.9347  0.3465  0.0490
  775TIP3    H223817   5.506   0.254  14.315 -1.9115 -0.9877  2.1436
  776TIP3   OH223818   0.493   0.531   3.835  0.2686 -0.1069  0.0048
  776TIP3    H123819   0.554   0.507   3.904 -0.6265  0.7571  1.1023
  776TIP3    H223820   0.408   0.537   3.878 -0.7227 -1.8435 -1.6081
  777TIP3   OH223821   0.540   6.669   0.096 -0.0483  0.0276 -0.6685
  777TIP3    H123822   0.498   6.699   0.177 -1.2790 -0.5135 -1.0909
  777TIP3    H223823   0.615   6.617   0.127 -0.2119  0.2382  0.1113
  778TIP3   OH223824   2.191   0.779  16.252 -0.1064  0.0767  0.3041
  778TIP3    H123825   2.204   0.850  16.315 -1.2606  1.0529 -0.5410
  778TIP3    H223826   2.174   0.702  16.307 -1.4936  0.9920  1.1904
  779TIP3   OH223827   2.446   6.722  14.042 -0.1159 -0.2822  0.3915
  779TIP3    H123828   2.454   6.630  14.067  0.6780 -0.6512 -1.1604
  779TIP3    H223829   2.395   6.720  13.960  1.5076  0.4938 -0.6595
  780TIP3   OH223830   3.823   2.950   5.528 -0.0234 -0.3551  0.3528
  780TIP3    H123831   3.896   2.897   5.559  0.7110  1.0628  1.0405
  780TIP3    H223832   3.759   2.947   5.600 -0.2295 -0.7522  0.1603
  781TIP3   OH223833   3.160   5.839  16.484  0.2749 -0.5716  0.3315
  781TIP3    H123834   3.127   5.926  16.504  0.7634 -0.0433 -1.0365
  781TIP3    H223835   3.111   5.780  16.541  0.1839  0.6337  1.5118
  782TIP3   OH223836   1.448   2.594   5.078 -0.0981 -0.3843  0.3888
  782TIP3    H123837   1.440   2.561   4.988 -0.5031  1.2408 -0.1848
  782TIP3    H223838   1.385   2.542   5.128  2.6080 -3.7356  0.4681
  783TIP3   OH223839   2.038   1.664   2.709  0.3405  0.8158  0.0543
  783TIP3    H123840   1.992   1.702   2.635  1.3409  1.7275 -0.1106
  783TIP3    H223841   2.045   1.736   2.772  0.8077  0.4570  0.4178
  784TIP3   OH223842   2.413   6.559  13.361 -0.3332 -0.3720 -0.5499
  784TIP3    H123843   2.375   6.485  13.409 -1.3957  0.8343  0.5166
  784TIP3    H223844   2.342   6.623  13.356  0.7908  0.8745 -0.7988
  785TIP3   OH223845   1.542   5.408  13.144 -0.0393 -0.4202 -0.0908
  785TIP3    H123846   1.470   5.357  13.181 -1.6449  0.6110 -1.7389
  785TIP3    H223847   1.538   5.492  13.191 -0.4026 -0.0842 -0.7189
  786TIP3   OH223848   1.228   0.639   1.651  0.3714 -0.0584 -1.0950
  786TIP3    H123849   1.265   0.717   1.609 -0.9766  1.9268  1.2984
  786TIP3    H223850   1.233   0.657   1.745 -5.6136 -0.0621 -0.5483
  787TIP3   OH223851   5.187   1.493  11.438 -0.0420  0.8335 -0.1070
  787TIP3    H123852   5.236   1.432  11.382  0.1709  1.7664 -0.9496
  787TIP3    H223853   5.223   1.479  11.526 -0.5335 -0.8054 -0.1595
  788TIP3   OH223854   4.173   3.845  14.655  0.1459  0.3875  0.0221
  788TIP3    H123855   4.155   3.842  14.749 -2.2132  0.9671 -0.3875
  788TIP3    H223856   4.125   3.770  14.619  1.3329 -0.0528 -0.6878
  789TIP3   OH223857   2.314   2.041   2.334  0.1022 -0.6371 -0.0971
  789TIP3    H123858   2.320   2.001   2.248 -0.3613 -1.0679  0.0723
  789TIP3    H223859   2.233   2.093   2.331  1.1173  0.9781 -0.6037
  790TIP3   OH223860   3.414   3.046  15.154 -0.1793  0.3632 -0.1419
  790TIP3    H123861   3.414   3.082  15.065 -2.2225 -0.0382 -0.3228
  790TIP3    H223862   3.383   2.956  15.144  2.1103 -0.5572  0.6740
  791TIP3   OH223863   6.549   0.044  15.484 -0.0923 -0.7671 -0.0856
  791TIP3    H123864   6.546   0.139  15.470  0.2069 -0.6255  0.8135
  791TIP3    H223865   6.461   0.021  15.512  0.0644 -0.6280  0.5187
  792TIP3   OH223866   2.974   4.616  10.345  0.2029 -0.8506  0.5782
  792TIP3    H123867   2.930   4.553  10.402  0.1634 -0.7176  0.6960
  792TIP3    H223868   3.067   4.609  10.368  0.3456 -1.6953 -0.2236
  793TIP3   OH223869   5.793   1.582  12.684 -0.6341  0.0739  0.1674
  793TIP3    H123870   5.796   1.496  12.643  0.9947 -0.2437  0.9144
  793TIP3    H223871   5.756   1.565  12.771 -0.6575  0.1809  0.1781
  794TIP3   OH223872   3.190   4.508  15.517 -0.3054  0.2298  0.5580
  794TIP3    H123873   3.157   4.458  15.592  0.1237  0.7043  1.0667
  794TIP3    H223874   3.283   4.523  15.538 -0.0374 -0.1570 -0.3467
  795TIP3   OH223875   3.252   0.079  16.269  0.3645  0.7524  0.5588
  795TIP3    H123876   3.233   0.158  16.219  0.5749  0.8900  0.6975
  795TIP3    H223877   3.190   0.080  16.342  2.1159  2.1662  2.0785
  796TIP3   OH223878   1.410   3.704  14.077  0.7358 -0.0155  0.3007
  796TIP3    H123879   1.369   3.710  13.990  0.8955  0.7560  0.2672
  796TIP3    H223880   1.470   3.779  14.080  0.1840  0.3912  1.3553
  797TIP3   OH223881   1.089   5.473  15.361 -0.3823  0.3638  0.1980
  797TIP3    H123882   1.008   5.424  15.374  0.0308  0.1403  2.0241
  797TIP3    H223883   1.151   5.409  15.326 -1.1470  0.6819 -1.8217
  798TIP3   OH223884   5.587   4.821   4.494  0.2355  0.2497 -0.1451
  798TIP3    H123885   5.622   4.746   4.447 -0.4482 -0.5142  0.5392
  798TIP3    H223886   5.496   4.828   4.464 -0.0176  0.1404  0.5887
  799TIP3   OH223887   1.662   0.970   2.514 -0.5770 -0.0199  0.2335
  799TIP3    H123888   1.740   0.982   2.569  0.9549  1.3571 -2.1024
  799TIP3    H223889   1.620   0.892   2.548  0.0841  1.0066  3.5870
  800TIP3   OH223890   5.264   6.611   5.725 -0.5972  0.2503 -0.6259
  800TIP3    H123891   5.237   6.692   5.768  0.9881  0.7910 -0.6468
  800TIP3    H223892   5.270   6.548   5.797 -2.4897 -0.0566 -0.6974
  801TIP3   OH223893   3.958   1.761  13.509  0.1324  0.0427  0.0218
  801TIP3    H123894   4.007   1.741  13.589 -0.5539 -0.5779  0.3034
  801TIP3    H223895   3.972   1.685  13.453  0.2922  0.3025 -0.2928
  802TIP3   OH223896   0.528   2.141  16.316 -0.0963  0.4104  0.4347
  802TIP3    H123897   0.460   2.074  16.307  1.3891 -1.0537 -0.4116
  802TIP3    H223898   0.573   2.140  16.231  1.2224  1.0511  1.1035
  803TIP3   OH223899   2.772   0.375  16.301 -0.4454  0.7628  0.2006
  803TIP3    H123900   2.722   0.416  16.371  0.7736  0.9809  0.9500
  803TIP3    H223901   2.756   0.430  16.224 -1.9139  0.4282  0.2487
  804TIP3   OH223902   6.306   2.100   5.537  0.2974 -0.2940 -0.1002
  804TIP3    H123903   6.374   2.168   5.533  1.7274 -1.7132 -0.3717
  804TIP3    H223904   6.236   2.140   5.589  1.4227  1.1155  0.3863
  805TIP3   OH223905   5.087   4.335   0.797  0.6431 -0.4206  0.1252
  805TIP3    H123906   5.060   4.247   0.820 -0.1630 -0.1899  0.0837
  805TIP3    H223907   5.005   4.384   0.787  0.9655 -0.4610 -3.0548
  806TIP3   OH223908   5.795   1.408   2.699 -0.2667 -0.6454  0.4394
  806TIP3    H123909   5.717   1.463   2.703 -1.0774 -1.7505  0.1435
  806TIP3    H223910   5.803   1.370   2.786  0.1035 -0.3273  0.5477
  807TIP3   OH223911   2.434   0.174  17.193 -0.4305 -0.1052 -0.0626
  807TIP3    H123912   2.361   0.200  17.136 -0.7011  2.6980  1.4500
  807TIP3    H223913   2.412   0.086  17.223 -1.9352 -0.2729 -1.6152
  808TIP3   OH223914   3.957   2.015  15.032  0.4718  0.0975  0.1709
  808TIP3    H123915   3.953   1.921  15.018 -1.2095  0.1126  0.5118
  808TIP3    H223916   3.875   2.037  15.077  1.1300  1.6175  0.6891
  809TIP3   OH223917   6.105   2.389   3.763  0.1872  0.0890 -0.9536
  809TIP3    H123918   6.134   2.302   3.735  1.0908 -0.1442  0.6094
  809TIP3    H223919   6.171   2.416   3.827 -0.7794  1.3838 -0.4933
  810TIP3   OH223920   3.154   0.112  17.270  0.1042  0.2722 -0.2211
  810TIP3    H123921   3.134   0.075  17.184 -1.9101 -0.2918  0.4571
  810TIP3    H223922   3.116   0.200  17.267 -1.3065 -0.2991  0.6026
  811TIP3   OH223923   3.058   2.400   0.787  0.2132  0.4668 -0.0976
  811TIP3    H123924   3.103   2.324   0.751  1.3169  0.3196  1.5601
  811TIP3    H223925   3.126   2.466   0.796 -0.8717  1.9246 -2.1896
  812TIP3   OH223926   2.111   4.276  12.441  0.1194 -0.6036  0.2457
  812TIP3    H123927   2.030   4.323  12.461  0.3928  0.1923 -0.4595
  812TIP3    H223928   2.150   4.256  12.526 -0.4674 -0.3735  0.5679
  813TIP3   OH223929   4.787   6.677  17.199  0.1022 -0.5161  0.0962
  813TIP3    H123930   4.743   6.754  17.234  2.8487 -0.0982  2.8864
  813TIP3    H223931   4.764   6.675  17.106 -3.3806  1.2612  0.8758
  814TIP3   OH223932   2.416   1.785   1.652  0.2563  0.1994  0.1494
  814TIP3    H123933   2.328   1.786   1.688 -0.5498  1.7427 -1.7908
  814TIP3    H223934   2.470   1.826   1.720 -0.9927  1.8465  0.1507
  815TIP3   OH223935   4.111   2.692   3.412 -0.2043  0.7396  0.6230
  815TIP3    H123936   4.201   2.678   3.443  0.7026  2.7347 -0.9720
  815TIP3    H223937   4.068   2.608   3.425  2.0262 -0.3786  1.0398
  816TIP3   OH223938   2.999   6.080   3.855 -0.2292 -0.5046  0.2801
  816TIP3    H123939   3.041   6.090   3.769  0.2581  0.8140  0.6784
  816TIP3    H223940   3.010   5.987   3.875 -1.0449 -1.0043 -1.4474
  817TIP3   OH223941   4.812   4.477  11.856  0.0443 -0.2207 -0.0114
  817TIP3    H123942   4.833   4.533  11.930  0.8524  0.1284 -0.5072
  817TIP3    H223943   4.738   4.424  11.887  1.6734 -1.5152  1.7635
  818TIP3   OH223944   0.321   6.299  12.734 -1.0957 -0.7316  0.7748
  818TIP3    H123945   0.372   6.270  12.658 -1.5557 -2.2207  1.0199
  818TIP3    H223946   0.237   6.326  12.698 -1.3229 -1.4619  0.7576
  819TIP3   OH223947   5.298   1.337  14.888 -0.0371  0.6886  0.9354
  819TIP3    H123948   5.232   1.396  14.851 -1.8964 -2.7276 -1.4590
  819TIP3    H223949   5.250   1.283  14.951  0.8880 -0.4563  0.6817
  820TIP3   OH223950   2.529   6.426  15.442  0.4389 -0.0540  0.3613
  820TIP3    H123951   2.588   6.475  15.385  0.8479  1.0707  1.7234
  820TIP3    H223952   2.453   6.406  15.388  0.8942  0.8459 -0.6118
  821TIP3   OH223953   0.195   3.331  11.468  0.0538  0.5173 -1.2454
  821TIP3    H123954   0.192   3.239  11.442 -1.5741 -0.2291  1.3953
  821TIP3    H223955   0.273   3.337  11.524 -1.3048  0.0879  0.7501
  822TIP3   OH223956   1.000   5.915   1.305  0.2569 -0.1907  0.3164
  822TIP3    H123957   0.972   5.907   1.214  0.6795 -0.1308  0.1794
  822TIP3    H223958   1.002   5.825   1.338  0.2089 -0.2208  0.2346
  823TIP3   OH223959   2.192   0.993  13.376  0.4509  0.2875 -0.0874
  823TIP3    H123960   2.103   1.019  13.351 -0.2481 -1.6369  0.2807
  823TIP3    H223961   2.179   0.939  13.454  1.8636 -0.6727 -0.5047
  824TIP3   OH223962   3.356   3.688   3.289  0.5185  0.6731 -0.1413
  824TIP3    H123963   3.351   3.782   3.305  0.5438  0.2022  2.8580
  824TIP3    H223964   3.420   3.656   3.352  1.3935 -1.2217 -1.9254
  825TIP3   OH223965   6.478   2.280   5.033 -0.3867 -0.0028  0.3748
  825TIP3    H123966   6.544   2.339   5.067 -0.0155 -0.1615 -0.0618
  825TIP3    H223967   6.468   2.213   5.101 -0.0571 -0.0120  0.4159
  826TIP3   OH223968   6.437   0.379   4.809 -0.2208 -0.0020  0.1103
  826TIP3    H123969   6.436   0.434   4.731  0.7516 -0.1533 -0.0178
  826TIP3    H223970   6.448   0.290   4.776  1.7528  0.0746  0.4592
  827TIP3   OH223971   3.562   0.488  15.557  0.1604 -0.5031  0.3626
  827TIP3    H123972   3.522   0.505  15.643 -0.4190 -0.1537  0.0275
  827TIP3    H223973   3.601   0.401  15.565  4.4332  1.4411  2.6033
  828TIP3   OH223974   4.017   4.079  11.203  0.4471  0.3389 -0.6237
  828TIP3    H123975   4.013   4.148  11.268  0.3064 -1.4886  1.3484
  828TIP3    H223976   3.974   4.116  11.126  0.9431  2.6482  0.1756
  829TIP3   OH223977   1.843   6.663  15.445 -0.0452  0.3523 -0.3001
  829TIP3    H123978   1.757   6.636  15.415 -0.8231  1.3150  0.9738
  829TIP3    H223979   1.882   6.709  15.371  0.4117 -2.2603 -1.7281
  830TIP3   OH223980   3.229   3.409   5.373  0.0743 -0.2117 -0.0190
  830TIP3    H123981   3.264   3.470   5.438  3.4097  0.3549 -2.1698
  830TIP3    H223982   3.201   3.333   5.423  0.7387  0.9850  2.2367
  831TIP3   OH223983   2.728   0.013   4.812  0.4028  0.2520 -0.1249
  831TIP3    H123984   2.723  -0.074   4.852  3.0587  0.0486 -0.1131
  831TIP3    H223985   2.647   0.021   4.762  1.4096 -3.5084 -2.6115
  832TIP3   OH223986   3.267   1.479   3.690 -0.2650 -0.0150 -0.3987
  832TIP3    H123987   3.240   1.509   3.602 -0.1227  1.4031  0.0223
  832TIP3    H223988   3.361   1.496   3.693 -0.4305  0.7953  0.3520
  833TIP3   OH223989   2.330   4.418   0.805 -0.0443  0.4326  0.6561
  833TIP3    H123990   2.368   4.484   0.747 -1.6747  0.6252 -0.2376
  833TIP3    H223991   2.242   4.405   0.771 -0.3117 -0.9857  1.8541
  834TIP3   OH223992   1.801   4.123   5.056  0.1497  0.6380  0.7963
  834TIP3    H123993   1.799   4.140   4.961  1.4367  0.1026  0.6636
  834TIP3    H223994   1.885   4.079   5.070 -0.5644 -0.3306  2.0188
  835TIP3   OH223995   3.163   3.359  10.914 -0.4210 -0.3541  0.0223
  835TIP3    H123996   3.112   3.306  10.976 -0.8176  1.8754  1.6709
  835TIP3    H223997   3.122   3.445  10.918  0.1134  0.0614 -2.7418
  836TIP3   OH223998   6.215   1.641   3.174 -0.2011  0.1565  0.2118
  836TIP3    H123999   6.261   1.717   3.210  0.6973 -0.4133  0.2822
  836TIP3    H224000   6.283   1.574   3.164 -0.5807  0.0466 -1.8381
  837TIP3   OH224001   1.889   0.612   3.099 -0.5650  0.6381 -0.5943
  837TIP3    H124002   1.861   0.704   3.093 -4.1175 -0.5183 -3.3580
  837TIP3    H224003   1.838   0.577   3.172  0.3337  0.6932  0.0642
  838TIP3   OH224004   1.132   2.837  15.427  0.6820 -0.2042 -0.1731
  838TIP3    H124005   1.200   2.899  15.402  0.2174 -0.2213 -1.4895
  838TIP3    H224006   1.128   2.844  15.523  0.4894  1.9771 -0.3043
  839TIP3   OH224007   3.788   6.321   3.703 -0.5783  0.3461  0.3607
  839TIP3    H124008   3.869   6.285   3.668  0.5142  1.0229  2.1481
  839TIP3    H224009   3.719   6.271   3.659  0.8132 -0.9600 -0.3878
  840TIP3   OH224010   0.452   6.546  12.850 -0.0724  0.1104 -0.1121
  840TIP3    H124011   0.431   6.485  12.779 -0.7315  0.5641 -0.3106
  840TIP3    H224012   0.536   6.515  12.884 -0.8731 -1.5172  0.4668
  841TIP3   OH224013   3.833   0.818  15.464  0.0936  0.1092  0.8556
  841TIP3    H124014   3.743   0.850  15.460 -0.4629 -1.6483 -1.7631
  841TIP3    H224015   3.829   0.728  15.432  2.8796  0.1759  0.1445
  842TIP3   OH224016   2.114   5.495   0.814  0.0719  0.0676 -0.3741
  842TIP3    H124017   2.151   5.408   0.823  0.2609  0.3093  1.4136
  842TIP3    H224018   2.165   5.549   0.875  0.1291  1.4743 -1.6541
  843TIP3   OH224019   0.364   4.055   3.232  0.1768 -0.3062  0.3546
  843TIP3    H124020   0.306   4.060   3.308  0.8555  0.4250  0.8376
  843TIP3    H224021   0.452   4.049   3.269  0.4751 -0.4782 -0.3721
  844TIP3   OH224022   3.515   0.913  12.038  0.3479 -0.2854 -0.4182
  844TIP3    H124023   3.505   0.820  12.021 -1.1365 -0.1768 -0.1767
  844TIP3    H224024   3.540   0.919  12.130 -0.3607 -0.3967 -0.2217
  845TIP3   OH224025   3.836   3.551   4.002  0.1233  0.0672 -0.1548
  845TIP3    H124026   3.841   3.631   3.950 -0.7861  0.0948 -0.2112
  845TIP3    H224027   3.760   3.565   4.059 -0.0640 -0.7798 -0.1992
  846TIP3   OH224028   3.717   2.536  12.544 -0.0546 -0.3547  0.2058
  846TIP3    H124029   3.799   2.489  12.528  0.5078  0.2592  1.2670
  846TIP3    H224030   3.660   2.508  12.473  1.4777  0.1815 -1.2732
  847TIP3   OH224031   4.374   5.865   6.025 -0.2251  0.0664 -0.9633
  847TIP3    H124032   4.351   5.956   6.043  0.5116  0.3656 -1.5242
  847TIP3    H224033   4.463   5.857   6.057 -1.2191 -1.2041  1.6174
  848TIP3   OH224034   1.826   6.394   1.159  0.2535 -0.1451 -0.5565
  848TIP3    H124035   1.852   6.380   1.250 -0.0482  0.3771 -0.3863
  848TIP3    H224036   1.866   6.479   1.137  1.4018 -0.8666 -1.3139
  849TIP3   OH224037   1.154   1.399  14.532  0.6389  0.8234  0.2535
  849TIP3    H124038   1.205   1.387  14.452  2.7346 -1.1409  1.8470
  849TIP3    H224039   1.072   1.352  14.514  1.2588  0.0361 -0.5676
  850TIP3   OH224040   5.975   0.882  11.923 -0.2433 -0.0862 -0.6156
  850TIP3    H124041   5.905   0.816  11.929 -0.2797 -0.0843 -0.9924
  850TIP3    H224042   5.949   0.937  11.849 -1.1474  1.4559  0.8011
  851TIP3   OH224043   4.001   0.170   5.572  0.2792 -0.3022 -0.5320
  851TIP3    H124044   4.046   0.178   5.656  1.9195 -0.4688 -1.3822
  851TIP3    H224045   4.013   0.256   5.531  0.0909 -0.4520 -0.8991
  852TIP3   OH224046   5.851   3.208   0.930  0.0535 -0.4388 -0.2646
  852TIP3    H124047   5.757   3.220   0.941  0.0781 -1.2707  0.9813
  852TIP3    H224048   5.860   3.155   0.851 -0.4916  0.0596 -0.6640
  853TIP3   OH224049   0.092   4.548   4.242  0.0248  0.0518 -0.3632
  853TIP3    H124050   0.165   4.607   4.258  0.4962 -0.2759 -1.2692
  853TIP3    H224051   0.078   4.552   4.147  0.8440 -2.1894 -0.6101
  854TIP3   OH224052   6.802   4.936   2.559  0.3731 -0.6636 -0.4134
  854TIP3    H124053   6.792   4.966   2.468 -0.0240  0.9083  0.1388
  854TIP3    H224054   6.713   4.913   2.586  0.5933 -1.8228 -0.6441
  855TIP3   OH224055   2.373   2.216  14.856  0.1839  0.2040  0.9742
  855TIP3    H124056   2.433   2.233  14.928 -0.1258 -0.2612  1.3463
  855TIP3    H224057   2.359   2.122  14.858  0.0622  0.2070  0.3913
  856TIP3   OH224058   4.665   5.094  13.867  0.4034  0.0981 -0.2647
  856TIP3    H124059   4.603   5.039  13.818  0.7904 -1.7372  1.2447
  856TIP3    H224060   4.742   5.098  13.811  1.0330 -2.4098  0.3668
  857TIP3   OH224061   3.393   4.372  10.694 -0.3407 -0.7188 -0.2022
  857TIP3    H124062   3.454   4.300  10.687  3.0343  2.0006  0.0312
  857TIP3    H224063   3.337   4.363  10.616 -0.0758 -3.5766 -0.1099
  858TIP3   OH224064   6.501   1.480  12.478  0.3066 -0.8626 -0.5254
  858TIP3    H124065   6.452   1.485  12.396  0.4964  3.0858 -0.4763
  858TIP3    H224066   6.571   1.544  12.468  1.3159 -1.4943  2.1077
  859TIP3   OH224067   2.653   6.047   5.859 -0.0873 -0.3847 -0.1000
  859TIP3    H124068   2.692   5.982   5.916 -1.1165 -0.0972  0.9425
  859TIP3    H224069   2.728   6.090   5.817  0.6579 -0.8742  0.7195
  860TIP3   OH224070   4.792   3.538   4.180  0.2525  0.2089 -0.2557
  860TIP3    H124071   4.880   3.573   4.193  0.0062  0.8351 -0.2571
  860TIP3    H224072   4.763   3.514   4.268 -0.6662  2.6516  0.1410
  861TIP3   OH224073   2.501   1.601   5.472  0.2426  0.5637 -0.3845
  861TIP3    H124074   2.459   1.682   5.441  0.4531  0.6824 -0.3635
  861TIP3    H224075   2.444   1.571   5.543 -0.3792  0.1501 -1.0465
  862TIP3   OH224076   3.073   1.416   6.424  0.2701  0.2614 -0.2727
  862TIP3    H124077   3.103   1.325   6.422  2.0358  0.7603  1.4030
  862TIP3    H224078   3.081   1.442   6.516 -0.8902  1.9088 -0.5981
  863TIP3   OH224079   0.279   5.310  16.648 -0.2867  0.1987 -0.1558
  863TIP3    H124080   0.263   5.289  16.556 -3.4416 -0.0662  0.3884
  863TIP3    H224081   0.326   5.393  16.645  1.6439 -0.9018 -2.0296
  864TIP3   OH224082   2.205   2.995   0.514  0.4051  0.3903  0.5586
  864TIP3    H124083   2.257   2.991   0.434 -0.5700 -0.5319 -0.0467
  864TIP3    H224084   2.221   3.083   0.549  2.5680  0.0225  0.5460
  865TIP3   OH224085   4.641   1.289   0.032 -0.1785 -0.2118 -0.1669
  865TIP3    H124086   4.732   1.312   0.013  0.3817 -0.1269  2.3915
  865TIP3    H224087   4.635   1.196   0.011  0.7643 -0.4217  0.4181
  866TIP3   OH224088   4.188   3.202  11.626  0.5124  0.2431  0.0396
  866TIP3    H124089   4.182   3.146  11.703  0.7776 -1.6360 -1.2674
  866TIP3    H224090   4.250   3.157  11.569  0.4623  1.7063 -1.1815
  867TIP3   OH224091   6.473   0.563  13.040 -0.1670  0.0596 -0.0192
  867TIP3    H124092   6.388   0.607  13.045 -0.0137  0.4113 -0.5058
  867TIP3    H224093   6.462   0.484  13.093 -1.1889 -0.5048 -1.0363
  868TIP3   OH224094   5.800   5.333   3.719  0.0580 -0.2901 -0.1766
  868TIP3    H124095   5.711   5.325   3.684 -0.1996 -2.2452  0.8570
  868TIP3    H224096   5.789   5.325   3.814  1.1762  1.0175  0.0712
  869TIP3   OH224097   6.102   1.391  17.098  0.9072 -0.6929  0.7244
  869TIP3    H124098   6.164   1.461  17.116  2.3128 -2.1314  1.6234
  869TIP3    H224099   6.151   1.310  17.118 -0.5151 -1.9388 -0.7070
  870TIP3   OH224100   5.454   5.318  13.383 -0.0057  0.5767  0.5233
  870TIP3    H124101   5.483   5.332  13.473  2.2792  0.1421 -0.1021
  870TIP3    H224102   5.362   5.344  13.383  0.0011  0.7577  2.9323
  871TIP3   OH224103   6.309   0.020   4.183 -0.1369 -0.1931 -0.1515
  871TIP3    H124104   6.250  -0.052   4.160  1.1356 -2.0794  2.3210
  871TIP3    H224105   6.250   0.091   4.208 -1.4351 -2.0607  2.3320
  872TIP3   OH224106   4.706   5.888   0.033  0.2272  0.1075  0.1669
  872TIP3    H124107   4.728   5.835   0.109 -0.4483  1.2682  1.2002
  872TIP3    H224108   4.679   5.826  -0.034 -0.0816 -0.8747  1.1954
  873TIP3   OH224109   4.766   5.146  17.157  0.4636  0.2685  0.5651
  873TIP3    H124110   4.793   5.217  17.099  2.9274 -1.5410 -0.5494
  873TIP3    H224111   4.830   5.148  17.228  0.1929 -0.4883  0.8303
  874TIP3   OH224112   0.876   5.763   5.378 -0.3342 -0.0385 -0.5156
  874TIP3    H124113   0.891   5.711   5.299 -0.8477  0.6813 -1.0957
  874TIP3    H224114   0.890   5.854   5.350 -1.6950  0.3182 -0.0712
  875TIP3   OH224115   5.572   5.750   4.686 -0.1579  0.4862 -0.5815
  875TIP3    H124116   5.524   5.677   4.724  0.0622 -0.0341 -1.3012
  875TIP3    H224117   5.664   5.730   4.701 -0.0225 -0.2238 -2.2699
  876TIP3   OH224118   5.283   3.072   5.193 -0.2414 -0.2638 -0.2065
  876TIP3    H124119   5.240   3.153   5.218  0.2604  0.1456 -0.6552
  876TIP3    H224120   5.353   3.061   5.258  0.8604  0.6341 -1.2213
  877TIP3   OH224121   5.610   2.648   1.624  0.0833 -0.0777 -0.1882
  877TIP3    H124122   5.661   2.672   1.546  1.5093 -1.5011  0.2948
  877TIP3    H224123   5.643   2.562   1.649 -0.5432  0.2444  1.8349
  878TIP3   OH224124   5.207   6.673   3.944 -0.3809  0.0960  0.2029
  878TIP3    H124125   5.131   6.683   3.885  0.8332 -0.5123 -1.4851
  878TIP3    H224126   5.280   6.709   3.894  0.7752 -0.9648  1.1203
  879TIP3   OH224127   2.032   2.168  12.484  0.0430  0.6198 -0.2667
  879TIP3    H124128   1.944   2.204  12.471 -0.0285  0.5005 -0.1158
  879TIP3    H224129   2.082   2.201  12.410 -0.1813  0.5143 -0.4665
  880TIP3   OH224130   0.969   2.348   5.629  0.7609  0.3740 -0.0580
  880TIP3    H124131   0.899   2.380   5.686  2.5194 -1.0078  3.0072
  880TIP3    H224132   1.013   2.428   5.598 -1.1804  1.1916 -0.7738
  881TIP3   OH224133   2.899   6.550   2.205 -0.0910 -0.2349  0.6833
  881TIP3    H124134   2.877   6.463   2.172 -1.8368  0.3903  0.1574
  881TIP3    H224135   2.867   6.610   2.138  2.7405  0.7700  0.1843
  882TIP3   OH224136   6.306   0.838  14.724 -0.3713 -0.2038 -0.8230
  882TIP3    H124137   6.329   0.796  14.641 -0.5663 -0.1963 -0.8810
  882TIP3    H224138   6.327   0.772  14.790  1.4420  0.4331 -0.7310
  883TIP3   OH224139   6.047   5.555  13.266 -0.6082  0.4473 -0.8937
  883TIP3    H124140   6.113   5.623  13.254  2.3510 -2.2371 -0.3034
  883TIP3    H224141   6.000   5.580  13.345  2.9678 -0.1236  1.5108
  884TIP3   OH224142   5.632   2.522  10.765  0.1898 -0.0904  0.3343
  884TIP3    H124143   5.652   2.615  10.772 -0.2555 -0.0122  0.6367
  884TIP3    H224144   5.578   2.504  10.842 -2.2837  0.0793 -1.2952
  885TIP3   OH224145   2.065   2.543  13.747  0.4863 -0.1516  0.2524
  885TIP3    H124146   1.981   2.534  13.791 -0.0411 -0.9294 -0.8823
  885TIP3    H224147   2.129   2.551  13.817 -0.5294  0.4045  1.1228
  886TIP3   OH224148   4.236   3.394  14.332 -0.2407  0.1178 -0.2353
  886TIP3    H124149   4.261   3.453  14.261 -1.7987  0.0186 -0.8847
  886TIP3    H224150   4.249   3.306  14.295  0.2625  0.0552  0.0832
  887TIP3   OH224151   2.075   0.345   0.277  0.0597 -0.0073  0.4131
  887TIP3    H124152   2.010   0.389   0.333  0.6111 -2.2035  2.8858
  887TIP3    H224153   2.159   0.370   0.315  0.4617 -1.2429  0.3353
  888TIP3   OH224154   4.157   5.648  12.930 -0.3736 -0.4817 -0.3205
  888TIP3    H124155   4.134   5.614  12.843  0.1221 -1.3106 -0.1331
  888TIP3    H224156   4.077   5.641  12.981 -0.3770 -1.0332 -0.3943
  889TIP3   OH224157   0.722   3.773  11.663  0.3503 -0.6546 -0.3145
  889TIP3    H124158   0.702   3.863  11.687 -2.3934 -1.2670 -0.0303
  889TIP3    H224159   0.737   3.776  11.568  1.4725  0.2665 -0.1161
  890TIP3   OH224160   4.857   5.599  11.622  0.3910  0.3476 -0.2424
  890TIP3    H124161   4.802   5.522  11.611 -0.1498  0.9891 -2.1875
  890TIP3    H224162   4.942   5.574  11.585 -0.2093  1.1371 -2.2093
  891TIP3   OH224163   4.253   4.149   3.008 -1.1106 -0.1323  0.8085
  891TIP3    H124164   4.204   4.231   2.999  0.8508  0.8704 -1.2757
  891TIP3    H224165   4.201   4.085   2.960 -1.2399  0.5234  0.0679
  892TIP3   OH224166   6.654   3.575   2.238 -0.0086  0.0948 -0.4930
  892TIP3    H124167   6.712   3.603   2.166  0.2469  2.2529  0.5034
  892TIP3    H224168   6.683   3.628   2.313 -0.4403 -1.9436  1.1356
  893TIP3   OH224169   3.061   0.361  15.513 -0.0912  0.2550 -0.8565
  893TIP3    H124170   3.110   0.438  15.481  1.8571 -0.3060  0.6352
  893TIP3    H224171   3.101   0.287  15.467  0.3300 -0.1838  0.1949
  894TIP3   OH224172   3.817   3.171  10.990  0.7023  0.4546 -0.4272
  894TIP3    H124173   3.906   3.139  10.975  1.1849  1.4611  0.2273
  894TIP3    H224174   3.780   3.110  11.054  1.2455  0.5662 -0.0001
  895TIP3   OH224175   5.525   5.162   2.033 -0.0996 -0.9970  0.4561
  895TIP3    H124176   5.514   5.237   2.091 -2.2103 -2.1090  1.5917
  895TIP3    H224177   5.526   5.199   1.945 -4.2877  0.2040  0.7820
  896TIP3   OH224178   0.691   6.237  11.663 -0.3462  0.1641  0.1465
  896TIP3    H124179   0.634   6.181  11.611 -0.8758  1.9166 -1.2024
  896TIP3    H224180   0.651   6.238  11.750 -2.2442  1.1478 -0.7109
  897TIP3   OH224181   3.890   4.200  12.221 -0.1895  0.3224  0.3165
  897TIP3    H124182   3.826   4.185  12.152  0.4854 -0.4058 -0.1464
  897TIP3    H224183   3.897   4.116  12.267  0.0826  0.5345  0.6695
  898TIP3   OH224184   6.354   2.356   6.043 -0.1232  0.2277 -0.0624
  898TIP3    H124185   6.327   2.359   6.135  1.4316 -0.2085  0.4235
  898TIP3    H224186   6.343   2.263   6.019  0.8862  0.0591  0.1234
  899TIP3   OH224187   2.579   4.780   1.537 -0.1589 -0.4864  0.0589
  899TIP3    H124188   2.588   4.701   1.590  1.3382  0.7710  1.7733
  899TIP3    H224189   2.505   4.827   1.578 -0.5144 -0.6132 -0.4375
  900TIP3   OH224190   1.886   4.202  15.954 -0.1914  0.2088  0.7905
  900TIP3    H124191   1.832   4.208  15.875  1.2859  0.5587 -0.2110
  900TIP3    H224192   1.899   4.108  15.967 -0.8667  0.1287  0.9343
  901TIP3   OH224193   6.076   3.615  16.109  0.5237 -0.0852  0.3310
  901TIP3    H124194   5.982   3.611  16.130  0.5083  0.8681  0.4302
  901TIP3    H224195   6.097   3.708  16.109  2.1649 -0.3964  3.3835
  902TIP3   OH224196   4.121   5.036   3.114 -0.2400 -0.5640  1.1213
  902TIP3    H124197   4.148   5.119   3.075  1.2296 -0.6629  1.8846
  902TIP3    H224198   4.166   5.034   3.199 -0.1558 -2.1923  1.0576
  903TIP3   OH224199   2.062   1.579  13.961 -0.2358  0.2527  0.2620
  903TIP3    H124200   2.003   1.556  14.033  0.9308  1.5136  1.6495
  903TIP3    H224201   2.005   1.618  13.895 -1.3731 -1.2357  0.3286
  904TIP3   OH224202   6.195   2.463  11.421 -0.4132  0.5080  0.0648
  904TIP3    H124203   6.214   2.446  11.329 -1.9664  0.8786 -0.3442
  904TIP3    H224204   6.117   2.519  11.420  0.8767  2.3995  1.5461
  905TIP3   OH224205   3.729   4.540  13.229  0.3465  0.0062 -0.4872
  905TIP3    H124206   3.799   4.490  13.187 -0.4041 -0.1987 -1.5157
  905TIP3    H224207   3.686   4.586  13.157  0.4760  1.4662  0.3394
  906TIP3   OH224208   3.517   3.418   5.272 -0.3207  0.4315  0.0689
  906TIP3    H124209   3.482   3.359   5.205  0.1752  1.5072 -1.1622
  906TIP3    H224210   3.464   3.401   5.350 -1.7902  0.1080 -0.9832
  907TIP3   OH224211   6.612   4.264   3.812 -0.0745 -0.0287  0.0205
  907TIP3    H124212   6.611   4.351   3.771 -0.2299 -0.0600 -0.0449
  907TIP3    H224213   6.556   4.273   3.889  0.9810  0.2772  0.7472
  908TIP3   OH224214   4.173   1.315  10.505 -0.9578  0.2782 -0.1791
  908TIP3    H124215   4.176   1.405  10.537 -1.0132  0.9083 -1.9377
  908TIP3    H224216   4.091   1.280  10.540 -0.3114  0.4842  1.5972
  909TIP3   OH224217   4.045   6.034   4.341  0.2391  0.0984 -0.2240
  909TIP3    H124218   4.126   6.084   4.350  1.4750 -1.6459 -1.3250
  909TIP3    H224219   4.070   5.943   4.360 -0.9369 -0.8239 -2.8006
  910TIP3   OH224220   5.041   4.267  16.928  0.3396 -0.4337  0.5278
  910TIP3    H124221   5.116   4.323  16.946 -0.9878  1.4331  0.4141
  910TIP3    H224222   5.055   4.236  16.838 -0.1443  1.8004 -0.3580
  911TIP3   OH224223   4.879   4.591  11.139  0.5485  0.0347  0.3452
  911TIP3    H124224   4.897   4.497  11.145 -0.2320 -0.0016  2.7214
  911TIP3    H224225   4.904   4.615  11.050  1.7082 -2.2191  0.0332
  912TIP3   OH224226   1.413   6.189  14.781 -0.1190 -0.0325  0.1428
  912TIP3    H124227   1.343   6.210  14.719 -0.0142 -0.0461  0.0189
  912TIP3    H224228   1.372   6.196  14.867 -0.4625 -0.7551  0.0419
  913TIP3   OH224229   0.940   6.640  12.850  0.2986  0.3668  0.4301
  913TIP3    H124230   0.918   6.587  12.773  1.5452  1.1193 -0.4691
  913TIP3    H224231   0.963   6.576  12.917 -0.4066 -0.2902  0.0502
  914TIP3   OH224232   3.535   5.984   1.756  0.2414 -0.0807 -0.1808
  914TIP3    H124233   3.496   6.009   1.840  0.3619 -0.5762  0.0269
  914TIP3    H224234   3.536   6.065   1.705 -2.0009 -0.2980 -0.5804
  915TIP3   OH224235   2.186   6.496   4.703 -0.4938 -0.6294 -0.1903
  915TIP3    H124236   2.152   6.415   4.665  1.2184 -1.7785  0.6705
  915TIP3    H224237   2.197   6.477   4.796 -2.1764  1.3283  0.4554
  916TIP3   OH224238   5.096   5.059  12.428  0.5694 -0.4535 -0.4037
  916TIP3    H124239   5.000   5.061  12.436  0.4837 -1.5064 -1.0252
  916TIP3    H224240   5.118   5.141  12.385 -0.1235 -0.5079 -0.8685
  917TIP3   OH224241   6.552   0.548  13.999  0.2322 -0.8164  0.0233
  917TIP3    H124242   6.565   0.517  13.910 -2.0880 -2.0632  0.0658
  917TIP3    H224243   6.599   0.631  14.004  1.2026 -1.2306 -2.0466
  918TIP3   OH224244   0.665   5.828   2.411  0.4158  1.0465 -0.1783
  918TIP3    H124245   0.662   5.796   2.321  0.6699 -0.4082  0.3279
  918TIP3    H224246   0.670   5.750   2.465 -0.5527  1.8733  1.1549
  919TIP3   OH224247   1.970   0.193  16.312  0.6052 -0.1711 -0.7196
  919TIP3    H124248   2.062   0.177  16.334 -0.0091 -1.7075  0.9463
  919TIP3    H224249   1.962   0.165  16.221  1.6111 -0.8128 -0.6241
  920TIP3   OH224250   2.567   5.401  11.658  0.0261  0.0066  0.7657
  920TIP3    H124251   2.590   5.340  11.728  0.9763  0.6703  1.0396
  920TIP3    H224252   2.530   5.346  11.589 -1.9263 -0.5430  2.2001
  921TIP3   OH224253   3.242   4.168   1.643  0.5631  0.2011 -0.5898
  921TIP3    H124254   3.249   4.095   1.580 -2.5774  0.8094 -1.7798
  921TIP3    H224255   3.200   4.128   1.720  0.5931  0.3299 -0.5080
  922TIP3   OH224256   1.974   2.997  11.421 -0.0747 -0.0684 -0.4764
  922TIP3    H124257   2.051   3.016  11.368  0.5967 -0.5242  0.3257
  922TIP3    H224258   1.902   2.990  11.358  0.5054  0.5165 -1.2138
  923TIP3   OH224259   5.635   5.023   3.685 -0.1409 -0.3828 -0.1480
  923TIP3    H124260   5.674   4.991   3.604 -0.8372 -3.0880  0.5478
  923TIP3    H224261   5.562   5.078   3.657 -0.5870 -1.5811 -1.3608
  924TIP3   OH224262   5.571   5.545   5.576 -0.1178  0.1871  0.2786
  924TIP3    H124263   5.543   5.550   5.484 -1.0935 -0.2314  0.5521
  924TIP3    H224264   5.505   5.595   5.624  0.0144 -0.1746  0.8408
  925TIP3   OH224265   5.589   1.261   6.220 -0.1393 -0.2090 -0.1087
  925TIP3    H124266   5.552   1.303   6.297 -0.1516  0.7922 -0.6446
  925TIP3    H224267   5.576   1.167   6.234  1.5332 -0.1740  1.9676
  926TIP3   OH224268   3.620   0.392   1.324 -0.9092 -0.2534 -0.0519
  926TIP3    H124269   3.634   0.487   1.322 -0.4649 -0.3164  0.0872
  926TIP3    H224270   3.680   0.358   1.258  0.0708 -0.5786  0.9848
  927TIP3   OH224271   2.701   4.994  14.081 -0.1480  0.0041 -0.0806
  927TIP3    H124272   2.794   5.002  14.100  0.0627 -2.5891  0.1732
  927TIP3    H224273   2.673   4.915  14.128 -2.5178  0.8488  0.0070
  928TIP3   OH224274   3.420   5.467  13.868  0.0839  0.4005 -0.5492
  928TIP3    H124275   3.491   5.491  13.927 -0.8776  1.2293  0.2765
  928TIP3    H224276   3.450   5.386  13.827  1.4445  0.6664 -0.1046
  929TIP3   OH224277   2.510   0.570   0.680 -0.0495  0.0876  0.8351
  929TIP3    H124278   2.488   0.488   0.635  0.2778  0.5555 -0.2000
  929TIP3    H224279   2.605   0.576   0.674 -0.0503  0.4006  1.1541
  930TIP3   OH224280   0.448   2.779  14.608  0.0512 -0.2772  0.5405
  930TIP3    H124281   0.496   2.834  14.669 -0.5884  1.0520 -0.1296
  930TIP3    H224282   0.515   2.731  14.559  0.6591  0.7952  0.3149
  931TIP3   OH224283   4.663   1.962   4.395  0.0485 -0.2506 -0.6989
  931TIP3    H124284   4.645   1.869   4.377 -1.0284 -0.4334  1.1862
  931TIP3    H224285   4.693   1.997   4.311 -1.0593 -1.9456 -1.8357
  932TIP3   OH224286   5.545   1.672   0.932 -0.6284  0.2157 -0.7340
  932TIP3    H124287   5.554   1.676   1.027 -0.9684 -0.3148 -0.6789
  932TIP3    H224288   5.598   1.745   0.900 -0.4967  0.3831 -0.1393
  933TIP3   OH224289   1.325   0.375   0.826  0.4712  0.3402 -0.0618
  933TIP3    H124290   1.361   0.287   0.838 -0.4536 -0.4935 -3.1268
  933TIP3    H224291   1.312   0.384   0.732 -0.3761  3.4204  0.2790
  934TIP3   OH224292   5.814   5.689  15.186  0.0609 -0.1610  0.7234
  934TIP3    H124293   5.805   5.689  15.281 -2.7709 -0.4469  0.5171
  934TIP3    H224294   5.878   5.620  15.168 -2.4408 -3.0249  2.2600
  935TIP3   OH224295   0.411   0.829  12.773  0.1908  0.1779  0.4623
  935TIP3    H124296   0.461   0.877  12.707  0.9143 -0.7518  0.3188
  935TIP3    H224297   0.319   0.847  12.751  0.4376  0.4902 -0.3420
  936TIP3   OH224298   6.741   1.609  14.165  0.0075 -0.1700  0.4525
  936TIP3    H124299   6.817   1.558  14.195 -0.3136  0.0488  1.6349
  936TIP3    H224300   6.727   1.579  14.075  1.2016 -0.5623  0.3834
  937TIP3   OH224301   0.068   6.008   0.337  0.1717  0.1672  0.5067
  937TIP3    H124302   0.106   6.023   0.423 -0.2165  0.0355  0.7041
  937TIP3    H224303   0.143   6.004   0.277  0.5880 -1.8905  1.1474
  938TIP3   OH224304   5.593   2.868  16.233 -0.5489  0.5266  0.8025
  938TIP3    H124305   5.525   2.864  16.300 -1.0633 -0.8759  0.2241
  938TIP3    H224306   5.651   2.795  16.254 -1.4787 -0.7834 -1.0640
  939TIP3   OH224307   5.562   0.043   2.405 -0.2119 -0.0993 -0.5278
  939TIP3    H124308   5.579   0.110   2.471 -2.0197 -1.6047  1.5391
  939TIP3    H224309   5.569  -0.040   2.452 -2.8821 -1.1618 -1.8747
  940TIP3   OH224310   2.796   1.509  11.243 -0.2005 -0.8273 -0.0536
  940TIP3    H124311   2.796   1.452  11.166 -1.5461  0.3184 -0.9458
  940TIP3    H224312   2.888   1.516  11.268  0.5624  0.6838 -3.0132
  941TIP3   OH224313   1.985   5.912   3.917 -0.2055  0.0576  0.5777
  941TIP3    H124314   1.976   5.846   3.848  0.2393  0.6985 -0.0952
  941TIP3    H224315   1.912   5.972   3.904  0.2931  0.5883  0.2141
  942TIP3   OH224316   0.984   0.037  12.230  0.0106 -0.3749  0.0897
  942TIP3    H124317   0.960  -0.032  12.168 -0.5750 -0.2410  0.1576
  942TIP3    H224318   0.942   0.116  12.195  1.0512  0.0410 -0.2340
  943TIP3   OH224319   1.562   2.474  17.073  0.4740  0.3161  0.5532
  943TIP3    H124320   1.542   2.411  17.003  1.3569 -0.4055  0.9403
  943TIP3    H224321   1.657   2.466  17.085  0.7193  2.3155  0.0546
  944TIP3   OH224322   6.663   2.565  15.510  0.1294  0.5573 -0.1199
  944TIP3    H124323   6.732   2.599  15.453 -0.4436  0.2818 -0.9922
  944TIP3    H224324   6.648   2.476  15.477  0.5878 -0.0116  1.1939
  945TIP3   OH224325   1.185   2.349  13.480  0.8529 -0.3014  0.5577
  945TIP3    H124326   1.100   2.394  13.482  0.4150 -1.1293  2.2760
  945TIP3    H224327   1.207   2.343  13.388 -1.6413 -1.3070 -0.0194
  946TIP3   OH224328   3.301   4.800   2.619 -0.0483  0.2326  0.5790
  946TIP3    H124329   3.248   4.807   2.540  1.3894 -0.6232 -0.4820
  946TIP3    H224330   3.387   4.774   2.587  0.5154 -0.2208  2.4478
  947TIP3   OH224331   0.568   3.652  13.754 -0.2831  0.1873 -0.1084
  947TIP3    H124332   0.651   3.687  13.787 -0.9444  1.9200 -0.1990
  947TIP3    H224333   0.571   3.668  13.659 -1.0137  0.9303 -0.0156
  948TIP3   OH224334   1.071   0.997  12.824  0.3939 -0.2496 -1.0805
  948TIP3    H124335   1.025   1.081  12.818  1.3766  0.4710  1.2120
  948TIP3    H224336   1.145   1.005  12.764  0.5765  0.5668 -0.7402
  949TIP3   OH224337   2.891   5.976   0.039 -0.1834 -0.3941 -0.4531
  949TIP3    H124338   2.879   5.900   0.096 -0.2541  0.2361  0.3806
  949TIP3    H224339   2.985   5.992   0.041 -0.2335 -0.1345 -0.2075
  950TIP3   OH224340   2.445   3.485  11.329  0.1073 -0.0195 -0.7009
  950TIP3    H124341   2.527   3.501  11.376  0.4254  1.7927 -1.8078
  950TIP3    H224342   2.463   3.407  11.277  0.4808 -0.7631  0.5327
  951TIP3   OH224343   3.438   2.545  13.778  0.2292 -0.0950  0.0328
  951TIP3    H124344   3.468   2.460  13.746  0.0934 -0.3932  0.6928
  951TIP3    H224345   3.509   2.605  13.756  0.5221 -0.4616 -0.0266
  952TIP3   OH224346   5.193   5.297   3.313 -0.7084  0.2135 -0.3452
  952TIP3    H124347   5.186   5.205   3.288 -1.5846  0.9209 -2.8904
  952TIP3    H224348   5.278   5.325   3.277 -0.3903  0.3927  0.5187
  953TIP3   OH224349   5.515   0.132   5.686 -0.2371  0.3130 -0.5994
  953TIP3    H124350   5.445   0.195   5.704 -0.0579  0.4771 -0.4749
  953TIP3    H224351   5.492   0.094   5.601  0.0331  1.0778 -1.0253
  954TIP3   OH224352   5.773   0.561   6.294  0.2802  0.2432 -0.0187
  954TIP3    H124353   5.799   0.575   6.385  0.8367 -0.0316 -0.1292
  954TIP3    H224354   5.842   0.605   6.243 -0.5690  1.2619 -0.2892
  955TIP3   OH224355   4.609   5.130   5.908 -0.2953  0.2171  0.1044
  955TIP3    H124356   4.591   5.046   5.949 -1.3258 -0.9641 -2.6331
  955TIP3    H224357   4.532   5.183   5.928 -0.4892 -0.1165  0.2488
  956TIP3   OH224358   0.649   5.825  15.528  0.0746  0.6384  0.0866
  956TIP3    H124359   0.590   5.761  15.568  0.7071  0.7760  1.2548
  956TIP3    H224360   0.722   5.773  15.495  0.0371  0.6315  0.0143
  957TIP3   OH224361   2.951   3.981   5.093 -0.2224  0.1577  0.1700
  957TIP3    H124362   2.938   4.051   5.029 -1.4712 -2.3023 -2.4500
  957TIP3    H224363   2.891   4.002   5.164 -1.1647  1.3654 -0.9491
  958TIP3   OH224364   0.437   1.083  14.471 -0.0190 -0.1885 -0.2944
  958TIP3    H124365   0.487   1.084  14.390  0.6098  1.2217  0.0871
  958TIP3    H224366   0.358   1.134  14.452 -0.3708 -0.7351 -0.3179
  959TIP3   OH224367   5.783   3.762  12.117 -0.1594  0.2784 -0.1508
  959TIP3    H124368   5.688   3.757  12.116 -0.2190  0.9297  1.1708
  959TIP3    H224369   5.810   3.728  12.031 -1.6227  1.2451 -1.0055
  960TIP3   OH224370   0.962   4.739  15.513 -0.2448 -0.2993  0.3148
  960TIP3    H124371   0.996   4.755  15.601  0.2761 -0.9332  0.2344
  960TIP3    H224372   0.867   4.738  15.524 -0.2198  0.7104  0.6765
  961TIP3   OH224373   0.655   3.716  11.023  0.0017  0.1800 -0.1621
  961TIP3    H124374   0.678   3.750  10.937  1.4709 -0.9205 -0.2224
  961TIP3    H224375   0.604   3.637  11.006 -1.5313  1.1326 -0.0206
  962TIP3   OH224376   6.383   0.660   0.843  0.0252 -0.7817  0.0608
  962TIP3    H124377   6.369   0.754   0.859  1.8664 -0.4087 -0.4514
  962TIP3    H224378   6.325   0.617   0.906 -1.2414  0.6888 -0.0528
  963TIP3   OH224379   4.246   5.690   2.877 -0.4445  0.3994 -0.3667
  963TIP3    H124380   4.238   5.765   2.937 -0.5527  1.9388 -2.2734
  963TIP3    H224381   4.223   5.725   2.791 -1.3031 -2.0410 -1.1633
  964TIP3   OH224382   4.975   5.674  12.755 -0.4672  0.4053 -0.1754
  964TIP3    H124383   4.906   5.739  12.771 -1.1038 -0.2639 -0.1784
  964TIP3    H224384   4.969   5.614  12.829 -0.8754 -0.5077 -0.9463
  965TIP3   OH224385   3.051   4.783   3.220  0.2432  0.2927 -1.0943
  965TIP3    H124386   3.090   4.796   3.133 -0.4506  0.4831 -1.3831
  965TIP3    H224387   3.047   4.870   3.258 -1.1761  0.4715 -1.6269
  966TIP3   OH224388   5.872   0.101   2.115  0.1247  0.1300  0.6393
  966TIP3    H124389   5.886   0.023   2.167 -2.3739  0.2436  1.5433
  966TIP3    H224390   5.930   0.167   2.153  0.6923 -0.6948  1.2026
  967TIP3   OH224391   0.587   2.858   1.841  0.1677  0.1594  0.2423
  967TIP3    H124392   0.523   2.896   1.902  0.2323 -0.9288  0.9959
  967TIP3    H224393   0.546   2.869   1.755 -1.5566 -1.4954  0.8115
  968TIP3   OH224394   3.691   5.594   6.105  0.6138 -0.3377 -0.1531
  968TIP3    H124395   3.733   5.600   6.019  0.3665  0.7692 -0.2081
  968TIP3    H224396   3.604   5.559   6.087 -0.2826  2.0509 -0.6524
  969TIP3   OH224397   4.248   2.062   0.524  0.3902  0.0895  0.1518
  969TIP3    H124398   4.332   2.051   0.569 -0.5311 -1.9789  1.4534
  969TIP3    H224399   4.272   2.072   0.432  2.2316  3.0298  0.8882
  970TIP3   OH224400   3.432   4.627   4.738 -0.0159  0.3270  0.0044
  970TIP3    H124401   3.472   4.600   4.821  0.0401  1.1373  0.2508
  970TIP3    H224402   3.465   4.564   4.674  2.1720  1.3307  0.0845
  971TIP3   OH224403   5.209   5.416   0.807  0.6947  0.0040 -0.2679
  971TIP3    H124404   5.145   5.484   0.828  0.7109 -0.4147  1.2057
  971TIP3    H224405   5.155   5.338   0.790  0.7423  0.0366 -0.5657
  972TIP3   OH224406   0.196   5.078  11.215 -0.5133  0.2019  0.5822
  972TIP3    H124407   0.182   5.169  11.244  0.2056  0.9446 -1.2742
  972TIP3    H224408   0.122   5.061  11.156 -0.0103 -0.0025  0.0082
  973TIP3   OH224409   6.633   4.975   0.440  0.6469  0.0763 -0.0699
  973TIP3    H124410   6.595   4.919   0.508 -1.4102  2.3950  0.7690
  973TIP3    H224411   6.600   4.938   0.358 -1.3851  0.4648  0.5220
  974TIP3   OH224412   1.838   5.582   5.491 -0.2068 -0.5195  0.0954
  974TIP3    H124413   1.860   5.545   5.576  0.5157 -1.8271 -0.6406
  974TIP3    H224414   1.754   5.626   5.504 -1.2853 -2.7715  0.9068
  975TIP3   OH224415   0.286   0.933  17.149 -0.8657 -0.1622  0.5649
  975TIP3    H124416   0.225   0.914  17.078  0.2972  1.6385 -0.9552
  975TIP3    H224417   0.320   1.020  17.128 -0.0886  0.1624  3.0403
  976TIP3   OH224418   0.936   5.982   6.522 -0.1321  1.0149  0.4121
  976TIP3    H124419   0.966   5.927   6.450  0.4501  3.5243 -1.3425
  976TIP3    H224420   0.841   5.982   6.515 -0.1279  0.3133  0.3571
  977TIP3   OH224421   0.679   4.266   3.700  0.4610 -0.3352  0.1750
  977TIP3    H124422   0.757   4.214   3.682  1.2981  1.1200 -0.5373
  977TIP3    H224423   0.682   4.283   3.794  0.7661 -0.6635  0.2257
  978TIP3   OH224424   0.989   1.467  11.842  0.3005 -0.2869 -0.0248
  978TIP3    H124425   0.969   1.373  11.836 -0.6062 -0.1387  0.6480
  978TIP3    H224426   0.988   1.486  11.936 -0.3645  0.5815 -0.2013
  979TIP3   OH224427   3.632   1.373   1.481  0.6483  0.1681  0.3045
  979TIP3    H124428   3.700   1.429   1.444  1.6085  0.9160  3.0770
  979TIP3    H224429   3.550   1.417   1.459  1.3450  2.1611  1.5249
  980TIP3   OH224430   1.860   3.330  15.168  0.0958  0.2962 -0.0576
  980TIP3    H124431   1.929   3.310  15.105 -1.0006  2.0465 -1.8754
  980TIP3    H224432   1.826   3.244  15.194  2.4629 -0.5593  0.3479
  981TIP3   OH224433   0.322   0.811  11.550  0.0217  0.1759  0.2438
  981TIP3    H124434   0.357   0.723  11.538 -0.5117 -0.2852  1.9802
  981TIP3    H224435   0.397   0.869  11.538  0.4506 -0.5319 -0.4987
  982TIP3   OH224436   2.580   2.219   2.811  0.5603  0.6365 -0.1984
  982TIP3    H124437   2.560   2.211   2.718  1.5102 -1.3336 -0.2586
  982TIP3    H224438   2.667   2.180   2.820  1.1111  2.1361  1.2928
  983TIP3   OH224439   1.823   0.685  14.233  0.3253  0.5392  0.6439
  983TIP3    H124440   1.767   0.622  14.278  1.5356  0.9511  2.8058
  983TIP3    H224441   1.764   0.731  14.172 -0.8188 -1.7577 -0.0310
  984TIP3   OH224442   2.264   5.929  12.314  0.4250 -0.1646 -0.1744
  984TIP3    H124443   2.265   5.835  12.296 -2.3338 -0.4093  0.6305
  984TIP3    H224444   2.353   5.950  12.343  0.2429 -3.2009  2.8642
  985TIP3   OH224445   3.624   1.364  12.675 -0.5476 -0.3919  0.4173
  985TIP3    H124446   3.685   1.309  12.625 -1.0706 -2.7106  2.2398
  985TIP3    H224447   3.676   1.400  12.747 -0.4847  0.5963 -0.1127
  986TIP3   OH224448   2.372   0.994   0.832 -0.1222  0.4192  0.0304
  986TIP3    H124449   2.436   0.943   0.782  0.2422  1.7051 -0.8416
  986TIP3    H224450   2.306   1.020   0.767 -1.0312 -0.0706  0.7331
  987TIP3   OH224451   1.314   6.461  12.918  0.4066  0.0343 -0.0336
  987TIP3    H124452   1.297   6.507  12.836 -1.4256 -0.8599 -0.1759
  987TIP3    H224453   1.391   6.408  12.901 -0.4642 -0.8003 -1.4558
  988TIP3   OH224454   1.462   3.572   4.546  0.4160  0.2892 -0.1869
  988TIP3    H124455   1.434   3.572   4.455  0.2152 -0.5380 -0.1318
  988TIP3    H224456   1.381   3.583   4.596  0.0961 -2.4934 -0.0156
  989TIP3   OH224457   6.460   5.812   5.435 -0.9229  0.6276  0.2530
  989TIP3    H124458   6.456   5.862   5.353  2.4687  0.2058 -0.2623
  989TIP3    H224459   6.454   5.720   5.407 -0.9763  0.5292  0.5923
  990TIP3   OH224460   3.959   2.683  11.916  0.2489 -0.6746  0.7435
  990TIP3    H124461   3.946   2.691  11.821 -1.2117 -0.8976  0.8995
  990TIP3    H224462   3.931   2.767  11.951  1.7551 -0.2389  0.8936
  991TIP3   OH224463   4.609   0.217   2.033  0.4739 -0.1097 -0.4821
  991TIP3    H124464   4.530   0.261   2.063 -0.1169 -1.6364  0.2524
  991TIP3    H224465   4.581   0.163   1.960  0.7807 -0.8421 -0.0669
  992TIP3   OH224466   3.556   2.396  15.384  0.2861 -0.3152  0.3393
  992TIP3    H124467   3.577   2.302  15.386  0.4076 -0.2701  2.0351
  992TIP3    H224468   3.640   2.439  15.396  0.3259  0.0448 -1.1277
  993TIP3   OH224469   4.427   4.098  13.498 -0.6077 -0.3212 -0.3321
  993TIP3    H124470   4.473   4.113  13.581 -1.5214 -1.8516  0.4610
  993TIP3    H224471   4.484   4.037  13.450 -0.0167  0.6618 -0.9000
  994TIP3   OH224472   0.216   6.381  15.338  0.0669 -0.4459  0.4053
  994TIP3    H124473   0.198   6.381  15.432  1.6945  2.2742  0.7525
  994TIP3    H224474   0.299   6.334  15.330 -0.3934 -1.2474  0.2230
  995TIP3   OH224475   5.474   5.064  12.775  0.2248 -0.2337  0.4423
  995TIP3    H124476   5.481   5.102  12.687  0.7717 -1.0625  0.1147
  995TIP3    H224477   5.385   5.029  12.779  0.4682 -0.9405 -0.1058
  996TIP3   OH224478   1.870   3.313  14.438 -0.5581  0.2890  0.9219
  996TIP3    H124479   1.832   3.334  14.353 -1.0881 -0.3797  0.9897
  996TIP3    H224480   1.809   3.251  14.477  0.0643  0.0213  1.4789
  997TIP3   OH224481   5.483   4.630   3.960  0.6269 -0.1026 -0.5355
  997TIP3    H124482   5.390   4.643   3.979  0.9048  1.1387  0.0131
  997TIP3    H224483   5.486   4.547   3.912 -0.4756 -1.5100  1.7491
  998TIP3   OH224484   3.882   0.402  15.247 -0.4424 -0.3359 -0.0251
  998TIP3    H124485   3.894   0.439  15.335 -2.9944  0.7933 -0.0978
  998TIP3    H224486   3.787   0.392  15.238 -0.2810  0.3925 -3.0050
  999TIP3   OH224487   1.912   3.000   0.248  0.3170 -0.6664 -0.3075
  999TIP3    H124488   1.991   3.048   0.225  0.0291  0.2066  0.4932
  999TIP3    H224489   1.943   2.922   0.294  0.6571  0.5912  1.6527
 1000TIP3   OH224490   3.495   0.965  13.525  0.0472  0.5047  0.2210
 1000TIP3    H124491   3.463   0.916  13.449  1.9009 -0.4738  0.0364
 1000TIP3    H224492   3.482   1.057  13.502 -0.7537  0.1762 -0.6676
 1001TIP3   OH224493   4.062   5.519  11.636  0.6853 -0.0344  0.2400
 1001TIP3    H124494   4.078   5.614  11.633  1.8689 -0.2530 -1.4935
 1001TIP3    H224495   3.981   5.508  11.586  0.7893  0.0315  0.0512
 1002TIP3   OH224496   6.040   4.186   6.433 -0.2943  0.2384 -0.0491
 1002TIP3    H124497   6.054   4.245   6.507  1.6682 -0.3625  0.1074
 1002TIP3    H224498   5.995   4.110   6.470  0.6515 -0.0425  0.5518
 1003TIP3   OH224499   5.132   2.861   2.392  0.1790  0.3369 -0.4854
 1003TIP3    H124500   5.176   2.929   2.444  0.5706 -0.1671 -0.1513
 1003TIP3    H224501   5.055   2.838   2.444  0.1955  0.3301 -0.4633
 1004TIP3   OH224502   5.994   1.871  13.809  0.5000 -0.0170 -0.6827
 1004TIP3    H124503   5.906   1.833  13.804  0.1825  0.4439  1.1155
 1004TIP3    H224504   5.983   1.962  13.781  0.6520 -0.3133 -1.7238
 1005TIP3   OH224505   3.240   3.704   2.650 -0.0869  0.1340  0.6120
 1005TIP3    H124506   3.152   3.738   2.667 -0.3837 -0.6721  0.7257
 1005TIP3    H224507   3.298   3.760   2.701 -0.5644  0.4660  0.7950
 1006TIP3   OH224508   2.814   0.296  14.662  0.6768  0.1593  0.2983
 1006TIP3    H124509   2.773   0.210  14.661 -0.1993  0.5660 -1.9347
 1006TIP3    H224510   2.821   0.320  14.754  0.7571 -2.2139  0.9188
 1007TIP3   OH224511   4.364   4.614  10.448  0.0085  0.2010  0.3497
 1007TIP3    H124512   4.297   4.657  10.395 -1.0822 -1.0870  0.6702
 1007TIP3    H224513   4.317   4.580  10.524  1.1645 -0.0083  0.9965
 1008TIP3   OH224514   3.868   3.937   4.200  0.4251 -0.3310  0.6152
 1008TIP3    H124515   3.962   3.932   4.214  0.1589 -4.2957  1.7209
 1008TIP3    H224516   3.849   3.867   4.137 -1.8617 -0.2528  1.1508
 1009TIP3   OH224517   6.267   3.226   4.412 -0.0040  0.5269 -0.0483
 1009TIP3    H124518   6.215   3.205   4.334 -0.1765 -3.3850  0.9881
 1009TIP3    H224519   6.204   3.219   4.485  0.9310  0.3809  0.7594
 1010TIP3   OH224520   0.153   2.348  15.743  0.9857  0.5251 -0.0019
 1010TIP3    H124521   0.213   2.297  15.796  1.5014  1.7885  0.6475
 1010TIP3    H224522   0.070   2.301  15.748  0.7789  1.0887  2.6570
 1011TIP3   OH224523   2.555   0.624   4.875 -0.0858 -0.1947  0.3700
 1011TIP3    H124524   2.476   0.650   4.828 -0.2720 -1.7018 -0.1926
 1011TIP3    H224525   2.606   0.704   4.882 -0.0839  0.1103 -2.3597
 1012TIP3   OH224526   5.646   1.634  10.637 -0.3214  0.6858 -0.1540
 1012TIP3    H124527   5.648   1.730  10.632  1.0028  0.6862  0.2344
 1012TIP3    H224528   5.738   1.609  10.643 -0.7199 -0.5688  0.7487
 1013TIP3   OH224529   3.416   2.087   4.643  0.3628  0.1327 -0.3212
 1013TIP3    H124530   3.372   2.004   4.626 -0.3521  0.5812 -0.6508
 1013TIP3    H224531   3.382   2.116   4.728  1.1268 -0.2424  0.1252
 1014TIP3   OH224532   6.115   2.748  11.039  0.0458  0.3936  0.5526
 1014TIP3    H124533   6.191   2.698  11.066  0.9195  0.8636 -1.0155
 1014TIP3    H224534   6.139   2.840  11.054  0.5078  0.6601 -1.6695
 1015TIP3   OH224535   5.974   1.878   4.506  0.1298 -0.3368 -0.2751
 1015TIP3    H124536   5.989   1.936   4.580 -1.0669 -0.2537 -0.0883
 1015TIP3    H224537   6.060   1.869   4.465  0.9734 -1.0245  1.5776
 1016TIP3   OH224538   4.650   2.153  16.041 -0.3796 -0.8956  0.3796
 1016TIP3    H124539   4.662   2.063  16.009 -0.4938 -0.7838  0.0179
 1016TIP3    H224540   4.585   2.145  16.111 -0.2226 -1.1264  0.4986
 1017TIP3   OH224541   3.395   0.797   0.157 -0.4011  0.2960  0.5312
 1017TIP3    H124542   3.361   0.875   0.201 -0.5760  0.1369  0.6779
 1017TIP3    H224543   3.468   0.768   0.213 -2.3469 -1.5084  2.2324
 1018TIP3   OH224544   0.425   0.541  15.581  0.1283 -0.7309  0.2349
 1018TIP3    H124545   0.456   0.568  15.668 -3.0962  0.5277  1.0483
 1018TIP3    H224546   0.484   0.585  15.520  0.1577  1.3896  1.7343
 1019TIP3   OH224547   6.590   1.468   3.612  0.9963 -0.2720 -0.1865
 1019TIP3    H124548   6.660   1.426   3.662  0.7814 -0.9721 -0.4769
 1019TIP3    H224549   6.563   1.403   3.548 -1.3571 -0.7709  1.2597
 1020TIP3   OH224550   2.477   4.836  16.070 -0.0139  0.1108  0.4221
 1020TIP3    H124551   2.505   4.788  16.148  1.9391 -0.3242 -0.4986
 1020TIP3    H224552   2.493   4.775  15.998 -1.0410  0.7976 -0.4011
 1021TIP3   OH224553   2.357   6.131   0.821  0.3014  0.3557 -0.0305
 1021TIP3    H124554   2.376   6.056   0.764 -2.0567 -0.3654  0.0700
 1021TIP3    H224555   2.305   6.191   0.766 -1.2177  0.0612  1.0347
 1022TIP3   OH224556   0.632   4.148   1.605 -0.4886  0.5305 -0.0383
 1022TIP3    H124557   0.602   4.158   1.514 -1.0576  1.0926  0.2118
 1022TIP3    H224558   0.561   4.101   1.649 -0.8981  1.6289  0.4879
 1023TIP3   OH224559   1.446   2.120  12.301 -0.1958  0.0419  0.1824
 1023TIP3    H124560   1.458   2.208  12.265  1.2882  0.2114  0.9967
 1023TIP3    H224561   1.425   2.065  12.226 -0.5142  0.9903 -0.4274
 1024TIP3   OH224562   1.648   3.207   1.818 -0.1472  0.4563  0.4068
 1024TIP3    H124563   1.675   3.117   1.803  0.3675  0.5467  0.7856
 1024TIP3    H224564   1.610   3.235   1.734 -1.2570 -0.4402  0.5994
 1025TIP3   OH224565   2.473   1.315   1.734  0.1343 -0.7884  0.6194
 1025TIP3    H124566   2.442   1.383   1.674 -0.7807 -0.6649  1.2218
 1025TIP3    H224567   2.520   1.253   1.678  1.4660  0.6171  0.1438
 1026TIP3   OH224568   2.229   5.236   5.184  0.0264 -0.5584 -0.4343
 1026TIP3    H124569   2.223   5.158   5.129 -0.3623 -0.5769 -0.3689
 1026TIP3    H224570   2.178   5.213   5.262 -1.0254  0.1613 -0.8909
 1027TIP3   OH224571   3.583   5.761   0.915  0.1234 -0.2357 -0.8676
 1027TIP3    H124572   3.507   5.766   0.857  0.0763  1.9579 -0.6823
 1027TIP3    H224573   3.633   5.687   0.883 -1.3332 -0.7784 -1.9511
 1028TIP3   OH224574   2.436   3.522  16.571 -0.4455  0.1733  0.4636
 1028TIP3    H124575   2.386   3.603  16.561 -0.3602  0.2414  0.5959
 1028TIP3    H224576   2.408   3.468  16.497 -0.5612  0.2940  0.4176
 1029TIP3   OH224577   4.727   4.416   4.803  0.1132  0.3579  0.2141
 1029TIP3    H124578   4.685   4.431   4.888  1.6178 -1.1181  1.2607
 1029TIP3    H224579   4.805   4.365   4.824  0.7105  0.2950 -2.0352
 1030TIP3   OH224580   6.618   1.271   6.481 -0.5348  1.1216 -0.1332
 1030TIP3    H124581   6.631   1.270   6.386 -0.2833 -2.5273 -0.1179
 1030TIP3    H224582   6.524   1.270   6.493 -0.5598  0.9793 -0.3463
 1031TIP3   OH224583   0.619   3.102  16.544 -0.2131 -0.4540  0.1551
 1031TIP3    H124584   0.657   3.020  16.512 -0.9308 -0.4390 -0.7772
 1031TIP3    H224585   0.561   3.074  16.616 -0.1135 -0.7153  0.1356
 1032TIP3   OH224586   6.377   4.640   1.914 -0.1406 -0.1378 -0.4075
 1032TIP3    H124587   6.370   4.695   1.992  1.7848  0.7808 -0.8767
 1032TIP3    H224588   6.305   4.577   1.924 -0.3921  0.4342  1.7174
 1033TIP3   OH224589   5.865   6.492   5.004  0.1214 -0.6979  0.5339
 1033TIP3    H124590   5.947   6.489   5.052 -0.0613 -1.5880  0.7968
 1033TIP3    H224591   5.834   6.582   5.014  1.0052 -0.3915  0.5264
 1034TIP3   OH224592   5.976   1.817   5.187 -0.1351  0.1379 -0.1602
 1034TIP3    H124593   6.007   1.800   5.098  0.3905 -1.1878  0.2546
 1034TIP3    H224594   6.040   1.877   5.225 -1.4996  2.4209 -1.3507
 1035TIP3   OH224595   2.455   0.934   1.202  0.3517 -0.5264 -0.1079
 1035TIP3    H124596   2.404   0.990   1.261  0.7811  0.6983 -0.8725
 1035TIP3    H224597   2.446   0.846   1.238  0.2296  0.1312  1.5277
 1036TIP3   OH224598   2.105   0.801  13.863 -0.3427  0.4252  0.3467
 1036TIP3    H124599   2.056   0.881  13.881 -0.3811  0.3581  0.5469
 1036TIP3    H224600   2.135   0.810  13.773 -0.8803  0.3854  0.1615
 1037TIP3   OH224601   4.810   2.550   3.863 -0.1684  0.3973 -0.3764
 1037TIP3    H124602   4.894   2.565   3.818  0.4481 -0.7115  0.3707
 1037TIP3    H224603   4.809   2.615   3.933  0.7457 -0.5446  0.5169
 1038TIP3   OH224604   0.466   4.671   3.253  0.2205 -0.1420  0.1753
 1038TIP3    H124605   0.558   4.666   3.278  0.5305  1.6220 -0.5123
 1038TIP3    H224606   0.465   4.645   3.161  0.1793  0.6762 -0.0649
 1039TIP3   OH224607   6.504   6.334   1.369  0.0751 -0.4844 -0.0896
 1039TIP3    H124608   6.582   6.355   1.317  0.2070 -0.3718  0.1526
 1039TIP3    H224609   6.515   6.241   1.389  1.3218  0.0496  1.8963
 1040TIP3   OH224610   0.458   5.669  12.645 -0.2058  0.3839  0.0151
 1040TIP3    H124611   0.448   5.753  12.601  0.1407  0.5228  0.1963
 1040TIP3    H224612   0.376   5.622  12.629 -0.1333  0.4903 -0.6500
 1041TIP3   OH224613   4.086   5.907   5.472 -0.1254 -0.3384 -0.4153
 1041TIP3    H124614   4.067   5.972   5.405 -0.6009 -0.0242  0.0120
 1041TIP3    H224615   4.157   5.944   5.523 -0.6633  0.0366  0.0741
 1042TIP3   OH224616   3.043   3.195   5.550 -0.5055  0.4695 -0.0446
 1042TIP3    H124617   2.966   3.245   5.522 -1.6510 -1.2626 -0.0440
 1042TIP3    H224618   3.037   3.112   5.503  1.0364  0.0680  0.4267
 1043TIP3   OH224619   2.143   1.864   1.659 -0.0191 -0.2996  0.0854
 1043TIP3    H124620   2.049   1.869   1.644 -0.1473  0.0373  0.9634
 1043TIP3    H224621   2.174   1.954   1.651 -0.1696 -0.0293  2.2680
 1044TIP3   OH224622   2.587   3.958   0.366 -0.0776  0.4449 -0.2090
 1044TIP3    H124623   2.619   3.977   0.278  2.4726 -2.2770  0.0483
 1044TIP3    H224624   2.492   3.953   0.356  0.1635  0.1110 -2.8435
 1045TIP3   OH224625   3.218   6.180  15.397  0.2295 -0.3493 -0.0829
 1045TIP3    H124626   3.174   6.118  15.455 -0.9216  0.2383 -0.3052
 1045TIP3    H224627   3.194   6.152  15.309  0.0492  0.1697 -0.1970
 1046TIP3   OH224628   0.022   6.151   3.378 -0.2165  0.1493  0.7332
 1046TIP3    H124629  -0.042   6.221   3.388 -0.9752 -0.3568 -0.4267
 1046TIP3    H224630   0.106   6.196   3.367 -0.6094  0.8611  0.6683
 1047TIP3   OH224631   6.581   5.603   0.990  0.4394 -0.4111 -0.0218
 1047TIP3    H124632   6.582   5.529   1.050  1.9181  1.0419  1.8124
 1047TIP3    H224633   6.488   5.628   0.984  0.3462 -0.0290  2.4097
 1048TIP3   OH224634   3.870   1.137  12.884 -0.0633  0.1610 -0.4242
 1048TIP3    H124635   3.953   1.134  12.836 -0.4825  1.0769 -1.2070
 1048TIP3    H224636   3.861   1.228  12.912  0.9011 -0.6396  2.7092
 1049TIP3   OH224637   5.726   0.467  16.971  0.7784 -0.0895  0.0107
 1049TIP3    H124638   5.741   0.396  17.032  0.0515 -2.7702 -2.8211
 1049TIP3    H224639   5.641   0.503  16.997 -1.2176 -3.5043 -1.5088
 1050TIP3   OH224640   1.695   4.493   2.554 -0.1291 -0.3568 -0.0533
 1050TIP3    H124641   1.734   4.461   2.473  1.8489  0.4843  0.5372
 1050TIP3    H224642   1.603   4.471   2.547  0.4387 -2.3377 -1.5228
 1051TIP3   OH224643   1.611   0.131   4.472  0.8461 -0.8511 -0.0817
 1051TIP3    H124644   1.573   0.119   4.559 -1.3060  0.5272 -0.7725
 1051TIP3    H224645   1.696   0.088   4.476  0.0420 -2.2970  2.1685
 1052TIP3   OH224646   1.728   4.758   5.224  0.1793 -0.3482 -0.7303
 1052TIP3    H124647   1.701   4.703   5.151  0.2018  0.8684 -1.6581
 1052TIP3    H224648   1.765   4.836   5.183 -2.7153  1.7820  0.5741
 1053TIP3   OH224649   0.326   1.418  11.520 -0.0294 -0.1902 -0.1220
 1053TIP3    H124650   0.242   1.443  11.558 -0.0862 -1.8607  0.9144
 1053TIP3    H224651   0.305   1.388  11.432 -0.1073  2.2150 -0.9454
 1054TIP3   OH224652   5.238   3.768  15.928  0.2747  0.1999  0.1669
 1054TIP3    H124653   5.243   3.732  15.839  1.9621  0.1161  0.2726
 1054TIP3    H224654   5.330   3.773  15.956 -0.2939 -0.4940  2.1880
 1055TIP3   OH224655   5.274   5.382   6.076  0.4263  1.0911  0.3242
 1055TIP3    H124656   5.264   5.477   6.084  0.6132  1.0649  0.8508
 1055TIP3    H224657   5.369   5.369   6.066  0.4109  0.9475  0.3752
 1056TIP3   OH224658   4.350   1.892  11.598  0.7503  0.1466 -0.4696
 1056TIP3    H124659   4.302   1.971  11.622  0.9580  0.1994 -0.2255
 1056TIP3    H224660   4.437   1.923  11.575  0.7037  0.0370 -0.7910
 1057TIP3   OH224661   2.635   3.271   2.209  0.7043 -0.6002 -0.4649
 1057TIP3    H124662   2.709   3.264   2.148  0.5970 -0.5744 -0.6001
 1057TIP3    H224663   2.559   3.283   2.152  0.7017  0.2157 -0.3068
 1058TIP3   OH224664   4.606   4.329  11.915 -0.4691 -0.3940 -0.7098
 1058TIP3    H124665   4.614   4.243  11.955  0.0790 -0.2973 -0.6058
 1058TIP3    H224666   4.518   4.359  11.939 -0.0819 -0.2604  0.5888
 1059TIP3   OH224667   3.124   1.908  13.727 -0.1471 -0.9965  0.7958
 1059TIP3    H124668   3.057   1.896  13.795  0.4234 -0.0763  1.5295
 1059TIP3    H224669   3.124   1.825  13.679 -1.5672 -1.1319  1.0079
 1060TIP3   OH224670   3.067   6.040  14.885  0.2779 -0.2024  0.4865
 1060TIP3    H124671   3.108   6.098  14.821 -0.9032 -0.1347 -0.2268
 1060TIP3    H224672   3.040   6.099  14.956  0.6406 -0.1266  0.5604
 1061TIP3   OH224673   2.658   4.403   1.902 -0.1341  0.2904  0.0258
 1061TIP3    H124674   2.587   4.361   1.950 -0.2515  0.8193  0.3078
 1061TIP3    H224675   2.737   4.382   1.952 -0.3314  1.3606  0.7871
 1062TIP3   OH224676   3.537   5.148   2.320 -0.1666 -1.0416  0.1269
 1062TIP3    H124677   3.464   5.187   2.368 -0.1071 -0.7492 -0.0135
 1062TIP3    H224678   3.592   5.223   2.296 -0.1541 -1.1907 -0.3241
 1063TIP3   OH224679   3.260   1.872  14.414 -0.9374 -0.1996  0.4268
 1063TIP3    H124680   3.323   1.942  14.401 -1.7062  0.4200 -0.0485
 1063TIP3    H224681   3.189   1.912  14.465 -1.3670 -0.6383  0.1854
 1064TIP3   OH224682   3.850   1.412  12.995  0.2742 -0.1802  0.2089
 1064TIP3    H124683   3.820   1.488  13.046 -1.0459 -0.4566 -0.1281
 1064TIP3    H224684   3.936   1.437  12.964 -0.1943  1.2487  0.0065
 1065TIP3   OH224685   6.800   0.935   3.047  0.2076  0.1097 -0.3190
 1065TIP3    H124686   6.731   0.927   2.982 -0.2416  0.1515  0.1473
 1065TIP3    H224687   6.831   1.025   3.038 -0.4414  0.3777  0.1090
 1066TIP3   OH224688   6.394   6.701  12.368  0.2328 -0.5978 -0.1664
 1066TIP3    H124689   6.374   6.613  12.336  0.9909 -0.9096  0.1996
 1066TIP3    H224690   6.414   6.688  12.461  1.4224 -0.1904 -0.3702
 1067TIP3   OH224691   6.113   2.371  15.474  0.1298  0.1143  0.5235
 1067TIP3    H124692   6.203   2.338  15.464 -0.1075 -0.0227 -1.4641
 1067TIP3    H224693   6.091   2.406  15.387 -0.6661  2.9107  1.8153
 1068TIP3   OH224694   5.764   6.552   4.532  0.4722  0.3159 -0.0502
 1068TIP3    H124695   5.801   6.475   4.488  0.4496  0.4157 -0.2471
 1068TIP3    H224696   5.836   6.588   4.584  0.5710  0.3437 -0.2053
 1069TIP3   OH224697   3.848   4.078   2.120  0.2721 -0.2966  0.2401
 1069TIP3    H124698   3.913   4.012   2.098 -1.1171 -1.4142 -0.6815
 1069TIP3    H224699   3.803   4.043   2.197  0.4285  0.2236  0.5693
 1070TIP3   OH224700   3.483   0.697   3.549 -0.2809 -0.0735 -0.1608
 1070TIP3    H124701   3.436   0.780   3.546 -0.8172 -0.3564  0.1721
 1070TIP3    H224702   3.414   0.630   3.546  0.0279 -0.4827  1.3500
 1071TIP3   OH224703   1.259   6.587  12.683  0.3229 -0.3409 -0.3232
 1071TIP3    H124704   1.307   6.651  12.629  1.1258  0.5571  1.3801
 1071TIP3    H224705   1.170   6.621  12.686  0.0005 -0.9803 -1.9365
 1072TIP3   OH224706   5.370   6.739  15.739  0.3574  0.1527  0.3478
 1072TIP3    H124707   5.302   6.806  15.736 -0.8504 -1.0662 -0.7155
 1072TIP3    H224708   5.396   6.735  15.831  0.0574  1.6815  0.5066
 1073TIP3   OH224709   5.099   5.204   6.748  0.1019  0.6281 -0.0566
 1073TIP3    H124710   5.114   5.207   6.654 -2.0677 -1.2583 -0.5300
 1073TIP3    H224711   5.008   5.234   6.759  0.2008  0.4701  1.3659
 1074TIP3   OH224712   2.072   6.105  11.286  0.5317  0.0288 -0.6969
 1074TIP3    H124713   2.165   6.082  11.291  0.3383 -0.8353 -0.9266
 1074TIP3    H224714   2.057   6.161  11.362  0.4842 -2.6708  1.3905
 1075TIP3   OH224715   0.915   4.583  13.177 -0.4255  0.0917  0.4936
 1075TIP3    H124716   0.887   4.513  13.237  1.6560 -0.8189  0.4573
 1075TIP3    H224717   0.840   4.598  13.120 -1.7377 -0.4217  2.0694
 1076TIP3   OH224718   4.072   6.058  11.877  0.5900 -0.0606 -0.2410
 1076TIP3    H124719   3.978   6.044  11.860  0.7536  0.2711 -1.5008
 1076TIP3    H224720   4.102   6.110  11.802  0.9697  3.1752  2.0811
 1077TIP3   OH224721   1.061   4.785  16.632 -0.2917 -0.5076 -0.1458
 1077TIP3    H124722   1.039   4.743  16.548 -1.4352 -1.0537  0.4199
 1077TIP3    H224723   0.982   4.832  16.657 -0.0183 -0.5075  0.7332
 1078TIP3   OH224724   5.477   2.882   5.595 -0.1294  0.0951  0.0434
 1078TIP3    H124725   5.405   2.945   5.600  0.2290  0.5815 -0.8520
 1078TIP3    H224726   5.531   2.900   5.672  0.3312  1.3339 -0.5613
 1079TIP3   OH224727   0.138   2.849   5.455 -0.2564 -0.0520 -0.0351
 1079TIP3    H124728   0.143   2.867   5.549  0.8373  0.4287 -0.1739
 1079TIP3    H224729   0.194   2.917   5.415  0.2236 -0.9662 -0.9374
 1080TIP3   OH224730   4.861   4.343  13.503 -0.6886  0.2871 -0.7214
 1080TIP3    H124731   4.836   4.434  13.514  1.4338  1.0637 -2.0909
 1080TIP3    H224732   4.812   4.313  13.427 -0.3423  0.7005 -1.1098
 1081TIP3   OH224733   3.176   5.924   4.785  0.2423  0.2258 -0.0376
 1081TIP3    H124734   3.180   5.975   4.866 -0.4568  0.0698  0.1000
 1081TIP3    H224735   3.101   5.961   4.738 -0.1987 -0.5869  0.0090
 1082TIP3   OH224736   6.750   0.018  10.991 -1.3978 -0.0836  0.1291
 1082TIP3    H124737   6.728   0.025  11.084  0.6207 -0.3942  0.6544
 1082TIP3    H224738   6.842  -0.009  10.990 -1.4387 -0.2273 -1.9618
 1083TIP3   OH224739   2.999   5.035  14.266 -0.6096 -0.5782 -0.4103
 1083TIP3    H124740   2.945   5.105  14.304 -0.3971 -0.0875 -0.9996
 1083TIP3    H224741   3.026   4.982  14.341  2.3210  2.1199  0.5580
 1084TIP3   OH224742   3.108   1.368   2.801 -0.6040  0.8484 -0.5686
 1084TIP3    H124743   3.061   1.285   2.814 -0.6176  0.9578  0.0668
 1084TIP3    H224744   3.082   1.422   2.875  0.0076  1.1526 -0.5777
 1085TIP3   OH224745   3.241   1.389  16.206  0.5908 -0.3367 -0.0833
 1085TIP3    H124746   3.327   1.370  16.168  1.1915  2.7051 -0.3967
 1085TIP3    H224747   3.227   1.482  16.188 -2.6704 -0.7155  0.2038
 1086TIP3   OH224748   6.007   3.295   2.487 -0.0791  0.5292  0.3034
 1086TIP3    H124749   5.964   3.231   2.430 -0.7420  0.1191  1.2532
 1086TIP3    H224750   6.091   3.312   2.445  0.9090 -2.3813  0.9877
 1087TIP3   OH224751   3.931   6.774   5.959 -0.1971  0.2478  0.1407
 1087TIP3    H124752   3.869   6.815   5.898 -0.2904 -0.6232 -0.3652
 1087TIP3    H224753   3.984   6.716   5.904  0.0825 -0.1296  0.8017
 1088TIP3   OH224754   2.085   2.712  12.779 -0.3588 -0.0807  0.1229
 1088TIP3    H124755   2.122   2.755  12.856  0.3727  0.0436 -0.2908
 1088TIP3    H224756   1.995   2.693  12.804 -0.0763 -0.2175  1.0827
 1089TIP3   OH224757   4.273   0.052  15.632 -0.9897  0.0546  0.3726
 1089TIP3    H124758   4.352   0.091  15.670 -1.6583  0.1503  1.7019
 1089TIP3    H224759   4.305  -0.008  15.565  0.1916  0.4219  0.6076
 1090TIP3   OH224760   4.949   3.640  16.778 -0.8215  0.4055 -0.3448
 1090TIP3    H124761   5.009   3.610  16.709  0.1914  0.5179  0.4910
 1090TIP3    H224762   4.931   3.731  16.755  1.2141  1.0870  0.7309
 1091TIP3   OH224763   3.532   1.876  16.387  0.1692  0.1678 -0.3096
 1091TIP3    H124764   3.572   1.920  16.313 -0.1549  1.8506  0.4832
 1091TIP3    H224765   3.550   1.933  16.462 -0.5192 -0.8985  0.6941
 1092TIP3   OH224766   1.318   5.924  12.589  0.3427 -0.4278  0.4089
 1092TIP3    H124767   1.301   5.832  12.608 -2.2556 -0.1617 -0.5558
 1092TIP3    H224768   1.296   5.935  12.497 -2.1032  1.7715  1.2137
 1093TIP3   OH224769   3.647   3.912   5.880 -0.8240 -0.3492 -0.2966
 1093TIP3    H124770   3.703   3.976   5.924 -1.5522 -0.7019  1.1598
 1093TIP3    H224771   3.568   3.961   5.856 -1.0363 -0.5005  0.0878
 1094TIP3   OH224772   6.252   5.853  12.393  0.1416  0.3623 -0.0058
 1094TIP3    H124773   6.272   5.928  12.449  2.3458 -1.0557  1.2056
 1094TIP3    H224774   6.326   5.849  12.331  1.8330 -2.7036  2.0651
 1095TIP3   OH224775   4.566   1.444  14.452 -0.3451  0.2561  0.0170
 1095TIP3    H124776   4.582   1.436  14.358 -0.2376  0.0812  0.0499
 1095TIP3    H224777   4.544   1.537  14.465 -0.3236  0.2877 -0.1752
 1096TIP3   OH224778   2.537   5.654   4.768 -0.3098  0.6742 -0.9053
 1096TIP3    H124779   2.503   5.672   4.856 -1.8611  1.7166 -1.6964
 1096TIP3    H224780   2.621   5.610   4.783 -1.0526 -0.1145  1.0963
 1097TIP3   OH224781   1.923   1.167  15.971 -0.1250 -0.5676  0.0587
 1097TIP3    H124782   1.987   1.181  16.041 -0.5640 -2.0321  0.7839
 1097TIP3    H224783   1.969   1.191  15.891  0.7588  0.0694  0.7520
 1098TIP3   OH224784   2.485   5.442  17.069 -0.3381  0.3128 -0.3210
 1098TIP3    H124785   2.390   5.432  17.070 -0.2735 -0.3936 -0.4382
 1098TIP3    H224786   2.511   5.413  16.981  0.2868 -2.6285  0.7709
 1099TIP3   OH224787   1.642   4.210  12.563 -0.0422  0.3553 -1.1992
 1099TIP3    H124788   1.561   4.248  12.597 -0.1721 -0.3387 -0.7250
 1099TIP3    H224789   1.704   4.216  12.635 -0.1178 -0.5039 -1.0647
 1100TIP3   OH224790   0.345   2.168  15.851  0.3601 -0.5876 -0.6997
 1100TIP3    H124791   0.431   2.209  15.839  0.5149 -1.1452 -1.4992
 1100TIP3    H224792   0.345   2.095  15.790 -1.1134  0.0826 -1.5249
 1101TIP3   OH224793   5.207   2.645  16.208  0.3308  0.2712 -0.3843
 1101TIP3    H124794   5.292   2.614  16.239 -0.3866 -0.3626  1.0325
 1101TIP3    H224795   5.177   2.576  16.148  0.3364 -0.0401 -0.0362
 1102TIP3   OH224796   1.279   3.332  12.235 -0.1271 -0.7189  0.0127
 1102TIP3    H124797   1.289   3.237  12.230 -1.0390 -0.8708  0.7651
 1102TIP3    H224798   1.346   3.360  12.297 -0.9814 -1.1003  1.1356
 1103TIP3   OH224799   1.732   0.831  12.145 -0.5596 -0.4470 -0.5425
 1103TIP3    H124800   1.698   0.801  12.229  1.0672  0.7606  0.5924
 1103TIP3    H224801   1.744   0.751  12.094 -2.0933 -1.1415  0.1484
 1104TIP3   OH224802   5.449   6.426  12.577 -0.6588  0.0601  0.4904
 1104TIP3    H124803   5.373   6.477  12.604 -2.7278 -2.7578  0.2273
 1104TIP3    H224804   5.418   6.374  12.503  1.4658 -1.2765  0.4910
 1105TIP3   OH224805   6.314   5.791  15.850  0.2069 -0.3239 -0.2558
 1105TIP3    H124806   6.390   5.734  15.839 -0.7675 -1.9560  1.1971
 1105TIP3    H224807   6.343   5.877  15.818  2.3272 -1.1503 -0.6173
 1106TIP3   OH224808   6.345   0.313  14.290  0.8668  0.1531  0.2922
 1106TIP3    H124809   6.414   0.268  14.241  2.5616 -0.9973  3.5992
 1106TIP3    H224810   6.386   0.395  14.319  0.9931 -0.6746  2.5402
 1107TIP3   OH224811   2.124   0.193   5.869 -0.1678  0.1029  0.0360
 1107TIP3    H124812   2.200   0.134   5.866  0.2138  0.5982  0.0492
 1107TIP3    H224813   2.153   0.272   5.823 -0.3157  0.7125  0.9853
 1108TIP3   OH224814   5.389   4.426  15.022 -0.2131  0.1641 -0.1092
 1108TIP3    H124815   5.384   4.512  15.063 -0.9177  0.4934 -0.8607
 1108TIP3    H224816   5.300   4.410  14.990 -0.6298 -1.8152  1.9598
 1109TIP3   OH224817   3.131   6.469  16.801 -0.2796  0.2915 -0.4085
 1109TIP3    H124818   3.049   6.510  16.775 -0.5128 -0.1680 -0.3990
 1109TIP3    H224819   3.138   6.486  16.895 -1.0580 -0.8917 -0.1377
 1110TIP3   OH224820   4.684   6.517   5.942  0.0589 -0.0610  0.3301
 1110TIP3    H124821   4.621   6.452   5.972  0.2085 -0.4922 -0.2910
 1110TIP3    H224822   4.640   6.601   5.957 -1.8592 -0.4496 -2.7716
 1111TIP3   OH224823   0.592   0.021   4.812  0.5272  0.0815 -0.1960
 1111TIP3    H124824   0.575   0.114   4.796  0.1167  0.2273  1.0376
 1111TIP3    H224825   0.506  -0.021   4.806  0.6824 -0.1876 -0.5495
 1112TIP3   OH224826   3.816   1.516  15.646  0.2673  0.1348  0.3712
 1112TIP3    H124827   3.831   1.587  15.709  3.5854  1.2394 -1.5509
 1112TIP3    H224828   3.827   1.436  15.698 -2.1425  0.9461  2.2544
 1113TIP3   OH224829   6.318   1.211   1.690  0.7220 -0.2853 -0.2226
 1113TIP3    H124830   6.253   1.281   1.687  0.7619 -0.2818 -1.1432
 1113TIP3    H224831   6.374   1.234   1.764  0.3649  0.3235 -0.1379
 1114TIP3   OH224832   5.176   6.363  13.947  0.3805 -0.2900  0.6976
 1114TIP3    H124833   5.234   6.349  13.873 -0.0913  0.9839  0.0653
 1114TIP3    H224834   5.098   6.311  13.928 -0.1579  0.8203 -0.2114
 1115TIP3   OH224835   3.714   0.749   1.609  0.4451 -0.0628  0.3465
 1115TIP3    H124836   3.742   0.681   1.549 -0.3505  0.0545 -0.1664
 1115TIP3    H224837   3.787   0.810   1.614  0.7215 -0.3666 -0.0656
 1116TIP3   OH224838   4.654   0.320   5.399  0.3351 -0.4621 -0.0043
 1116TIP3    H124839   4.650   0.229   5.431  1.5287  0.1361  1.9324
 1116TIP3    H224840   4.719   0.317   5.328 -1.4987 -1.5903 -1.6779
 1117TIP3   OH224841   1.353   1.180   0.983  0.1664  0.6883  0.3584
 1117TIP3    H124842   1.295   1.232   1.038 -0.5226 -0.3786  0.6364
 1117TIP3    H224843   1.374   1.103   1.035  1.4199  0.8134  0.0560
 1118TIP3   OH224844   2.371   4.706   2.524  0.0512  0.1721  0.7484
 1118TIP3    H124845   2.415   4.773   2.577  1.0516  0.2054 -0.1125
 1118TIP3    H224846   2.351   4.636   2.586  3.0780 -0.7009  0.8069
 1119TIP3   OH224847   1.619   5.770  12.021  0.3512 -0.4550 -0.0382
 1119TIP3    H124848   1.563   5.706  12.065 -2.1688  2.2157  0.8092
 1119TIP3    H224849   1.645   5.728  11.940 -2.2841 -2.0931 -0.0949
 1120TIP3   OH224850   4.341   0.290   6.338 -0.1079  0.2171 -0.1627
 1120TIP3    H124851   4.428   0.284   6.379 -1.4737 -1.0791  2.6708
 1120TIP3    H224852   4.318   0.383   6.346  0.5865  0.3818 -0.0086
 1121TIP3   OH224853   2.915   0.972  11.637  0.4919 -0.0213 -0.3382
 1121TIP3    H124854   2.946   1.051  11.682  0.0881 -0.2637  0.3685
 1121TIP3    H224855   2.978   0.959  11.566  1.9775 -0.4646  1.0171
 1122TIP3   OH224856   0.260   5.858   6.497 -0.4470  0.1008 -0.4129
 1122TIP3    H124857   0.306   5.815   6.569  0.1132 -0.1473 -0.9187
 1122TIP3    H224858   0.261   5.951   6.520 -0.7960 -0.0415  0.1932
 1123TIP3   OH224859   2.828   0.477  14.018 -0.2747  0.0016  0.0334
 1123TIP3    H124860   2.762   0.448  14.081  0.0566 -1.6495 -0.3368
 1123TIP3    H224861   2.879   0.398  13.999  1.1135  1.0074 -0.5175
 1124TIP3   OH224862   0.283   2.907  14.011 -0.6407  0.4029 -0.6632
 1124TIP3    H124863   0.286   3.000  13.989  1.3131  0.5656  0.1312
 1124TIP3    H224864   0.364   2.871  13.975  0.1443 -0.3261  1.7094
 1125TIP3   OH224865   6.641   0.454  16.227 -0.3550 -0.1549  0.5420
 1125TIP3    H124866   6.636   0.426  16.318  2.4247 -0.9590  0.4791
 1125TIP3    H224867   6.665   0.375  16.178 -1.4861  0.3356 -0.8524
 1126TIP3   OH224868   2.168   3.324  17.127 -0.1734  0.0372  0.2609
 1126TIP3    H124869   2.173   3.404  17.074  0.9162 -0.2912 -0.1553
 1126TIP3    H224870   2.153   3.254  17.064 -1.9290 -0.0033  0.7020
 1127TIP3   OH224871   3.767   5.731  16.173  0.3974 -0.0178 -0.6037
 1127TIP3    H124872   3.698   5.785  16.210 -0.0942  1.2129 -3.1902
 1127TIP3    H224873   3.779   5.660  16.236 -1.1983  1.3332  1.2724
 1128TIP3   OH224874   1.210   0.079  15.815  0.1795  0.2647  0.3142
 1128TIP3    H124875   1.269   0.154  15.815  0.0814  0.3509  1.2573
 1128TIP3    H224876   1.132   0.110  15.860 -0.7771  0.2896 -1.3391
 1129TIP3   OH224877   3.360   5.074  17.003 -0.1388 -0.7189 -0.9743
 1129TIP3    H124878   3.348   5.050  17.095 -0.6223 -0.9113 -1.0838
 1129TIP3    H224879   3.450   5.047  16.983  0.1015 -0.3116 -0.4461
 1130TIP3   OH224880   5.864   4.805   0.933  0.4901  0.4649  0.2911
 1130TIP3    H124881   5.849   4.766   0.847  3.6236  0.4899 -0.3189
 1130TIP3    H224882   5.889   4.895   0.915 -1.9314  1.4173  1.4423
 1131TIP3   OH224883   1.365   4.648  15.675  0.1425  0.3421 -0.1982
 1131TIP3    H124884   1.383   4.608  15.590  0.1040  1.5153 -0.7587
 1131TIP3    H224885   1.392   4.739  15.666 -0.5845  0.6713  0.7976
 1132TIP3   OH224886   4.008   0.574   0.381  0.2723  0.4931 -0.6817
 1132TIP3    H124887   4.019   0.484   0.413 -1.4380  0.4144 -0.2691
 1132TIP3    H224888   3.942   0.567   0.313  0.1719  1.4465 -0.6847
 1133TIP3   OH224889   2.976   1.168   3.678  0.0349 -0.0055  0.1693
 1133TIP3    H124890   2.948   1.259   3.685  0.2494  0.0968 -0.2719
 1133TIP3    H224891   3.039   1.168   3.606  0.8877 -0.3036  0.9086
 1134TIP3   OH224892   1.636   2.748  12.283 -0.1758  0.5809 -0.4096
 1134TIP3    H124893   1.640   2.826  12.228 -1.5104 -0.1302 -1.5362
 1134TIP3    H224894   1.568   2.694  12.244  0.7264 -1.1622  0.3508
 1135TIP3   OH224895   3.838   3.307  13.133 -0.1238  0.1233 -0.1498
 1135TIP3    H124896   3.754   3.334  13.170 -0.6531 -0.7715 -0.6579
 1135TIP3    H224897   3.895   3.295  13.209 -0.9905 -1.0018  0.3362
 1136TIP3   OH224898   3.488   6.652  14.091 -0.4197  0.3184  0.3229
 1136TIP3    H124899   3.563   6.655  14.150 -1.3697 -0.9105  1.6313
 1136TIP3    H224900   3.514   6.592  14.021  0.8449  2.0573 -0.7335
 1137TIP3   OH224901   6.261   2.596   1.377 -0.0872 -0.2530  0.2026
 1137TIP3    H124902   6.346   2.640   1.384 -0.0747 -0.5206  2.0797
 1137TIP3    H224903   6.203   2.649   1.432 -1.3806  0.4821 -1.8419
 1138TIP3   OH224904   0.534   0.251   5.018  0.3915  0.3424  0.2381
 1138TIP3    H124905   0.465   0.250   4.951  0.8605  1.0424 -0.2733
 1138TIP3    H224906   0.490   0.280   5.098  0.4885  2.8562 -0.5717
 1139TIP3   OH224907   1.284   5.133  15.026  0.2309 -0.2340  0.5139
 1139TIP3    H124908   1.211   5.154  15.084 -0.6245 -0.4258 -0.4733
 1139TIP3    H224909   1.262   5.046  14.991  1.8256 -1.0805  1.5957
 1140TIP3   OH224910   1.504   5.455  12.041  0.7048 -0.1952 -0.2893
 1140TIP3    H124911   1.482   5.410  12.123 -0.0277 -0.3260 -0.5492
 1140TIP3    H224912   1.566   5.397  11.997  1.2612 -0.0263  0.2644
 1141TIP3   OH224913   6.766   1.948   4.992  0.2183 -0.0256 -0.0825
 1141TIP3    H124914   6.698   1.909   4.937  2.4119 -0.8964 -2.2764
 1141TIP3    H224915   6.806   2.015   4.936  1.2657  0.3787  1.1407
 1142TIP3   OH224916   4.148   2.059   1.449 -0.1897  0.7066  0.4662
 1142TIP3    H124917   4.095   2.088   1.523 -1.4660 -0.3340 -0.0122
 1142TIP3    H224918   4.091   2.071   1.373  0.3474 -0.2128 -0.0854
 1143TIP3   OH224919   4.252   1.471   1.143  0.0399 -0.2368 -0.4420
 1143TIP3    H124920   4.307   1.416   1.199  0.7656 -0.2134 -1.1348
 1143TIP3    H224921   4.311   1.503   1.074 -0.6523  0.4289 -0.7366
 1144TIP3   OH224922   4.462   5.687   1.404  0.1274 -0.0321 -0.2819
 1144TIP3    H124923   4.411   5.614   1.438  0.4335 -0.1681 -0.1173
 1144TIP3    H224924   4.399   5.759   1.397 -0.2191 -0.3661 -0.6322
 1145TIP3   OH224925   6.146   5.278  13.887  0.5198 -0.0046 -0.0938
 1145TIP3    H124926   6.102   5.293  13.971  1.4326 -0.0475  0.4001
 1145TIP3    H224927   6.087   5.316  13.822  0.8250  2.0492  0.7645
 1146TIP3   OH224928   0.250   5.633  10.740  0.0485 -0.0269  0.2473
 1146TIP3    H124929   0.257   5.595  10.653 -0.2482 -0.0982  0.2538
 1146TIP3    H224930   0.299   5.574  10.797 -0.7589 -0.6244  0.3264
 1147TIP3   OH224931   1.929   2.789   2.872 -0.3025  0.5253 -0.4527
 1147TIP3    H124932   1.967   2.841   2.943  0.8179 -2.6526  1.3591
 1147TIP3    H224933   2.005   2.759   2.821 -0.9907  1.3067 -1.9773
 1148TIP3   OH224934   2.073   6.386   3.182  0.2020 -0.3878 -0.2447
 1148TIP3    H124935   2.113   6.314   3.231 -0.5133 -1.2572 -0.9103
 1148TIP3    H224936   2.051   6.348   3.097  0.5183  0.8358 -0.8848
 1149TIP3   OH224937   0.334   3.860   3.055  0.1792  0.1276  0.0601
 1149TIP3    H124938   0.302   3.907   2.978 -1.9272  0.0786  0.8773
 1149TIP3    H224939   0.338   3.927   3.123  1.9874  0.1604 -0.0620
 1150TIP3   OH224940   1.266   3.123  13.928  0.2006 -0.6612 -0.4273
 1150TIP3    H124941   1.309   3.071  13.995 -1.3924 -1.9734 -0.3870
 1150TIP3    H224942   1.336   3.177  13.890  1.2414 -0.4193  1.7745
 1151TIP3   OH224943   0.811   6.271  15.070  0.0973 -0.1578  0.3112
 1151TIP3    H124944   0.862   6.335  15.121 -1.1546 -0.1024  1.5171
 1151TIP3    H224945   0.771   6.323  15.001  2.1109 -0.2949 -1.0013
 1152TIP3   OH224946   6.522   0.749   3.426 -0.1386 -0.0319 -0.0288
 1152TIP3    H124947   6.571   0.719   3.350 -0.0674  0.7318 -0.2900
 1152TIP3    H224948   6.588   0.764   3.494  0.2251  2.6281 -0.9019
 1153TIP3   OH224949   0.220   0.575   5.086 -0.0675 -0.1309  0.8333
 1153TIP3    H124950   0.305   0.553   5.049 -0.0730  0.2880  0.5622
 1153TIP3    H224951   0.205   0.666   5.060 -0.7059 -0.2747  0.6690
 1154TIP3   OH224952   1.284   5.794  11.293 -0.0540  0.7574 -0.0779
 1154TIP3    H124953   1.354   5.732  11.274 -1.1773 -0.2133 -1.1559
 1154TIP3    H224954   1.221   5.782  11.222 -0.8475  2.3208  0.3261
 1155TIP3   OH224955   3.562   0.694   5.000  0.1200  0.2357  0.1613
 1155TIP3    H124956   3.611   0.684   4.918  2.4026  2.3712  1.1873
 1155TIP3    H224957   3.614   0.646   5.064 -0.1088  1.0044  0.9228
 1156TIP3   OH224958   2.998   3.059  17.237 -0.1133  0.2057 -0.0080
 1156TIP3    H124959   2.960   2.991  17.183 -0.6387 -0.0892  0.7333
 1156TIP3    H224960   2.954   3.051  17.321 -0.1077  1.3944  0.1157
 1157TIP3   OH224961   5.827   2.120  14.507  0.0249  0.6991  0.0440
 1157TIP3    H124962   5.762   2.053  14.529  1.9860 -1.5190 -0.7195
 1157TIP3    H224963   5.893   2.113  14.576  2.2315 -0.9148 -2.1483
 1158TIP3   OH224964   4.264   0.719   5.026 -0.4381  0.5098 -0.8094
 1158TIP3    H124965   4.240   0.766   5.106 -1.8488 -2.5007  0.6106
 1158TIP3    H224966   4.186   0.670   5.002  1.0926 -1.4768 -1.9419
 1159TIP3   OH224967   4.034   3.463   1.214 -0.0235 -0.5492 -0.6414
 1159TIP3    H124968   3.949   3.482   1.173 -0.5175 -1.5534 -0.0865
 1159TIP3    H224969   4.015   3.394   1.278  1.5525 -2.0536 -1.7797
 1160TIP3   OH224970   3.285   5.093   6.047 -0.6723 -0.0595 -0.0249
 1160TIP3    H124971   3.312   5.182   6.028  0.4027 -0.2003  0.7993
 1160TIP3    H224972   3.189   5.099   6.057 -0.6559  0.9106 -0.3995
 1161TIP3   OH224973   0.706   0.262  14.868 -0.7392 -0.0699  0.0612
 1161TIP3    H124974   0.789   0.273  14.914  0.3251 -0.9337 -1.5934
 1161TIP3    H224975   0.652   0.210  14.927  0.8540 -1.7950  0.0299
 1162TIP3   OH224976   5.192   4.087  15.546  0.4934 -0.4683 -0.6007
 1162TIP3    H124977   5.180   4.024  15.475  0.1260  0.3637 -1.2961
 1162TIP3    H224978   5.112   4.081  15.598  1.3115 -2.0218  0.5290
 1163TIP3   OH224979   5.034   4.112   2.211  0.4312  0.2383 -0.4400
 1163TIP3    H124980   5.092   4.187   2.196  2.9561 -1.2884  1.2356
 1163TIP3    H224981   5.083   4.037   2.176 -1.1031 -0.9053 -0.1642
 1164TIP3   OH224982   2.877   5.805  15.362  1.2112  0.0220 -0.3547
 1164TIP3    H124983   2.920   5.755  15.432  0.1235  0.4334  0.6420
 1164TIP3    H224984   2.840   5.881  15.407  0.3288  0.1935 -1.3539
 1165TIP3   OH224985   0.007   5.530  10.819  0.1920 -0.3496 -0.0553
 1165TIP3    H124986  -0.063   5.590  10.795 -1.1036 -1.2009  1.4777
 1165TIP3    H224987   0.086   5.567  10.779 -0.5103  2.5470  1.1473
 1166TIP3   OH224988   1.608   0.979   2.040  0.4944 -0.6052  0.5460
 1166TIP3    H124989   1.629   0.983   2.133  2.5646 -0.6499  0.0984
 1166TIP3    H224990   1.679   1.028   1.997  0.3163 -1.7704 -1.1142
 1167TIP3   OH224991   3.885   1.789   5.751  0.6816  0.0304  0.1547
 1167TIP3    H124992   3.870   1.759   5.840 -0.3769  1.6486  0.5527
 1167TIP3    H224993   3.970   1.751   5.726  0.4572 -1.3190  1.4351
 1168TIP3   OH224994   3.905   1.640  11.285  0.3147 -0.1904  0.6672
 1168TIP3    H124995   3.990   1.684  11.287  1.1184 -1.6782 -0.0499
 1168TIP3    H224996   3.888   1.618  11.376  0.7344  0.0608  0.8096
 1169TIP3   OH224997   5.632   0.457  15.007 -0.7028  0.4462 -0.0346
 1169TIP3    H124998   5.676   0.394  15.064 -0.9737  1.0303  0.8317
 1169TIP3    H224999   5.609   0.406  14.929  0.3004 -0.1852  0.0760
 1170TIP3   OH225000   2.535   3.943  15.863  0.2832  0.0114  0.2253
 1170TIP3    H125001   2.482   3.908  15.792  1.6720  0.1350 -0.9083
 1170TIP3    H225002   2.545   3.870  15.924 -1.0825 -0.0393  0.3938
 1171TIP3   OH225003   3.601   0.705  14.437 -0.2579 -0.1251 -0.2729
 1171TIP3    H125004   3.624   0.659  14.355  3.0791 -0.6967  0.8867
 1171TIP3    H225005   3.581   0.634  14.498 -1.1024  0.2269 -0.1500
 1172TIP3   OH225006   6.110   3.906  14.587  0.1353  0.0133 -0.4657
 1172TIP3    H125007   6.120   3.930  14.495  0.9853 -0.3875 -0.4800
 1172TIP3    H225008   6.145   3.980  14.636 -1.0602  0.5782 -0.4441
 1173TIP3   OH225009   5.721   1.565   5.332  0.4906  0.3261 -0.3757
 1173TIP3    H125010   5.777   1.640   5.352  2.2503 -0.2875 -2.8257
 1173TIP3    H225011   5.761   1.492   5.380  0.0290  0.5095  0.2891
 1174TIP3   OH225012   5.955   6.587  16.311 -0.0484 -0.3155 -0.3904
 1174TIP3    H125013   6.006   6.666  16.329 -3.0224  1.7807 -0.8234
 1174TIP3    H225014   5.938   6.549  16.397 -2.6655  2.2100  0.2845
 1175TIP3   OH225015   5.055   0.526   2.684 -0.0119 -0.0171  0.3534
 1175TIP3    H125016   5.144   0.543   2.651 -1.6086  3.8268 -2.3049
 1175TIP3    H225017   5.037   0.436   2.657  2.6063 -0.4600 -0.1418
 1176TIP3   OH225018   3.249   3.890  17.238 -0.4856  0.4626 -0.1672
 1176TIP3    H125019   3.282   3.863  17.152 -0.8758 -1.2822  0.2087
 1176TIP3    H225020   3.281   3.979  17.249 -0.4920  0.7438 -2.1581
 1177TIP3   OH225021   3.982   2.685  14.510  0.4165  0.4129 -0.0211
 1177TIP3    H125022   4.024   2.621  14.568 -1.2132  2.0243  3.0654
 1177TIP3    H225023   4.025   2.768  14.531 -2.1916  1.5514  1.0943
 1178TIP3   OH225024   1.607   6.274  14.573  0.2241  0.3469 -0.2558
 1178TIP3    H125025   1.522   6.256  14.533  0.9124 -1.6876 -0.8903
 1178TIP3    H225026   1.597   6.242  14.663  0.4584 -0.3037 -0.4608
 1179TIP3   OH225027   4.620   2.610  11.433  0.0844 -0.0623 -0.7114
 1179TIP3    H125028   4.692   2.605  11.496 -0.7660  0.0573  0.2724
 1179TIP3    H225029   4.542   2.586  11.483 -0.4865 -0.7882 -1.9198
 1180TIP3   OH225030   3.830   6.082  16.272  1.0951  0.3297 -0.0950
 1180TIP3    H125031   3.822   6.164  16.223 -2.4659 -0.0984 -0.3344
 1180TIP3    H225032   3.906   6.038  16.232  1.0388  2.0257 -2.1760
 1181TIP3   OH225033   3.569   4.928  14.231  0.6034  0.1194  0.0551
 1181TIP3    H125034   3.510   4.954  14.161  1.0940  0.0356 -0.3983
 1181TIP3    H225035   3.553   4.990  14.301  0.1107  0.2082 -0.1404
 1182TIP3   OH225036   3.434   2.936   2.483  0.0687  0.1367 -0.1429
 1182TIP3    H125037   3.403   2.964   2.397 -0.0019  1.1577  0.2030
 1182TIP3    H225038   3.360   2.889   2.522 -1.0495  2.4044  0.6062
 1183TIP3   OH225039   2.938   1.529  14.895  0.3296 -0.1172  0.2047
 1183TIP3    H125040   3.015   1.503  14.945  0.4951  2.6662  1.4684
 1183TIP3    H225041   2.973   1.579  14.821 -0.2097  0.3959  0.2938
 1184TIP3   OH225042   5.206   0.417   0.907 -0.7467  0.4051  0.1129
 1184TIP3    H125043   5.116   0.428   0.936 -0.9259  1.5975 -0.8675
 1184TIP3    H225044   5.206   0.337   0.855 -0.8421 -0.6227  1.6744
 1185TIP3   OH225045   3.284   1.014  13.334  0.4799 -0.1042 -0.4474
 1185TIP3    H125046   3.296   0.956  13.259  1.8498 -1.4860  0.7959
 1185TIP3    H225047   3.329   1.095  13.310 -0.4732  0.0496 -1.7493
 1186TIP3   OH225048   1.596   0.100  15.986 -0.2630 -0.0805 -0.2324
 1186TIP3    H125049   1.559   0.040  15.921 -1.8501  1.1630 -0.5138
 1186TIP3    H225050   1.538   0.092  16.062  0.5503 -0.2198  0.3793
 1187TIP3   OH225051   4.583   4.825   1.937  0.2423 -0.1948 -0.3007
 1187TIP3    H125052   4.515   4.883   1.970  0.4499 -0.4578  0.6258
 1187TIP3    H225053   4.615   4.780   2.016  1.1414 -0.4255 -0.7980
 1188TIP3   OH225054   4.170   0.526  13.996  0.1290  0.2362  0.2177
 1188TIP3    H125055   4.262   0.550  14.006  0.5133 -0.8482 -0.6553
 1188TIP3    H225056   4.151   0.543  13.903 -0.5683  0.4759  0.3947
 1189TIP3   OH225057   1.247   0.660   4.648 -0.3600  0.3263  0.2869
 1189TIP3    H125058   1.331   0.705   4.655 -1.4404  2.7365 -1.4237
 1189TIP3    H225059   1.269   0.567   4.644  2.3356  0.9995 -1.4060
 1190TIP3   OH225060   0.376   6.113  12.223 -0.0506  0.1058  0.3055
 1190TIP3    H125061   0.385   6.197  12.267  0.6347 -0.9237  2.1634
 1190TIP3    H225062   0.465   6.090  12.196 -0.3301  0.2765 -0.7994
 1191TIP3   OH225063   0.250   3.028   6.192  0.4689 -0.1352 -0.0439
 1191TIP3    H125064   0.313   3.014   6.263 -0.2589 -0.3017  0.5876
 1191TIP3    H225065   0.282   3.104   6.145  1.3436 -0.4518  0.0416
 1192TIP3   OH225066   3.538   4.858   1.121  0.5887 -0.2510 -0.2420
 1192TIP3    H125067   3.609   4.817   1.072  2.0088  1.8490  0.0040
 1192TIP3    H225068   3.499   4.920   1.060  0.5435  0.3501  0.3945
 1193TIP3   OH225069   1.624   5.262  14.583 -0.0622 -0.7583  0.6112
 1193TIP3    H125070   1.553   5.235  14.641 -0.7944 -0.9437 -0.3690
 1193TIP3    H225071   1.666   5.180  14.556 -1.0318 -0.8030 -0.7741
 1194TIP3   OH225072   5.832   4.444   6.530 -0.0725  0.5402  0.4450
 1194TIP3    H125073   5.770   4.456   6.457  0.3672 -0.2289 -0.0644
 1194TIP3    H225074   5.833   4.349   6.545  1.8392  0.4106 -0.3280
 1195TIP3   OH225075   2.497   5.926  14.797  0.3029  0.4042 -0.1091
 1195TIP3    H125076   2.413   5.903  14.758 -0.2483  1.3165  0.4977
 1195TIP3    H225077   2.530   5.997  14.742  0.7707 -0.0997 -0.4719
 1196TIP3   OH225078   6.453   3.960  13.368 -0.1372 -0.3768  0.0397
 1196TIP3    H125079   6.389   3.998  13.307  0.3488 -1.1676 -0.9731
 1196TIP3    H225080   6.431   3.999  13.452  0.0447  1.7776 -0.8771
 1197TIP3   OH225081   4.572   2.325  15.024  0.3748 -0.2782  0.0910
 1197TIP3    H125082   4.521   2.333  15.105  0.4132 -2.3085  0.3305
 1197TIP3    H225083   4.591   2.415  14.999  0.0861  0.3845  2.1683
 1198TIP3   OH225084   2.062   3.751  14.987 -0.0632 -0.3017 -0.3819
 1198TIP3    H125085   2.059   3.673  14.931 -0.8957  0.1001 -0.9000
 1198TIP3    H225086   2.136   3.801  14.954  1.0442 -1.2895  0.5268
 1199TIP3   OH225087   2.003   2.290  12.084  0.0062  0.0015 -0.3507
 1199TIP3    H125088   2.085   2.249  12.110  0.9109  2.4099  0.7907
 1199TIP3    H225089   1.947   2.283  12.161  0.3693  1.3514  0.0524
 1200TIP3   OH225090   6.516   3.939  12.769  0.0735 -0.0910  0.2986
 1200TIP3    H125091   6.560   4.000  12.709  2.1383 -0.7982  1.0506
 1200TIP3    H225092   6.458   3.995  12.821 -0.2193  0.8108 -0.9508
 1201TIP3   OH225093   4.949   4.601  13.185 -0.4088  0.3613  0.1847
 1201TIP3    H125094   4.943   4.507  13.172  0.0537  0.5289 -1.2895
 1201TIP3    H225095   4.996   4.634  13.109 -1.3521  1.8919  0.2197
 1202TIP3   OH225096   3.054   3.993   0.140 -0.3097  0.0421 -0.3751
 1202TIP3    H125097   3.087   3.964   0.055  1.3865 -2.0419  0.9195
 1202TIP3    H225098   2.998   3.921   0.170 -2.4069  1.5842 -0.5444
 1203TIP3   OH225099   1.529   2.121   2.469  0.1186  0.4773  0.2081
 1203TIP3    H125100   1.452   2.063   2.466  0.9395 -0.6678  1.0526
 1203TIP3    H225101   1.604   2.062   2.458  0.8684  1.6546 -1.1745
 1204TIP3   OH225102   3.515   0.499   4.484 -0.2705 -0.0355  0.2532
 1204TIP3    H125103   3.482   0.492   4.394  1.8656 -0.2493 -0.5573
 1204TIP3    H225104   3.583   0.432   4.489  0.9218  1.2455  1.4438
 1205TIP3   OH225105   5.731   1.878   0.858 -0.1502  0.0308 -0.2969
 1205TIP3    H125106   5.826   1.891   0.853 -0.0236 -0.8853 -0.3673
 1205TIP3    H225107   5.708   1.900   0.949  0.1473  0.1409 -0.2484
 1206TIP3   OH225108   3.659   5.393   2.289  0.1949 -0.3412  0.3033
 1206TIP3    H125109   3.723   5.372   2.221 -0.4556 -2.7147  0.3782
 1206TIP3    H225110   3.711   5.422   2.363  0.9762  1.1608 -0.8156
 1207TIP3   OH225111   4.122   5.729   4.365  0.0650 -0.0990  0.9671
 1207TIP3    H125112   4.193   5.714   4.302 -0.2196  0.3701  0.5330
 1207TIP3    H225113   4.122   5.651   4.420 -1.8478 -2.0787 -1.6931
 1208TIP3   OH225114   5.729   5.777  16.353 -0.1695 -0.0648  0.3447
 1208TIP3    H125115   5.754   5.690  16.324  0.7775 -0.1867  1.5033
 1208TIP3    H225116   5.633   5.775  16.357 -0.2748 -0.3024 -1.9083
 1209TIP3   OH225117   5.124   2.572   4.407 -0.7488 -0.2354 -0.3081
 1209TIP3    H125118   5.087   2.592   4.321  1.9867  1.6703 -1.1234
 1209TIP3    H225119   5.170   2.652   4.432  1.0266 -1.8018  1.5745
 1210TIP3   OH225120   5.344   4.092  15.774  0.1433  0.5326 -0.3668
 1210TIP3    H125121   5.434   4.062  15.766 -1.0304 -3.5329  0.5780
 1210TIP3    H225122   5.305   4.076  15.689  0.2078  2.0958 -0.7117
 1211TIP3   OH225123   4.061   4.632   2.942 -0.4511  0.0830 -0.6390
 1211TIP3    H125124   4.062   4.588   3.027 -0.2147  0.2399 -0.5599
 1211TIP3    H225125   4.067   4.562   2.878 -1.0372 -0.0652 -0.5344
 1212TIP3   OH225126   4.763   2.361  13.146 -0.0414 -0.1964 -0.4618
 1212TIP3    H125127   4.766   2.286  13.086 -0.8667  0.1447 -0.9393
 1212TIP3    H225128   4.674   2.395  13.138  0.9103  2.1051 -1.8117
 1213TIP3   OH225129   1.233   5.749   0.339 -0.4522  0.6969 -0.3093
 1213TIP3    H125130   1.267   5.825   0.387 -0.1895  0.9440 -0.8929
 1213TIP3    H225131   1.142   5.742   0.368 -0.8324  1.9700 -1.1753
 1214TIP3   OH225132   6.336   2.637   1.846 -0.4116  0.3838 -0.6065
 1214TIP3    H125133   6.366   2.722   1.880 -1.4403  0.8103 -0.7429
 1214TIP3    H225134   6.378   2.630   1.760  1.1451 -0.0949  0.1712
 1215TIP3   OH225135   6.661   4.318  15.429 -0.1522 -0.0025  0.2722
 1215TIP3    H125136   6.574   4.294  15.397  0.2737 -1.9891  0.5574
 1215TIP3    H225137   6.717   4.243  15.406  1.3862  1.0464  0.5003
 1216TIP3   OH225138   2.445   0.477  12.360 -0.1438  0.4222  0.1591
 1216TIP3    H125139   2.532   0.511  12.379 -0.8219  1.8304  0.8028
 1216TIP3    H225140   2.454   0.382  12.368  2.0891  0.2824 -2.9046
 1217TIP3   OH225141   5.335   2.535  15.370  0.6717 -0.0838 -0.1868
 1217TIP3    H125142   5.310   2.542  15.462  0.0810  0.0848 -0.3565
 1217TIP3    H225143   5.323   2.623  15.335  1.2934 -0.0552 -0.3293
 1218TIP3   OH225144   5.618   2.034  14.688 -0.1531 -0.0351 -0.6906
 1218TIP3    H125145   5.525   2.011  14.679 -0.3664  0.7248 -0.4323
 1218TIP3    H225146   5.618   2.121  14.727  0.6685  0.0718 -0.9139
 1219TIP3   OH225147   2.212   3.134  11.553 -0.6812 -0.0807 -0.2331
 1219TIP3    H125148   2.187   3.196  11.484 -0.5408 -0.3222 -0.5021
 1219TIP3    H225149   2.307   3.144  11.561 -0.4444 -1.3730 -1.3570
 1220TIP3   OH225150   6.065   3.806   5.180  0.4602 -0.0579  0.6111
 1220TIP3    H125151   5.992   3.837   5.124 -1.8930 -0.9357  3.0842
 1220TIP3    H225152   6.089   3.721   5.143  0.5277  0.4174 -0.4731
 1221TIP3   OH225153   0.491   0.555  11.138  0.0033  0.2593  0.1720
 1221TIP3    H125154   0.398   0.546  11.158 -0.0812  1.7604  0.4835
 1221TIP3    H225155   0.513   0.645  11.162  0.9928  0.6446 -2.0592
 1222TIP3   OH225156   6.285   4.803  16.280 -0.3128 -0.2484 -0.0237
 1222TIP3    H125157   6.344   4.795  16.206  0.4409  0.2167  0.5221
 1222TIP3    H225158   6.232   4.724  16.278  1.3188 -1.3622  0.3429
 1223TIP3   OH225159   1.807   3.798   5.333 -0.5491  0.2154  0.0948
 1223TIP3    H125160   1.859   3.754   5.400  0.6723  1.1268 -0.2327
 1223TIP3    H225161   1.868   3.810   5.259 -0.9838  2.0128  0.0049
 1224TIP3   OH225162   2.340   4.506   2.716  0.2245 -0.1794  0.3685
 1224TIP3    H125163   2.276   4.525   2.785  0.3553  1.5876  0.0236
 1224TIP3    H225164   2.425   4.509   2.761  0.2450  0.0515  0.3149
 1225TIP3   OH225165   4.257   6.173   5.172  0.0616 -0.5030  0.1820
 1225TIP3    H125166   4.171   6.163   5.130  0.4750 -0.8241 -0.5950
 1225TIP3    H225167   4.307   6.097   5.142  1.1488  0.5516 -0.6694
 1226TIP3   OH225168   0.314   4.192   5.681  0.6828 -0.0491  0.2223
 1226TIP3    H125169   0.391   4.235   5.643 -0.5547  1.1440 -1.0170
 1226TIP3    H225170   0.240   4.245   5.651 -0.5422 -0.4341  2.4226
 1227TIP3   OH225171   0.714   3.051  12.271 -0.5409  0.7070  0.4851
 1227TIP3    H125172   0.744   2.960  12.276 -0.1780  0.5925 -2.5761
 1227TIP3    H225173   0.677   3.059  12.183 -2.0177  3.1075  1.2710
 1228TIP3   OH225174   1.446   3.831   2.104  0.1571 -0.1694 -0.0545
 1228TIP3    H125175   1.392   3.904   2.071 -0.6262 -0.6863  0.0669
 1228TIP3    H225176   1.410   3.754   2.061  0.3829 -0.6059  0.5448
 1229TIP3   OH225177   0.726   1.938   3.275  0.1535  0.3321  0.0704
 1229TIP3    H125178   0.688   2.006   3.220 -1.5301 -1.2125 -0.7280
 1229TIP3    H225179   0.677   1.943   3.357  0.7435  0.7855  0.3916
 1230TIP3   OH225180   3.022   3.930   4.449 -0.2397  0.2443  0.0559
 1230TIP3    H125181   2.941   3.886   4.421 -0.2734  0.3306  0.0172
 1230TIP3    H225182   3.026   4.009   4.395  0.2939 -0.1712 -0.5176
 1231TIP3   OH225183   5.115   5.887   0.271  0.7532 -0.0935 -0.2499
 1231TIP3    H125184   5.091   5.976   0.247  0.1257 -0.7880 -2.3085
 1231TIP3    H225185   5.205   5.877   0.241  0.2333 -0.7032 -1.6694
 1232TIP3   OH225186   2.671   0.520  13.784 -0.4406 -0.0720  0.8652
 1232TIP3    H125187   2.721   0.591  13.744  0.3134 -0.5450  0.9530
 1232TIP3    H225188   2.709   0.509  13.871 -0.8485 -0.2804  1.0211
 1233TIP3   OH225189   0.039   6.180   3.713 -0.8036  0.2159  0.5687
 1233TIP3    H125190   0.123   6.144   3.683  0.9017  2.7249  2.2174
 1233TIP3    H225191   0.030   6.262   3.666 -1.6811  0.6250  1.4460
 1234TIP3   OH225192   2.964   6.675  15.366 -0.3923 -0.4957  0.2686
 1234TIP3    H125193   3.024   6.630  15.425 -2.9630 -0.2369  3.2203
 1234TIP3    H225194   2.890   6.615  15.357 -1.4425  0.8348 -0.0973
 1235TIP3   OH225195   1.353   0.551  15.985  0.1988 -0.6233  0.2901
 1235TIP3    H125196   1.424   0.579  16.044  0.2897  0.1975 -0.2099
 1235TIP3    H225197   1.395   0.543  15.900 -0.6120  1.2420 -0.2966
 1236TIP3   OH225198   2.815   6.664  16.261 -0.5865  0.4699 -0.4084
 1236TIP3    H125199   2.903   6.659  16.223 -0.7829 -1.2986 -0.6756
 1236TIP3    H225200   2.784   6.752  16.238  0.3820  0.4406 -1.9078
 1237TIP3   OH225201   6.272   6.266   4.264  0.1157  0.3754  0.3414
 1237TIP3    H125202   6.271   6.202   4.192 -1.3402 -0.1838  0.8318
 1237TIP3    H225203   6.319   6.341   4.228  0.0655 -0.1834 -0.9458
 1238TIP3   OH225204   0.208   1.561  15.990 -0.4746  0.6873  0.3275
 1238TIP3    H125205   0.282   1.553  15.930 -1.2291 -1.7805 -0.3203
 1238TIP3    H225206   0.147   1.492  15.964 -3.2392  2.9156  0.5765
 1239TIP3   OH225207   0.801   5.786  12.032 -0.3578  0.0754  0.6235
 1239TIP3    H125208   0.749   5.866  12.028  0.4532  0.5919  0.2362
 1239TIP3    H225209   0.892   5.816  12.031 -0.0430 -0.8208  1.1138
 1240TIP3   OH225210   4.268   3.625  12.615 -0.1182  0.3573  0.2698
 1240TIP3    H125211   4.335   3.687  12.642 -0.8883  0.3988  2.1822
 1240TIP3    H225212   4.241   3.582  12.696  0.0223 -2.1082 -0.9592
 1241TIP3   OH225213   6.394   3.106   0.060  0.1964 -0.3069  0.5667
 1241TIP3    H125214   6.304   3.135   0.043  0.9088  1.8233  0.3225
 1241TIP3    H225215   6.428   3.080  -0.025  0.5737  1.1639  0.2483
 1242TIP3   OH225216   6.640   0.540   5.734  0.0381  0.2156  0.2002
 1242TIP3    H125217   6.611   0.617   5.784 -0.8921  0.2343 -0.3653
 1242TIP3    H225218   6.568   0.521   5.674  0.8793 -0.1974 -0.7025
 1243TIP3   OH225219   6.642   0.081  13.564  0.3355  0.1330  0.5605
 1243TIP3    H125220   6.555   0.063  13.602  0.4568  0.4117  0.9682
 1243TIP3    H225221   6.688  -0.003  13.570  0.1929  0.0567  0.6017
 1244TIP3   OH225222   6.683   4.965   5.417 -0.4663 -0.0681  0.4444
 1244TIP3    H125223   6.687   5.034   5.483 -1.2940 -1.5062  2.0327
 1244TIP3    H225224   6.773   4.959   5.384 -0.7300  3.0165 -1.0896
 1245TIP3   OH225225   2.327   4.593   5.458  0.0555 -0.0077  0.0955
 1245TIP3    H125226   2.373   4.587   5.541 -0.1013 -0.1036  0.1748
 1245TIP3    H225227   2.235   4.580   5.480 -0.2544  2.2459  0.2118
 1246TIP3   OH225228   6.715   3.349   1.929 -0.5268 -0.3367  0.4106
 1246TIP3    H125229   6.790   3.357   1.869  0.1809  0.2622  1.3678
 1246TIP3    H225230   6.751   3.368   2.015 -2.1150  1.5650  0.6963
 1247TIP3   OH225231   5.135   0.206  15.634 -0.1681 -0.2509  0.0235
 1247TIP3    H125232   5.229   0.220  15.627 -0.2975  0.1392 -0.9870
 1247TIP3    H225233   5.124   0.112  15.620  0.1039 -0.3558  0.5093
 1248TIP3   OH225234   0.498   6.255  16.042  0.0499  0.5238 -0.2051
 1248TIP3    H125235   0.472   6.202  16.118  1.4159  1.7959  1.1734
 1248TIP3    H225236   0.430   6.321  16.034  0.8657  1.5364  1.0844
 1249TIP3   OH225237   5.260   2.229  16.295  0.4142 -0.1637  0.2868
 1249TIP3    H125238   5.337   2.278  16.264 -0.6657  1.4622  0.1132
 1249TIP3    H225239   5.230   2.181  16.218  1.3151 -0.9158  0.3877
 1250TIP3   OH225240   6.246   2.358   5.612 -0.0423 -0.4846 -0.0990
 1250TIP3    H125241   6.183   2.380   5.543 -0.4191 -0.8095  0.1385
 1250TIP3    H225242   6.206   2.389   5.693  1.2835  1.6744 -0.2334
 1251TIP3   OH225243   3.094   2.365  13.774  0.2446 -0.1194  0.3195
 1251TIP3    H125244   3.126   2.437  13.827 -0.3649 -0.1572  0.7453
 1251TIP3    H225245   3.172   2.315  13.751  0.4613 -0.3560  1.5441
 1252TIP3   OH225246   6.230   3.196   1.101 -0.4496 -0.5330  0.3828
 1252TIP3    H125247   6.228   3.213   1.006 -3.5372 -0.1743  0.4466
 1252TIP3    H225248   6.238   3.283   1.140 -0.2314 -0.5915  0.4672
 1253TIP3   OH225249   2.113   2.550  15.179 -0.9917 -0.4269  0.0740
 1253TIP3    H125250   2.071   2.505  15.252  1.7884 -2.2749  0.6151
 1253TIP3    H225251   2.130   2.481  15.115 -0.2465  0.5575 -0.8039
 1254TIP3   OH225252   3.307   3.759   4.976  0.4705  0.4800 -0.1602
 1254TIP3    H125253   3.321   3.733   4.885  2.6236  0.6650  0.0817
 1254TIP3    H225254   3.216   3.735   4.994  0.5262 -1.1209 -1.8367
 1255TIP3   OH225255   6.355   2.168   2.471 -0.8769  0.2070 -0.0720
 1255TIP3    H125256   6.441   2.156   2.431 -0.7830  0.4228  0.0643
 1255TIP3    H225257   6.341   2.089   2.523 -0.5833  0.3555  0.2345
 1256TIP3   OH225258   6.585   1.935  16.526 -0.4940  0.2832 -0.0728
 1256TIP3    H125259   6.643   1.860  16.540 -2.3061 -0.9844  0.9593
 1256TIP3    H225260   6.574   1.973  16.613 -4.2105 -1.8466  0.5371
 1257TIP3   OH225261   6.791   3.200  16.342 -0.2933 -0.5381 -0.0552
 1257TIP3    H125262   6.828   3.126  16.388  0.9088 -0.3535 -0.7119
 1257TIP3    H225263   6.706   3.214  16.383 -1.7622 -4.0126 -1.7557
 1258TIP3   OH225264   4.508   6.063   6.347 -0.0707  0.2756 -0.3907
 1258TIP3    H125265   4.528   6.044   6.438 -0.7303  2.0109  0.1433
 1258TIP3    H225266   4.584   6.032   6.298 -0.6402 -2.6690  0.4931
 1259TIP3   OH225267   5.895   2.826   0.216 -0.4240 -0.2704  0.3740
 1259TIP3    H125268   5.928   2.857   0.132  3.2932 -1.7239  1.2065
 1259TIP3    H225269   5.857   2.740   0.197  2.3518 -1.5535  0.5104
 1260TIP3   OH225270   6.604   6.003   5.816  0.1128  0.7688  0.1053
 1260TIP3    H125271   6.636   6.017   5.905 -1.6298  4.0779  0.2645
 1260TIP3    H225272   6.637   5.916   5.793  0.8145 -0.0493  3.8464
 1261TIP3   OH225273   6.777   4.304  11.940 -0.2638  0.2997 -0.0053
 1261TIP3    H125274   6.693   4.340  11.967 -0.0163  0.0141  1.1951
 1261TIP3    H225275   6.842   4.356  11.988  0.1584 -0.6361  0.4567
 1262TIP3   OH225276   4.759   0.542  12.331 -0.1465 -0.0565 -0.2077
 1262TIP3    H125277   4.717   0.613  12.379 -0.1440 -0.2369  0.0620
 1262TIP3    H225278   4.847   0.574  12.312 -0.1203 -0.0164 -0.0210
 1263TIP3   OH225279   1.049   3.910   1.886  0.5651 -0.8099  0.3994
 1263TIP3    H125280   1.019   3.867   1.806  1.2235  0.4860 -0.5529
 1263TIP3    H225281   0.985   3.980   1.901  1.7859  0.4830 -0.3472
 1264TIP3   OH225282   4.573   0.191  11.903 -0.1375 -0.6886  0.1285
 1264TIP3    H125283   4.619   0.251  11.962  1.1159 -2.4465  0.9799
 1264TIP3    H225284   4.644   0.150  11.853 -0.8529 -2.7085  0.7557
 1265TIP3   OH225285   1.024   3.436  16.848 -0.2808 -0.4770 -0.0410
 1265TIP3    H125286   1.074   3.412  16.926  4.7821 -0.1202 -2.9453
 1265TIP3    H225287   0.977   3.357  16.824 -1.2986 -0.8034  2.8859
 1266TIP3   OH225288   2.932   1.494   0.987 -0.0420  0.0460 -0.4133
 1266TIP3    H125289   2.937   1.449   1.071  1.7528  0.6724 -0.1523
 1266TIP3    H225290   2.971   1.580   1.003 -1.6280  0.9651 -1.3819
 1267TIP3   OH225291   0.316   0.473  11.826  0.4452 -0.1229 -0.0773
 1267TIP3    H125292   0.260   0.396  11.816  0.5422  0.1585 -3.1375
 1267TIP3    H225293   0.260   0.547  11.801  1.9254  0.2366 -2.4181
 1268TIP3   OH225294   4.279   5.676   3.321  0.2538  0.0705 -0.4014
 1268TIP3    H125295   4.271   5.767   3.292  1.2835  0.2667 -0.0812
 1268TIP3    H225296   4.253   5.678   3.413  0.7234  0.1129 -0.2731
 1269TIP3   OH225297   6.199   0.347   4.589  0.1314 -0.0808  0.0891
 1269TIP3    H125298   6.112   0.346   4.550 -0.0797 -1.5830  0.6007
 1269TIP3    H225299   6.192   0.410   4.662 -0.5967 -0.4242  0.3136
 1270TIP3   OH225300   3.011   4.834  12.430 -0.0829 -0.2411 -0.2123
 1270TIP3    H125301   3.015   4.912  12.486  0.2614 -0.9166  0.7062
 1270TIP3    H225302   3.077   4.775  12.466 -2.2420 -2.1161  0.8757
 1271TIP3   OH225303   4.959   2.284   2.554 -0.2798  0.6752  0.8353
 1271TIP3    H125304   4.871   2.247   2.560 -0.2296  0.5284  0.6935
 1271TIP3    H225305   4.998   2.239   2.478 -0.0470  0.6617  0.9629
 1272TIP3   OH225306   2.752   5.365  12.918 -0.0401  0.9127 -0.1089
 1272TIP3    H125307   2.681   5.415  12.878  0.6606  2.1725  0.2124
 1272TIP3    H225308   2.799   5.327  12.844 -1.6029 -0.7382 -0.2990
 1273TIP3   OH225309   0.692   5.637   3.400  0.2325 -0.2357  0.1006
 1273TIP3    H125310   0.720   5.637   3.308  2.1876  0.3993  0.6636
 1273TIP3    H225311   0.693   5.729   3.425 -1.6269 -0.2843  0.3885
 1274TIP3   OH225312   6.382   5.910  13.173  0.1410  0.0264  0.3075
 1274TIP3    H125313   6.369   5.828  13.221  1.6293 -0.5654 -0.2578
 1274TIP3    H225314   6.313   5.909  13.107  0.0480 -0.7097  0.4050
 1275TIP3   OH225315   2.642   6.261  15.992  0.1800  0.2874 -0.5415
 1275TIP3    H125316   2.563   6.255  16.046  0.8853  1.7803  0.6986
 1275TIP3    H225317   2.673   6.351  16.004  1.8842 -0.1673 -1.2840
 1276TIP3   OH225318   2.504   3.235   4.642  0.2498 -0.3134 -0.3529
 1276TIP3    H125319   2.548   3.152   4.659 -1.8616 -1.1419  1.3119
 1276TIP3    H225320   2.533   3.293   4.712  0.0312 -0.3465 -0.2315
 1277TIP3   OH225321   3.715   2.403   4.490 -0.3569  0.5537  1.0894
 1277TIP3    H125322   3.686   2.392   4.581 -0.4346  1.1675  1.1377
 1277TIP3    H225323   3.655   2.467   4.453 -0.5063  0.0818  0.5191
 1278TIP3   OH225324   2.273   3.179   2.174 -0.1591  0.1241  0.1327
 1278TIP3    H125325   2.332   3.106   2.156  1.4548  0.9546  1.7894
 1278TIP3    H225326   2.259   3.176   2.269  1.3237  2.9145  0.5218
 1279TIP3   OH225327   5.954   2.720   4.479 -0.3879  0.1752  0.2767
 1279TIP3    H125328   5.985   2.810   4.474 -0.5311  0.1620 -0.9362
 1279TIP3    H225329   6.031   2.670   4.508 -0.2936  0.6662  0.8893
 1280TIP3   OH225330   3.536   3.477   6.398  0.0165 -0.2623 -0.3256
 1280TIP3    H125331   3.481   3.451   6.471 -1.8581 -0.0132 -1.6120
 1280TIP3    H225332   3.497   3.559   6.367  2.3833  1.0698  0.0576
 1281TIP3   OH225333   3.297   1.543   2.533 -0.1915  0.2473  0.7590
 1281TIP3    H125334   3.319   1.491   2.611  0.1013  0.8354  1.0751
 1281TIP3    H225335   3.206   1.520   2.514  0.8327 -2.6561 -0.9079
 1282TIP3   OH225336   4.707   4.090  11.412  0.5593  0.1910  0.2730
 1282TIP3    H125337   4.718   4.185  11.422  1.6541  0.0834  0.1978
 1282TIP3    H225338   4.784   4.063  11.361  0.1157 -0.6983  0.0706
 1283TIP3   OH225339   3.585   5.824  14.005 -0.1349 -0.7189  0.3292
 1283TIP3    H125340   3.496   5.834  13.970  0.7538  0.2702 -1.7218
 1283TIP3    H225341   3.600   5.730  14.008 -0.6965 -0.8435 -0.7544
 1284TIP3   OH225342   4.284   4.579  11.494 -0.1144  0.6614 -0.2328
 1284TIP3    H125343   4.268   4.613  11.582 -2.0869 -1.9570  0.4937
 1284TIP3    H225344   4.345   4.506  11.506 -2.4257 -1.4336 -0.5973
 1285TIP3   OH225345   3.451   3.172  16.234 -0.0248 -0.2068 -0.0951
 1285TIP3    H125346   3.469   3.247  16.177  0.4207 -0.0678  0.2275
 1285TIP3    H225347   3.366   3.139  16.204 -1.3806  1.8765  1.3316
 1286TIP3   OH225348   4.603   4.283  14.362 -0.0304 -0.1804 -0.2384
 1286TIP3    H125349   4.645   4.369  14.365 -0.4418  0.0022  0.3512
 1286TIP3    H225350   4.512   4.301  14.341  0.5395 -0.7010 -3.5039
 1287TIP3   OH225351   0.313   0.815   0.095  0.1528  0.2127  0.2982
 1287TIP3    H125352   0.309   0.848   0.006 -0.3576 -0.7683 -0.0459
 1287TIP3    H225353   0.404   0.830   0.122  0.7142 -0.8447 -0.9173
 1288TIP3   OH225354   3.030   3.813   2.300  0.2382 -0.1821 -0.0506
 1288TIP3    H125355   2.975   3.875   2.251  2.1773  0.4483 -1.4943
 1288TIP3    H225356   3.025   3.843   2.391 -2.0814 -0.3640 -0.0884
 1289TIP3   OH225357   4.795   3.123  12.015  0.3328  0.0338 -1.1443
 1289TIP3    H125358   4.826   3.033  12.024  1.4293  0.4996 -0.2537
 1289TIP3    H225359   4.729   3.132  12.084  1.3273  0.3837 -0.2288
 1290TIP3   OH225360   6.291   4.592   0.100  0.4096 -0.4759  0.3687
 1290TIP3    H125361   6.217   4.623   0.048  1.9171 -0.8524 -2.0850
 1290TIP3    H225362   6.306   4.661   0.164 -0.8529  0.4829 -0.3497
 1291TIP3   OH225363   4.432   0.376  15.921  0.3146  0.4163  0.0334
 1291TIP3    H125364   4.441   0.330  16.004  1.1399 -1.0568 -0.8437
 1291TIP3    H225365   4.496   0.447  15.925 -1.2138  1.7484  1.5447
 1292TIP3   OH225366   1.402   5.716   3.804 -0.2243  0.2977 -0.1066
 1292TIP3    H125367   1.480   5.759   3.839 -0.7495  0.5021  0.8305
 1292TIP3    H225368   1.340   5.714   3.877  0.0827 -2.8165  0.1359
 1293TIP3   OH225369   5.526   2.665   0.436 -0.6116 -0.0924  0.1995
 1293TIP3    H125370   5.498   2.756   0.446 -0.4502 -0.0837  0.5775
 1293TIP3    H225371   5.481   2.619   0.506 -2.3714 -0.6844 -1.2858
 1294TIP3   OH225372   1.421   2.984   3.095  0.1438 -0.3004 -0.2584
 1294TIP3    H125373   1.398   2.898   3.060  0.4294 -0.2586 -0.5482
 1294TIP3    H225374   1.504   2.970   3.140 -0.1688 -0.3326  0.3308
 1295TIP3   OH225375   0.617   0.935  13.116  0.2198 -0.5276  0.3376
 1295TIP3    H125376   0.539   0.982  13.089  2.5350  1.7600 -2.8277
 1295TIP3    H225377   0.640   0.971  13.202 -1.2132  0.0319  0.4882
 1296TIP3   OH225378   5.674   2.507  14.167  0.4502  0.1953  0.0820
 1296TIP3    H125379   5.749   2.453  14.191  0.6320  1.0346  1.4395
 1296TIP3    H225380   5.704   2.597  14.177 -0.4717  0.5442 -0.1811
 1297TIP3   OH225381   4.121   1.693   5.406  0.2508  0.3758 -0.4693
 1297TIP3    H125382   4.128   1.699   5.311  0.7365  1.8281 -0.3503
 1297TIP3    H225383   4.122   1.784   5.436  2.1930 -0.1088  1.0574
 1298TIP3   OH225384   6.735   2.211   2.582  0.4629 -0.0325 -0.3574
 1298TIP3    H125385   6.701   2.299   2.599  1.0363  0.1873 -0.3165
 1298TIP3    H225386   6.826   2.215   2.612  0.4602 -0.6692 -0.2710
 1299TIP3   OH225387   0.686   0.645  14.499 -0.2946  0.0009  0.5322
 1299TIP3    H125388   0.610   0.702  14.510 -0.0942  0.2253  0.7476
 1299TIP3    H225389   0.665   0.568  14.553 -1.3264 -0.8900 -1.1048
 1300TIP3   OH225390   3.091   6.607  13.212  0.0549 -0.3352 -0.1622
 1300TIP3    H125391   3.071   6.513  13.209 -0.4165 -0.2300 -0.3617
 1300TIP3    H225392   3.160   6.619  13.147  1.0211 -0.7575  0.7677
 1301TIP3   OH225393   6.616   5.057  12.682 -0.0129 -0.2105  0.1483
 1301TIP3    H125394   6.704   5.064  12.644 -0.4696  3.3624 -0.3825
 1301TIP3    H225395   6.614   5.121  12.752 -1.6084 -1.6238  1.4560
 1302TIP3   OH225396   2.923   5.047  16.069 -0.0237  0.0822 -0.0102
 1302TIP3    H125397   2.875   5.100  16.005  0.5051  0.4043 -0.1359
 1302TIP3    H225398   2.883   5.069  16.153  0.5435  1.0582  0.0001
 1303TIP3   OH225399   1.942   2.210  14.801  0.9933 -0.1861  0.0819
 1303TIP3    H125400   1.913   2.299  14.820 -0.1651 -0.7667  1.0909
 1303TIP3    H225401   2.021   2.221  14.747 -0.2632  1.4361 -1.4702
 1304TIP3   OH225402   4.088   5.284  14.011  0.1759 -0.6309 -0.2634
 1304TIP3    H125403   4.154   5.250  14.071  1.4652  0.7906 -0.8299
 1304TIP3    H225404   4.130   5.359  13.970 -2.0546  0.7712 -0.0903
 1305TIP3   OH225405   2.089   4.486  15.339  0.9575 -0.5215  0.2713
 1305TIP3    H125406   2.100   4.401  15.295 -0.7350 -1.0313  0.7843
 1305TIP3    H225407   2.102   4.551  15.270 -1.9720 -1.3157 -1.0964
 1306TIP3   OH225408   5.200   3.874   6.089  0.6466  0.3219 -0.0643
 1306TIP3    H125409   5.198   3.871   6.185  2.4758  0.7192  0.0063
 1306TIP3    H225410   5.166   3.961   6.068  0.2177  0.2250  0.2151
 1307TIP3   OH225411   6.515   5.792   2.346 -0.1064  0.1289 -0.3928
 1307TIP3    H125412   6.567   5.714   2.365 -0.0709  0.7916  2.2934
 1307TIP3    H225413   6.562   5.864   2.388 -1.0168  1.3772 -1.4564
 1308TIP3   OH225414   1.663   4.619   0.110 -0.5093  0.1029 -0.1362
 1308TIP3    H125415   1.577   4.615   0.068 -0.2229 -3.0970 -0.5618
 1308TIP3    H225416   1.651   4.572   0.193  0.4334  1.0573  0.5400
 1309TIP3   OH225417   3.306   3.617  14.194 -0.3010 -0.2094 -0.0804
 1309TIP3    H125418   3.248   3.685  14.159 -0.3124 -1.5523 -2.7757
 1309TIP3    H225419   3.393   3.644  14.166  0.0642  0.2205  1.4089
 1310TIP3   OH225420   0.347   0.872  11.077  0.2213  0.1120  0.7403
 1310TIP3    H125421   0.412   0.928  11.034 -1.2385  1.4247  0.2248
 1310TIP3    H225422   0.342   0.907  11.166  1.2686 -0.9101  1.2130
 1311TIP3   OH225423   0.823   2.787  15.047 -0.6103 -0.4428 -0.1132
 1311TIP3    H125424   0.891   2.732  15.086 -1.7631 -1.8070  0.0470
 1311TIP3    H225425   0.835   2.776  14.952  1.9693  2.5958 -0.2044
 1312TIP3   OH225426   2.733   4.100   4.459  1.2066  0.2826  0.0174
 1312TIP3    H125427   2.650   4.121   4.415  1.3327  0.2185 -0.2527
 1312TIP3    H225428   2.787   4.178   4.445  1.1901  0.3242  0.1937
 1313TIP3   OH225429   4.034   5.454   2.277  0.2126  1.1871 -0.2779
 1313TIP3    H125430   4.085   5.374   2.286  1.3116  1.8013 -1.0301
 1313TIP3    H225431   4.018   5.463   2.183 -0.4819  1.5001 -0.1409
 1314TIP3   OH225432   3.653   3.151   2.594 -0.3323 -0.2554  0.1254
 1314TIP3    H125433   3.650   3.055   2.592 -2.6559 -0.1949 -2.6628
 1314TIP3    H225434   3.727   3.173   2.537 -0.3632 -0.4022  0.0253
 1315TIP3   OH225435   6.411   2.852  12.328 -0.4255  0.0891  0.4595
 1315TIP3    H125436   6.371   2.939  12.336 -0.8052 -0.0642  0.2277
 1315TIP3    H225437   6.412   2.818  12.417 -1.3792 -0.1616  0.3693
 1316TIP3   OH225438   5.457   1.842   4.846  0.9714 -0.2877 -0.1303
 1316TIP3    H125439   5.551   1.839   4.862  0.9889  1.1393  0.1313
 1316TIP3    H225440   5.430   1.927   4.882 -1.0023 -2.1059  2.9513
 1317TIP3   OH225441   3.715   0.990   1.979  0.1466 -0.3508 -0.1478
 1317TIP3    H125442   3.697   1.074   2.020  0.8104  0.1128 -0.7953
 1317TIP3    H225443   3.793   0.957   2.025 -0.5200 -0.9320  0.5720
 1318TIP3   OH225444   5.884   4.076   4.584 -0.4079 -0.7227 -0.0405
 1318TIP3    H125445   5.802   4.113   4.553 -0.7300 -0.8776  0.6168
 1318TIP3    H225446   5.948   4.146   4.572 -0.8983 -0.1389  0.6809
 1319TIP3   OH225447   3.744   5.318   6.186 -0.4307  0.1096  0.0164
 1319TIP3    H125448   3.740   5.304   6.092  2.6070 -1.1548 -0.0099
 1319TIP3    H225449   3.728   5.411   6.198  0.8384  0.5987 -1.9319
 1320TIP3   OH225450   4.787   1.750  14.903 -0.0380  0.2516 -0.5236
 1320TIP3    H125451   4.762   1.716  14.817  0.5309 -0.1719 -0.5250
 1320TIP3    H225452   4.737   1.697  14.965  0.3169 -0.1213 -0.5544
 1321TIP3   OH225453   3.858   2.847  16.883  0.0040  0.0434 -0.1858
 1321TIP3    H125454   3.901   2.876  16.803 -1.6481 -0.4084 -1.2671
 1321TIP3    H225455   3.841   2.754  16.869 -1.3066  0.2145  0.2258
 1322TIP3   OH225456   0.935   1.722   2.622  0.7809  0.2024 -0.0618
 1322TIP3    H125457   0.986   1.801   2.639  0.3023  0.4335  0.2952
 1322TIP3    H225458   0.939   1.673   2.704  0.4633  0.2014 -0.0464
 1323TIP3   OH225459   3.476   0.640  12.038  0.1636  0.4269  0.1609
 1323TIP3    H125460   3.423   0.610  12.112 -1.1352  0.1786 -0.8574
 1323TIP3    H225461   3.453   0.580  11.967  1.6665  0.4440 -0.3566
 1324TIP3   OH225462   4.602   3.077   1.340  0.0956 -0.1717  0.2405
 1324TIP3    H125463   4.648   3.137   1.282  0.7199 -0.8170  0.0661
 1324TIP3    H225464   4.563   3.133   1.407  0.9986  0.3975  0.2937
 1325TIP3   OH225465   4.772   6.202  11.692  0.2456  0.9445 -0.4515
 1325TIP3    H125466   4.688   6.164  11.717  0.7870 -0.7434 -1.1292
 1325TIP3    H225467   4.749   6.273  11.633 -0.6601 -0.5151 -1.9128
 1326TIP3   OH225468   6.802   3.636  14.496  0.1106  0.2925 -0.1006
 1326TIP3    H125469   6.749   3.685  14.433  0.6900 -0.6764 -1.3819
 1326TIP3    H225470   6.880   3.690  14.508 -1.0583  1.6392  1.6602
 1327TIP3   OH225471   5.202   5.685   4.610 -0.1204 -0.1816  0.1750
 1327TIP3    H125472   5.238   5.638   4.685  0.1154  0.9091  0.7574
 1327TIP3    H225473   5.156   5.760   4.648  2.2552  1.8920 -0.8798
 1328TIP3   OH225474   4.981   0.419  16.836 -0.1683 -0.6916  0.3110
 1328TIP3    H125475   5.037   0.488  16.872 -0.8474  0.1686 -0.2866
 1328TIP3    H225476   5.042   0.361  16.790  0.8350 -2.1951  3.3476
 1329TIP3   OH225477   5.248   6.723  12.894 -0.1184  0.0785 -0.1665
 1329TIP3    H125478   5.251   6.801  12.839 -1.4121  2.3772  2.8223
 1329TIP3    H225479   5.307   6.742  12.967 -0.2590 -1.8367  0.4949
 1330TIP3   OH225480   5.216   3.379   3.201 -0.0522 -0.6061  0.5585
 1330TIP3    H125481   5.221   3.469   3.169 -0.6325 -0.1220  1.8265
 1330TIP3    H225482   5.136   3.376   3.253  0.1858 -1.7428  0.8778
 1331TIP3   OH225483   5.142   6.403  14.855 -0.2791  0.2582  0.3889
 1331TIP3    H125484   5.079   6.410  14.784  0.5620 -0.2712 -0.4266
 1331TIP3    H225485   5.208   6.341  14.822 -1.5101 -2.4672  2.8171
 1332TIP3   OH225486   5.812   4.576   3.889  0.0561  0.8970 -0.1840
 1332TIP3    H125487   5.860   4.642   3.938 -1.3965  0.7443  1.5077
 1332TIP3    H225488   5.783   4.621   3.810  1.6067  1.4228 -0.4641
 1333TIP3   OH225489   4.369   6.681   0.030  0.4075 -0.6138  0.2893
 1333TIP3    H125490   4.312   6.723  -0.034  0.2494 -1.3849 -0.0862
 1333TIP3    H225491   4.310   6.646   0.096  0.6304  0.9032  1.2879
 1334TIP3   OH225492   0.143   5.763  12.515  0.3196  0.2925  0.0352
 1334TIP3    H125493   0.050   5.777  12.494  0.4336  0.9765 -0.0362
 1334TIP3    H225494   0.186   5.845  12.489  0.6473  0.7420  1.8547
 1335TIP3   OH225495   2.078   0.573  14.020 -0.4341 -0.0746 -0.1479
 1335TIP3    H125496   2.022   0.597  14.094 -0.9204 -1.7464  0.0532
 1335TIP3    H225497   2.064   0.642  13.955 -1.3993  0.4338  0.5938
 1336TIP3   OH225498   0.679   5.421  16.336 -0.4861 -0.2105 -0.6565
 1336TIP3    H125499   0.605   5.366  16.361 -0.3256 -0.9704 -1.8331
 1336TIP3    H225500   0.644   5.479  16.269 -0.0242 -0.5688 -1.2112
 1337TIP3   OH225501   4.286   3.586  14.139 -0.2314  0.0856  0.5371
 1337TIP3    H125502   4.312   3.647  14.209  1.2900  0.2562 -0.1546
 1337TIP3    H225503   4.229   3.638  14.082 -0.2322  0.3921  0.8152
 1338TIP3   OH225504   4.875   2.338  14.720 -0.2231 -0.5094  0.3317
 1338TIP3    H125505   4.883   2.433  14.732  0.4115 -0.3908 -1.0036
 1338TIP3    H225506   4.785   2.324  14.691 -0.0504 -0.2301 -0.3323
 1339TIP3   OH225507   0.863   0.884   5.517 -0.3655 -0.4514  0.2030
 1339TIP3    H125508   0.816   0.916   5.440  0.9380 -0.0256 -0.4257
 1339TIP3    H225509   0.926   0.953   5.537 -1.2109 -0.2010  2.1317
 1340TIP3   OH225510   5.974   5.974  17.018 -0.6837  0.2914  0.1379
 1340TIP3    H125511   5.933   6.036  16.958 -1.4195 -0.3217  0.0005
 1340TIP3    H225512   5.980   6.021  17.101 -1.1814  0.5657  0.0198
 1341TIP3   OH225513   4.432   5.359   1.246  0.2060  0.6174  0.4139
 1341TIP3    H125514   4.397   5.283   1.200 -0.8927  0.9217  0.7500
 1341TIP3    H225515   4.408   5.346   1.338  0.3961  1.1510  0.5460
 1342TIP3   OH225516   0.279   1.121   5.126 -0.2264  0.2287  0.0134
 1342TIP3    H125517   0.304   1.213   5.138 -1.0587  0.5633 -0.7489
 1342TIP3    H225518   0.188   1.124   5.097  0.0297 -0.7830 -0.9620
 1343TIP3   OH225519   0.057   5.818   0.904  0.2617 -0.4482  0.2389
 1343TIP3    H125520   0.012   5.792   0.984 -0.4167 -0.2093 -0.0647
 1343TIP3    H225521   0.148   5.791   0.918  0.0709 -0.7382  0.9368
 1344TIP3   OH225522   4.967   3.508  14.430 -0.4048 -0.1691 -0.2776
 1344TIP3    H125523   4.908   3.542  14.362 -0.6430  0.1523  0.0892
 1344TIP3    H225524   5.054   3.510  14.390 -0.9081 -2.7322 -1.6250
 1345TIP3   OH225525   4.155   6.175   1.030 -0.4379  0.2839  0.6184
 1345TIP3    H125526   4.088   6.206   0.969 -0.7475 -0.7357  0.4323
 1345TIP3    H225527   4.140   6.080   1.036 -0.1277  0.3101  1.9292
 1346TIP3   OH225528   1.295   0.508  13.978  0.3962 -0.1890 -0.2686
 1346TIP3    H125529   1.365   0.555  13.933  0.2024 -0.9419 -1.3785
 1346TIP3    H225530   1.313   0.416  13.962 -1.7432 -0.3545 -1.9957
 1347TIP3   OH225531   4.879   5.811   2.208 -0.5877  0.5492 -0.0525
 1347TIP3    H125532   4.822   5.771   2.274 -0.6653 -0.2146 -0.5702
 1347TIP3    H225533   4.829   5.887   2.177 -0.3390  1.1975  1.1032
 1348TIP3   OH225534   1.327   1.114  14.563 -0.4280  0.4332  0.1390
 1348TIP3    H125535   1.285   1.200  14.559  0.1698  0.7430  0.5314
 1348TIP3    H225536   1.255   1.053  14.577 -0.9876  0.7550 -1.2260
 1349TIP3   OH225537   3.496   6.276   4.757  0.2662  0.8372  0.0820
 1349TIP3    H125538   3.542   6.258   4.675 -1.7656 -1.6570 -0.5919
 1349TIP3    H225539   3.565   6.279   4.823  1.7357  0.7613 -1.4186
 1350TIP3   OH225540   2.314   1.369  13.366  0.9001  0.3070 -0.3349
 1350TIP3    H125541   2.378   1.321  13.418 -0.3360 -0.9915  0.0167
 1350TIP3    H225542   2.285   1.440  13.424  1.6934  0.6430 -0.3406
 1351TIP3   OH225543   1.388   6.645  11.589  0.2357  0.0337  0.1957
 1351TIP3    H125544   1.363   6.737  11.601 -0.2228 -0.0065 -0.4303
 1351TIP3    H225545   1.462   6.649  11.528  0.3120 -0.0047  0.2853
 1352TIP3   OH225546   6.452   6.264  13.172  0.4524  0.1794 -0.0568
 1352TIP3    H125547   6.533   6.297  13.210  0.7306  0.9323 -1.2921
 1352TIP3    H225548   6.472   6.251  13.079 -1.0525  1.1025 -0.5301
 1353TIP3   OH225549   5.481   3.867  14.429  0.1652 -0.5775 -0.6100
 1353TIP3    H125550   5.459   3.869  14.336 -1.3449 -1.6139 -0.2894
 1353TIP3    H225551   5.527   3.950  14.444 -1.5918  0.6469 -1.8028
 1354TIP3   OH225552   6.242   5.045  14.752  1.0727  0.2259 -0.2583
 1354TIP3    H125553   6.229   5.113  14.817  0.9056 -0.2338  0.1949
 1354TIP3    H225554   6.224   5.087  14.668  2.8198  1.2486 -0.1484
 1355TIP3   OH225555   2.504   0.517   0.167 -0.0993  0.0683  0.3686
 1355TIP3    H125556   2.426   0.462   0.177 -1.0963  1.6485  1.8117
 1355TIP3    H225557   2.495   0.582   0.237  2.8057 -0.0404  0.8939
 1356TIP3   OH225558   3.753   6.024   2.724 -0.1283  0.3861 -0.0296
 1356TIP3    H125559   3.703   5.950   2.688 -2.4668  0.4629  2.9097
 1356TIP3    H225560   3.810   5.985   2.790  0.7977  0.8501 -0.5394
 1357TIP3   OH225561   2.250   1.387  14.011  0.1131 -0.4087  0.4778
 1357TIP3    H125562   2.190   1.450  13.971 -0.0811 -0.9231 -0.0433
 1357TIP3    H225563   2.272   1.326  13.940  1.0848 -0.3535  0.7159
 1358TIP3   OH225564   3.972   2.123   4.504  0.8856  0.5726 -0.6177
 1358TIP3    H125565   4.037   2.053   4.498 -0.3897 -0.8246  1.1335
 1358TIP3    H225566   3.903   2.097   4.443  0.7133  0.6377 -0.4523
 1359TIP3   OH225567   2.532   0.605   3.294  0.0351 -0.3678 -0.3477
 1359TIP3    H125568   2.458   0.623   3.353 -0.2556 -0.6555 -0.6224
 1359TIP3    H225569   2.498   0.627   3.207 -0.6169 -3.0516 -0.8049
 1360TIP3   OH225570   4.030   2.710   1.906 -0.0216 -0.7655 -0.5584
 1360TIP3    H125571   4.019   2.752   1.991  1.1012 -0.7229 -0.4363
 1360TIP3    H225572   3.944   2.720   1.864 -0.3843 -0.2055  0.2946
 1361TIP3   OH225573   4.070   5.877  14.682 -0.1388  0.3038 -0.1568
 1361TIP3    H125574   4.094   5.790  14.651  1.2095  1.1467 -1.5391
 1361TIP3    H225575   4.078   5.873  14.777  0.9974 -0.7661 -0.2966
 1362TIP3   OH225576   2.438   5.149   3.874 -0.7767  0.2729  0.3220
 1362TIP3    H125577   2.460   5.216   3.939  1.4402 -0.8039  0.7152
 1362TIP3    H225578   2.443   5.067   3.922 -1.3494 -0.3565 -0.6912
 1363TIP3   OH225579   0.463   3.705  13.143 -0.3313 -0.0770  0.2602
 1363TIP3    H125580   0.413   3.626  13.163 -0.8665  0.8182  2.6147
 1363TIP3    H225581   0.465   3.754  13.225 -0.6562  2.7253 -1.3123
 1364TIP3   OH225582   4.499   1.873  16.802 -0.4615  0.1049  0.5996
 1364TIP3    H125583   4.456   1.789  16.787 -1.0314  0.4590  0.2138
 1364TIP3    H225584   4.556   1.858  16.878 -0.2631 -0.7264  0.2887
 1365TIP3   OH225585   2.523   4.265  11.148 -0.6257  0.2626 -0.5817
 1365TIP3    H125586   2.556   4.282  11.060 -1.4220  1.7011 -0.6120
 1365TIP3    H225587   2.600   4.236  11.197 -0.0219  0.2253 -1.5369
 1366TIP3   OH225588   0.900   0.908  12.125  0.2287 -1.0333 -0.5192
 1366TIP3    H125589   0.861   0.949  12.048  0.7725  0.7173  0.1257
 1366TIP3    H225590   0.867   0.818  12.123 -0.9687 -0.5855 -1.9498
 1367TIP3   OH225591   2.057   4.705  12.750 -0.3176 -0.1699  0.4017
 1367TIP3    H125592   1.976   4.748  12.775  0.8371  1.0561  2.2129
 1367TIP3    H225593   2.125   4.755  12.796  1.5185 -0.6904 -1.6899
 1368TIP3   OH225594   2.391   0.722  13.884 -0.3784  0.1817  0.1071
 1368TIP3    H125595   2.297   0.709  13.896 -0.4784  0.1787 -0.6776
 1368TIP3    H225596   2.431   0.648  13.930 -0.8629 -1.6084 -2.2641
 1369TIP3   OH225597   5.482   1.698  14.026 -0.2634 -0.0115 -0.5147
 1369TIP3    H125598   5.487   1.793  14.012  0.5762 -0.2640 -2.1024
 1369TIP3    H225599   5.547   1.662  13.965  0.2836 -1.5339  0.9462
 1370TIP3   OH225600   1.676   3.101  14.050  0.0472  0.0763 -0.6807
 1370TIP3    H125601   1.712   3.174  14.100  0.2507  1.3464 -2.6126
 1370TIP3    H225602   1.753   3.054  14.019  0.0140  0.9332 -2.1222
 1371TIP3   OH225603   1.844   6.434  11.543 -0.5930 -0.3247  0.0033
 1371TIP3    H125604   1.888   6.506  11.498 -0.8831  0.1048  0.4027
 1371TIP3    H225605   1.882   6.435  11.631 -1.5282  0.1674  0.4082
 1372TIP3   OH225606   2.364   4.391   0.352 -0.3234  0.5668 -0.4054
 1372TIP3    H125607   2.444   4.386   0.300 -0.4384  0.1510 -0.5433
 1372TIP3    H225608   2.335   4.482   0.343  0.2144  0.7533 -0.2326
 1373TIP3   OH225609   6.065   2.960  14.696  0.4576 -0.1516  0.3542
 1373TIP3    H125610   6.031   2.959  14.786  1.2852 -0.3722  0.6649
 1373TIP3    H225611   6.159   2.969  14.706  0.4407  1.0773 -0.5328
 1374TIP3   OH225612   3.880   3.175  14.983  0.0740  0.0622 -0.1390
 1374TIP3    H125613   3.904   3.152  15.072  0.4809 -2.3333 -0.8309
 1374TIP3    H225614   3.962   3.202  14.942  0.2962 -1.0076 -0.4125
 1375TIP3   OH225615   3.697   6.153   5.104  0.2402  0.2267 -0.2149
 1375TIP3    H125616   3.637   6.078   5.100 -0.5749  0.9264 -1.5711
 1375TIP3    H225617   3.666   6.203   5.180 -1.0929  0.7171 -1.0557
 1376TIP3   OH225618   5.538   3.550   5.938  0.4157 -0.0277  0.1354
 1376TIP3    H125619   5.465   3.487   5.942  1.6300 -1.3390  2.9372
 1376TIP3    H225620   5.606   3.504   5.889 -0.0938  0.6545 -1.2430
 1377TIP3   OH225621   5.762   4.383   2.842 -0.1083  0.0836  0.2745
 1377TIP3    H125622   5.777   4.314   2.906  0.1180  0.0838  0.2229
 1377TIP3    H225623   5.674   4.366   2.809  0.8903 -1.7212 -1.5950
 1378TIP3   OH225624   1.923   2.986   0.628  0.0585  0.5268  0.0544
 1378TIP3    H125625   1.984   2.970   0.700  1.1198 -0.5828 -1.0666
 1378TIP3    H225626   1.978   3.024   0.558 -0.1536 -2.0825 -1.5919
 1379TIP3   OH225627   2.817   4.408   1.402  0.1267  0.2944  0.9778
 1379TIP3    H125628   2.905   4.370   1.400  0.4767  1.0799  1.2192
 1379TIP3    H225629   2.819   4.469   1.476 -1.0612 -0.7323  1.8696
 1380TIP3   OH225630   0.921   0.498   1.825  0.3417  0.1919 -0.1429
 1380TIP3    H125631   1.012   0.482   1.850  0.6498  1.4271 -0.4008
 1380TIP3    H225632   0.926   0.522   1.732 -0.3076 -0.2592 -0.2944
 1381TIP3   OH225633   2.234   1.613  15.579  0.2346  0.4083  0.0261
 1381TIP3    H125634   2.188   1.697  15.571 -0.3519  0.2317  1.4320
 1381TIP3    H225635   2.291   1.610  15.502 -0.9212  1.3572 -0.8844
 1382TIP3   OH225636   4.108   5.080   1.649  0.1139 -0.8408  0.2408
 1382TIP3    H125637   4.090   4.986   1.656 -1.6526 -0.6013 -0.7969
 1382TIP3    H225638   4.091   5.101   1.558  0.1589  0.5687  0.5445
 1383TIP3   OH225639   4.375   1.857   1.265 -0.2907 -0.1783  0.9359
 1383TIP3    H125640   4.305   1.807   1.307 -0.0289  0.3382  2.0120
 1383TIP3    H225641   4.384   1.818   1.178 -0.0743 -2.0336  1.7600
 1384TIP3   OH225642   2.597   5.505  13.841 -0.2579 -0.8243 -0.5566
 1384TIP3    H125643   2.516   5.538  13.804 -1.0926 -1.6300  0.5384
 1384TIP3    H225644   2.589   5.409  13.837  1.8008 -0.9535 -2.9813
 1385TIP3   OH225645   4.967   4.104   5.717  0.0910  0.0805 -0.0702
 1385TIP3    H125646   4.964   4.009   5.709  1.6620 -0.0129  0.2481
 1385TIP3    H225647   4.875   4.131   5.726 -0.1928 -1.6518  2.5362
 1386TIP3   OH225648   6.191   3.544   2.311 -0.1042 -0.4569  0.1927
 1386TIP3    H125649   6.259   3.582   2.255  0.5195  0.8865  1.8183
 1386TIP3    H225650   6.201   3.450   2.300  1.2717 -0.2490 -0.4827
 1387TIP3   OH225651   1.595   0.719   4.699  0.0122  0.5954 -0.4525
 1387TIP3    H125652   1.657   0.670   4.753  0.0500 -0.1429 -1.1515
 1387TIP3    H225653   1.626   0.705   4.609 -0.2871  1.4661 -0.6962
 1388TIP3   OH225654   1.563   3.274   1.535 -0.1765  0.0819 -0.6381
 1388TIP3    H125655   1.623   3.344   1.508  1.0612 -0.6133  0.2516
 1388TIP3    H225656   1.595   3.196   1.489  1.2535 -0.8685  1.8684
 1389TIP3   OH225657   1.258   1.760   4.097 -0.0672  0.7150 -0.1888
 1389TIP3    H125658   1.208   1.767   4.016 -0.2524 -0.8319 -0.2345
 1389TIP3    H225659   1.347   1.739   4.070 -0.1844 -0.0614  0.0017
 1390TIP3   OH225660   3.730   0.724   4.790  0.1987 -0.2430  0.7467
 1390TIP3    H125661   3.745   0.728   4.695 -0.4741  1.5725  0.6942
 1390TIP3    H225662   3.791   0.787   4.826  0.0662 -0.5334  1.4775
 1391TIP3   OH225663   5.277   5.185  14.985 -0.6825 -0.1842 -0.3557
 1391TIP3    H125664   5.328   5.198  15.066  0.3716  0.1486 -1.0583
 1391TIP3    H225665   5.192   5.154  15.015  0.0531 -1.0929  0.8353
 1392TIP3   OH225666   4.323   0.892  15.262  0.5017  0.6260  1.0224
 1392TIP3    H125667   4.232   0.870  15.281  0.6164 -0.1815  0.6644
 1392TIP3    H225668   4.322   0.921  15.171  0.5810  0.7313  1.0540
 1393TIP3   OH225669   3.245   1.146   2.081 -0.3515  0.0308  0.1213
 1393TIP3    H125670   3.322   1.203   2.080  0.7185 -1.3068  2.3749
 1393TIP3    H225671   3.275   1.063   2.045 -0.4699 -0.8042  1.9092
 1394TIP3   OH225672   1.629   4.015   5.686 -0.0268  0.2600 -0.2233
 1394TIP3    H125673   1.634   3.920   5.689  0.6905  0.3327  2.2374
 1394TIP3    H225674   1.668   4.039   5.602  1.7144 -1.5275  0.0417
 1395TIP3   OH225675   5.689   0.944   0.371 -0.1363  0.1997  0.2446
 1395TIP3    H125676   5.722   1.015   0.425 -0.1803 -0.0375  0.5820
 1395TIP3    H225677   5.619   0.904   0.423 -1.7504  1.4188 -0.9229
 1396TIP3   OH225678   2.625   5.085  11.029  0.5135 -0.1397 -0.4185
 1396TIP3    H125679   2.674   5.118  10.954  0.4451 -1.1156 -0.9021
 1396TIP3    H225680   2.547   5.045  10.991 -0.9814  1.9601  0.3929
 1397TIP3   OH225681   0.511   4.048  16.922  0.4655 -0.4580 -0.1611
 1397TIP3    H125682   0.418   4.036  16.940  0.2146 -0.4020 -1.4194
 1397TIP3    H225683   0.543   3.960  16.902  1.6633 -1.2741  4.6007
 1398TIP3   OH225684   4.993   3.000  14.962  0.2903 -0.2439  0.3640
 1398TIP3    H125685   4.912   2.952  14.976 -0.5512  0.7525 -0.9040
 1398TIP3    H225686   5.063   2.940  14.990 -0.7291 -2.1246 -1.0489
 1399TIP3   OH225687   1.393   2.163  11.708 -0.1103 -0.1779  0.1960
 1399TIP3    H125688   1.382   2.258  11.702 -1.2014 -0.3202 -0.2353
 1399TIP3    H225689   1.303   2.129  11.714  0.2464 -1.2127 -0.2155
 1400TIP3   OH225690   0.378   2.438  17.202 -0.0426 -0.8237  0.2785
 1400TIP3    H125691   0.338   2.366  17.153 -0.1327 -0.9639  0.5585
 1400TIP3    H225692   0.459   2.401  17.237  0.5126 -0.4329 -0.5886
 1401TIP3   OH225693   4.259   1.772   4.000  0.1676  0.0214 -0.4376
 1401TIP3    H125694   4.355   1.776   3.999  0.1210  1.3300 -0.8284
 1401TIP3    H225695   4.235   1.782   4.092  0.3807  0.8363 -0.4628
 1402TIP3   OH225696   0.493   4.444  13.719 -0.1804  0.3460  0.6106
 1402TIP3    H125697   0.560   4.456  13.786 -0.1862  0.2416  0.6355
 1402TIP3    H225698   0.462   4.354  13.732  1.1433 -0.3358 -0.7303
 1403TIP3   OH225699   1.123   4.359   5.399  0.0952  0.0350 -0.8134
 1403TIP3    H125700   1.186   4.383   5.467 -1.8936  2.3977  0.2893
 1403TIP3    H225701   1.166   4.382   5.317  1.4886 -0.3594 -0.1989
 1404TIP3   OH225702   5.583   3.055   0.601  0.1056 -0.5620  0.5344
 1404TIP3    H125703   5.631   3.137   0.593  0.2886 -0.6888  0.3505
 1404TIP3    H225704   5.650   2.988   0.608 -0.0380 -0.7820 -0.1460
 1405TIP3   OH225705   0.707   0.540   2.572  0.7770 -0.1847 -0.0967
 1405TIP3    H125706   0.617   0.512   2.554  0.3641  1.7916 -1.1666
 1405TIP3    H225707   0.731   0.491   2.651 -1.0124 -1.1932 -0.1370
 1406TIP3   OH225708   6.558   1.058   3.646 -0.1273 -0.2525  0.1336
 1406TIP3    H125709   6.527   1.103   3.724 -0.5979 -1.2574  0.5300
 1406TIP3    H225710   6.488   1.069   3.582  0.6640  1.3887 -0.4700
 1407TIP3   OH225711   2.777   2.434  15.888 -0.1727  0.0011 -0.2037
 1407TIP3    H125712   2.763   2.366  15.822 -1.3470 -0.0180  0.0502
 1407TIP3    H225713   2.736   2.399  15.967 -1.3527  1.2726 -0.2390
 1408TIP3   OH225714   0.935   1.476   3.919  0.4076 -0.0875 -0.7280
 1408TIP3    H125715   0.927   1.381   3.926  0.0744 -0.1051 -1.3196
 1408TIP3    H225716   0.846   1.509   3.927  0.6297  0.2397  0.3993
 1409TIP3   OH225717   3.002   6.048  10.840 -0.0459  0.5553  0.2686
 1409TIP3    H125718   2.908   6.037  10.856 -0.0566 -0.2979 -0.3124
 1409TIP3    H225719   3.010   6.043  10.745  0.4674  1.6438  0.2558
 1410TIP3   OH225720   1.937   1.429   6.398  0.0788  0.2568 -0.0632
 1410TIP3    H125721   1.908   1.441   6.307  1.1553  1.3057 -0.2894
 1410TIP3    H225722   1.859   1.444   6.450 -0.4713  0.0173 -0.8039
 1411TIP3   OH225723   3.629   1.592  14.990  0.3425  0.3559  0.1852
 1411TIP3    H125724   3.598   1.544  14.913 -1.9933  0.9114  0.7339
 1411TIP3    H225725   3.648   1.524  15.055 -1.2898  0.0663  0.3736
 1412TIP3   OH225726   6.562   5.318  13.151  0.3066  0.0379  0.2587
 1412TIP3    H125727   6.570   5.385  13.083  1.8927 -1.8020 -1.3985
 1412TIP3    H225728   6.640   5.331  13.206 -0.0382  0.3601  0.6712
 1413TIP3   OH225729   1.431   0.533   6.365 -0.0191 -0.2786 -0.4011
 1413TIP3    H125730   1.424   0.613   6.314  1.8643  0.0919 -0.1000
 1413TIP3    H225731   1.430   0.562   6.456  1.5469 -0.5108 -0.3011
 1414TIP3   OH225732   6.517   3.844  11.486 -0.0693  0.2085  0.3444
 1414TIP3    H125733   6.530   3.900  11.410  2.2920 -2.5596 -1.3831
 1414TIP3    H225734   6.595   3.857  11.540  0.9433 -2.0507 -0.5293
 1415TIP3   OH225735   4.979   6.653  14.958 -0.2436  0.4302  0.6332
 1415TIP3    H125736   4.997   6.732  14.907 -1.2230  0.4435  0.2960
 1415TIP3    H225737   5.066   6.615  14.974  0.0030 -0.5579 -2.6571
 1416TIP3   OH225738   0.232   0.401  16.304  0.2791 -0.6057 -0.3254
 1416TIP3    H125739   0.285   0.402  16.224 -1.3995  0.8761 -1.4805
 1416TIP3    H225740   0.249   0.486  16.345  0.6830 -1.1245  0.6004
 1417TIP3   OH225741   3.523   0.401   1.799 -0.1792  0.5662 -0.3030
 1417TIP3    H125742   3.487   0.459   1.867 -0.1855  0.7726 -0.4838
 1417TIP3    H225743   3.589   0.349   1.845 -0.7866  0.1082  0.0545
 1418TIP3   OH225744   6.706   6.415   2.770  0.3110 -0.0465  0.1325
 1418TIP3    H125745   6.640   6.419   2.839 -1.0825 -0.5597 -1.1415
 1418TIP3    H225746   6.675   6.346   2.711  1.5845  0.2428 -0.8972
 1419TIP3   OH225747   1.324   1.700  13.142  0.2699  0.5313  0.1745
 1419TIP3    H125748   1.382   1.716  13.068 -0.8526 -0.3132 -0.9165
 1419TIP3    H225749   1.327   1.605  13.155 -1.1091  0.4273 -0.1251
 1420TIP3   OH225750   0.063   0.031   6.124  0.6094  0.1215  0.6093
 1420TIP3    H125751   0.007   0.106   6.139 -0.2774 -0.4218  0.0347
 1420TIP3    H225752   0.144   0.068   6.087  0.6250  0.8931  1.4208
 1421TIP3   OH225753   3.522   5.843  16.295  0.7532  0.6203 -0.0258
 1421TIP3    H125754   3.497   5.822  16.385  1.0266 -0.6643 -0.2376
 1421TIP3    H225755   3.440   5.838  16.245  1.1561 -2.1626 -0.4662
 1422TIP3   OH225756   5.129   1.187  15.538 -0.2845  0.0391  0.4026
 1422TIP3    H125757   5.053   1.197  15.595  2.4038 -1.1699  4.5098
 1422TIP3    H225758   5.181   1.266  15.553 -0.3390  0.5041 -1.7622
 1423TIP3   OH225759   0.421   4.688  16.425 -0.1626 -0.0424 -0.3500
 1423TIP3    H125760   0.332   4.706  16.454  0.0912  0.0875  0.3722
 1423TIP3    H225761   0.472   4.686  16.506  0.5229  0.0888 -0.7784
 1424TIP3   OH225762   4.367   2.350   0.783 -0.3590  0.2589 -0.6454
 1424TIP3    H125763   4.319   2.269   0.797 -0.7955  0.4032 -1.3000
 1424TIP3    H225764   4.441   2.345   0.844 -0.3275 -0.6759 -0.7568
 1425TIP3   OH225765   1.810   4.867  15.313  0.7555 -0.2344 -0.2048
 1425TIP3    H125766   1.901   4.873  15.284  1.3026 -2.5677  0.9629
 1425TIP3    H225767   1.803   4.782  15.356 -1.4379  0.7829  1.5999
 1426TIP3   OH225768   2.030   2.806   1.111  0.0935  0.7465  0.9271
 1426TIP3    H125769   1.995   2.740   1.052 -2.7745  1.7491  1.4137
 1426TIP3    H225770   2.091   2.857   1.057  1.6178 -1.6657  0.3183
 1427TIP3   OH225771   4.993   1.491  15.456  0.0673  0.2243  0.3480
 1427TIP3    H125772   5.066   1.453  15.505  0.8810 -0.5781 -1.4719
 1427TIP3    H225773   5.035   1.537  15.383 -1.2326 -0.0247 -0.5609
 1428TIP3   OH225774   2.963   2.021  13.980  0.4273  0.2854 -0.1297
 1428TIP3    H125775   2.903   2.060  14.044 -1.5110 -0.9758 -1.1307
 1428TIP3    H225776   2.973   2.088  13.912  1.0436  0.9179  0.5687
 1429TIP3   OH225777   0.972   1.540  15.003  0.0930 -0.0770  0.2881
 1429TIP3    H125778   0.877   1.528  14.997  0.3396 -1.6026 -0.6578
 1429TIP3    H225779   0.996   1.506  15.089 -0.1701 -0.0005  0.3906
 1430TIP3   OH225780   1.836   1.972  14.807  0.0608 -0.0878 -0.0299
 1430TIP3    H125781   1.931   1.962  14.800  0.1285 -1.9852  2.6202
 1430TIP3    H225782   1.823   2.066  14.820  1.8737 -0.1235  2.6036
 1431TIP3   OH225783   1.458   3.289  12.802  0.3981 -0.6387 -0.2732
 1431TIP3    H125784   1.430   3.377  12.829  2.6664  0.2444 -0.7278
 1431TIP3    H225785   1.542   3.276  12.845 -0.9302 -3.5364  1.5670
 1432TIP3   OH225786   2.658   2.122  16.370  0.1545  0.8740  0.7004
 1432TIP3    H125787   2.617   2.070  16.301 -1.9304  0.1188  2.4360
 1432TIP3    H225788   2.693   2.058  16.431  1.5977  1.5378  0.6012
 1433TIP3   OH225789   2.751   4.485   6.189  0.2587 -0.2072 -0.7139
 1433TIP3    H125790   2.792   4.473   6.274 -0.3838  0.2844 -0.3260
 1433TIP3    H225791   2.729   4.578   6.186 -0.8295 -0.4571 -0.9012
 1434TIP3   OH225792   1.018   6.080   0.231  0.4218 -0.5456 -0.1897
 1434TIP3    H125793   1.107   6.107   0.252  0.9131 -2.0943 -0.1779
 1434TIP3    H225794   1.013   6.084   0.135  0.8071 -1.3172 -0.2485
 1435TIP3   OH225795   2.826   1.107  11.327 -0.0244  0.2436  0.3158
 1435TIP3    H125796   2.831   1.076  11.236 -3.4073  0.0385  0.1247
 1435TIP3    H225797   2.774   1.041  11.372 -0.6641  1.7025  1.7756
 1436TIP3   OH225798   0.556   4.628   5.910  0.2866  0.5524  0.0185
 1436TIP3    H125799   0.550   4.659   5.820  1.7568  0.8976  0.0276
 1436TIP3    H225800   0.639   4.663   5.942 -1.5315  2.7940  2.4169
 1437TIP3   OH225801   1.304   6.055   5.027 -0.2205  0.4543 -0.1578
 1437TIP3    H125802   1.261   6.138   5.006 -0.9982 -0.0152 -0.4634
 1437TIP3    H225803   1.314   6.011   4.943 -0.6990 -0.1775  0.1064
 1438TIP3   OH225804   1.934   6.269  15.756 -0.3853 -0.0694 -0.1855
 1438TIP3    H125805   1.923   6.229  15.843  0.2522  0.2515  0.0439
 1438TIP3    H225806   1.914   6.361  15.769 -0.1058  0.0131 -0.3421
 1439TIP3   OH225807   4.290   0.088  14.084 -0.2569 -0.4832  0.4089
 1439TIP3    H125808   4.365   0.054  14.133 -0.5983 -2.2809 -0.2849
 1439TIP3    H225809   4.324   0.167  14.041  0.6061 -0.0300  1.8719
 1440TIP3   OH225810   4.765   5.908  12.702  0.2335  0.5890  0.5397
 1440TIP3    H125811   4.782   5.977  12.638 -1.8002  0.3335 -0.3363
 1440TIP3    H225812   4.683   5.935  12.745  0.3465 -0.3967  1.4047
 1441TIP3   OH225813   5.531   3.892   3.922 -0.3059  0.1503 -0.4114
 1441TIP3    H125814   5.551   3.972   3.970  0.6100 -2.1886  3.3129
 1441TIP3    H225815   5.435   3.891   3.915 -0.3241  1.5294 -0.5300
 1442TIP3   OH225816   0.635   5.189  16.747 -0.0014  0.3151 -0.7493
 1442TIP3    H125817   0.703   5.176  16.681 -1.3452  0.2616 -2.1519
 1442TIP3    H225818   0.558   5.145  16.711  0.3287 -3.4672  2.7855
 1443TIP3   OH225819   0.832   6.249  13.480  0.0752  0.4121  0.2410
 1443TIP3    H125820   0.748   6.294  13.491 -0.2309 -0.4284  1.3891
 1443TIP3    H225821   0.897   6.312  13.512  0.1565  2.0589 -2.9524
 1444TIP3   OH225822   5.314   2.087   0.829 -0.3707  0.0166 -0.0333
 1444TIP3    H125823   5.265   2.016   0.872  0.7766 -0.8614 -0.1453
 1444TIP3    H225824   5.359   2.132   0.900  0.5726 -0.6915 -0.1645
 1445TIP3   OH225825   0.271   2.010  11.619  0.5820 -0.0602 -0.2148
 1445TIP3    H125826   0.347   2.052  11.581  0.5210 -1.7414 -2.2587
 1445TIP3    H225827   0.289   1.916  11.612 -1.1841 -0.4609  0.2857
 1446TIP3   OH225828   4.830   1.681   1.444 -0.4066 -0.2659  0.5264
 1446TIP3    H125829   4.815   1.596   1.485  0.3846 -1.5123 -1.7071
 1446TIP3    H225830   4.896   1.723   1.500 -0.8807 -1.0548  1.6965
 1447TIP3   OH225831   2.965   6.448  12.202 -0.0756 -0.8616  0.1482
 1447TIP3    H125832   2.943   6.449  12.109  0.6915 -0.9544 -0.0392
 1447TIP3    H225833   2.907   6.382  12.240 -2.3451  1.0918  0.2423
 1448TIP3   OH225834   1.740   5.851   6.193 -0.1089  0.1541  0.5030
 1448TIP3    H125835   1.713   5.906   6.267 -0.5079  1.4483 -0.5994
 1448TIP3    H225836   1.678   5.778   6.194 -0.3586  0.3678  1.2013
 1449TIP3   OH225837   2.385   5.640  11.578  0.4162 -0.0749 -0.2859
 1449TIP3    H125838   2.423   5.708  11.522  3.3295 -0.4235  1.1697
 1449TIP3    H225839   2.458   5.584  11.601 -1.3152 -1.7506  1.3306
 1450TIP3   OH225840   2.982   1.374  12.538 -0.1169 -0.2862 -0.1863
 1450TIP3    H125841   2.931   1.365  12.457 -2.1960 -0.8798  1.1674
 1450TIP3    H225842   2.983   1.468  12.555  0.8283 -0.1026 -1.2032
 1451TIP3   OH225843   2.483   2.641   4.237  0.6102  0.0539  1.1877
 1451TIP3    H125844   2.538   2.644   4.158 -0.8258  1.3169  0.2202
 1451TIP3    H225845   2.540   2.674   4.306  2.1708 -1.8778  0.8854
 1452TIP3   OH225846   3.022   1.200   5.370 -0.8349  0.0300 -0.0028
 1452TIP3    H125847   3.085   1.128   5.366 -2.5614 -1.5192 -0.2344
 1452TIP3    H225848   3.071   1.273   5.409  1.0794 -1.1202 -0.1833
 1453TIP3   OH225849   0.203   2.180  11.306  0.6829  0.4598  0.0666
 1453TIP3    H125850   0.227   2.272  11.320 -0.1593  0.8877 -1.2369
 1453TIP3    H225851   0.194   2.172  11.211  0.8634 -1.0107  0.1631
 1454TIP3   OH225852   6.232   3.901   2.932  0.1328 -0.1733 -0.3303
 1454TIP3    H125853   6.175   3.876   3.004  0.9600  0.2678  0.4801
 1454TIP3    H225854   6.229   3.827   2.871  0.2482 -0.9706  0.6376
 1455TIP3   OH225855   4.808   5.507  15.592 -0.0220  0.3733  0.7597
 1455TIP3    H125856   4.783   5.487  15.502  0.8536 -0.0031  0.5942
 1455TIP3    H225857   4.776   5.595  15.607  0.8536  0.8886 -0.3184
 1456TIP3   OH225858   5.035   0.893   5.888 -0.3966  0.3211 -0.3719
 1456TIP3    H125859   4.978   0.863   5.816  0.1950 -0.7890 -0.3968
 1456TIP3    H225860   5.048   0.986   5.872  0.1681 -0.0264 -2.0260
 1457TIP3   OH225861   5.915   5.811   2.346 -0.3860  0.2575  0.5305
 1457TIP3    H125862   5.978   5.869   2.389 -0.9677  0.2965  1.3502
 1457TIP3    H225863   5.910   5.842   2.256  1.4690 -0.3357  0.2064
 1458TIP3   OH225864   6.813   4.973  13.192 -0.1228  0.3398 -0.5435
 1458TIP3    H125865   6.726   4.934  13.182 -0.7753  1.9307 -1.1455
 1458TIP3    H225866   6.851   4.970  13.104  0.5617 -0.6077 -0.2293
 1459TIP3   OH225867   5.855   1.358   1.147  0.7020  0.2058 -0.2508
 1459TIP3    H125868   5.908   1.346   1.068  0.2804  0.9848 -0.6493
 1459TIP3    H225869   5.770   1.388   1.116 -0.4364 -2.2981  0.2929
 1460TIP3   OH225870   4.415   5.401   1.549  0.1433  0.2340  0.6401
 1460TIP3    H125871   4.421   5.420   1.642  0.1071 -1.1346  0.9452
 1460TIP3    H225872   4.472   5.325   1.537 -0.2113  0.1156 -0.3622
 1461TIP3   OH225873   4.293   5.753  11.010 -1.0125 -0.0282 -0.0416
 1461TIP3    H125874   4.353   5.760  10.936  0.8071 -0.9917  1.3058
 1461TIP3    H225875   4.213   5.795  10.980 -0.1129  0.0916 -2.3548
 1462TIP3   OH225876   5.358   3.837  13.652 -0.6197 -0.2461 -0.4331
 1462TIP3    H125877   5.411   3.848  13.573 -0.4115  0.4700 -0.1932
 1462TIP3    H225878   5.277   3.885  13.635 -0.0369  1.0041  0.2974
 1463TIP3   OH225879   1.176   4.741   5.044 -0.8105  0.0694  0.1216
 1463TIP3    H125880   1.125   4.818   5.069  0.4200  2.2619 -3.6368
 1463TIP3    H225881   1.267   4.771   5.042 -0.2346 -1.6322 -0.7336
 1464TIP3   OH225882   0.160   0.236  11.872 -0.0136  0.5503 -0.4944
 1464TIP3    H125883   0.088   0.218  11.933  0.6916  1.2028  0.5401
 1464TIP3    H225884   0.234   0.187  11.908  0.3705  0.8285 -0.9148
 1465TIP3   OH225885   1.038   3.194  12.064  0.4446 -0.0896 -0.0576
 1465TIP3    H125886   1.101   3.145  12.116  0.2982 -2.4033 -1.9460
 1465TIP3    H225887   1.081   3.207  11.979  0.0023  2.0363  0.0095
 1466TIP3   OH225888   1.776   3.047  15.086  0.1097 -0.0630 -0.3246
 1466TIP3    H125889   1.868   3.031  15.065 -0.7261 -3.0575 -2.0274
 1466TIP3    H225890   1.740   3.087  15.007  0.0354  1.6459  0.5475
 1467TIP3   OH225891   2.845   6.583   0.988  0.0886  0.0375  0.1529
 1467TIP3    H125892   2.825   6.530   0.911 -2.1069 -1.7766  1.8962
 1467TIP3    H225893   2.807   6.669   0.968 -0.4349 -0.4080 -0.7909
 1468TIP3   OH225894   3.635   4.208  15.196 -0.2869  0.3287  0.9373
 1468TIP3    H125895   3.673   4.213  15.108  0.2491 -0.0191  1.1528
 1468TIP3    H225896   3.545   4.239  15.184 -1.2755 -2.8698 -0.3809
 1469TIP3   OH225897   5.215   4.125  14.683  0.6156 -0.2044 -0.4862
 1469TIP3    H125898   5.138   4.085  14.643  1.0726 -0.2312 -1.3688
 1469TIP3    H225899   5.251   4.057  14.740 -0.8798  0.3411  1.1227
 1470TIP3   OH225900   3.071   1.370  16.512  0.2568 -0.0752 -0.5140
 1470TIP3    H125901   3.085   1.464  16.501  0.2906  0.2177  1.7848
 1470TIP3    H225902   3.007   1.363  16.582 -0.3453 -1.7710 -1.2028
 1471TIP3   OH225903   6.596   3.841   5.238 -0.2174 -0.2670 -0.4814
 1471TIP3    H125904   6.626   3.875   5.153 -0.6832 -0.2621 -0.6436
 1471TIP3    H225905   6.530   3.904   5.267 -0.9968 -0.9624 -0.7249
 1472TIP3   OH225906   1.880   1.098   5.337 -0.6488 -0.1976  0.3009
 1472TIP3    H125907   1.805   1.057   5.294 -0.6125  1.6072 -1.5916
 1472TIP3    H225908   1.889   1.183   5.293  1.9191  0.0166  1.1385
 1473TIP3   OH225909   4.751   0.796   5.819  0.2534  0.3020  0.2439
 1473TIP3    H125910   4.761   0.867   5.882 -0.8093  1.8772 -1.3071
 1473TIP3    H225911   4.657   0.776   5.820  0.5668 -1.1979  0.7715
 1474TIP3   OH225912   1.615   0.841   2.766 -0.7018  0.1521  0.2352
 1474TIP3    H125913   1.539   0.841   2.825 -1.6092 -0.7026 -0.9085
 1474TIP3    H225914   1.590   0.783   2.695  0.9873 -0.0235 -0.2384
 1475TIP3   OH225915   5.270   0.415  12.685 -0.5729 -0.5043  0.8334
 1475TIP3    H125916   5.261   0.510  12.693 -0.5797 -0.4907  0.6742
 1475TIP3    H225917   5.239   0.381  12.768  1.3148 -0.2551  1.6832
 1476TIP3   OH225918   4.303   1.233   5.924  0.1261  0.3641 -0.1338
 1476TIP3    H125919   4.306   1.286   5.844 -2.4721 -0.4693 -0.8456
 1476TIP3    H225920   4.333   1.292   5.993 -0.7928  2.1422 -1.2173
 1477TIP3   OH225921   4.669   0.979  12.059  0.2399 -0.1282 -0.1938
 1477TIP3    H125922   4.660   0.933  12.143  0.0784 -1.2082 -0.7921
 1477TIP3    H225923   4.592   0.951  12.009  0.4352  0.3734 -0.7772
 1478TIP3   OH225924   3.475   1.635   0.102 -0.2279  0.1814 -0.3367
 1478TIP3    H125925   3.431   1.712   0.067  0.4501 -0.2063 -2.1434
 1478TIP3    H225926   3.410   1.565   0.097  0.2914 -0.2228 -2.3368
 1479TIP3   OH225927   3.242   3.675   5.878  0.0895  0.1162 -0.3754
 1479TIP3    H125928   3.330   3.675   5.842  0.3688 -1.0615  0.2680
 1479TIP3    H225929   3.222   3.583   5.894 -0.9725  0.4221  0.1690
 1480TIP3   OH225930   4.250   1.399  13.707  0.0213  0.0122  0.0706
 1480TIP3    H125931   4.308   1.338  13.753 -0.6232  0.5193  1.6010
 1480TIP3    H225932   4.215   1.349  13.634  0.7346 -0.9580  0.3814
 1481TIP3   OH225933   1.896   4.236  10.807 -0.3797 -0.6625  0.1021
 1481TIP3    H125934   1.913   4.224  10.714  0.3267 -0.1735  0.1628
 1481TIP3    H225935   1.851   4.320  10.813  0.9390  0.0429  0.3374
 1482TIP3   OH225936   3.850   6.065  16.867  0.3689  0.0994  0.1895
 1482TIP3    H125937   3.944   6.082  16.866  0.4108 -0.1289 -0.6091
 1482TIP3    H225938   3.842   5.973  16.842  0.0038 -0.2853  1.6983
 1483TIP3   OH225939   2.570   0.800   2.816 -0.5120 -0.2985  0.5838
 1483TIP3    H125940   2.619   0.783   2.736 -0.2884 -1.1272  0.8946
 1483TIP3    H225941   2.485   0.757   2.802 -0.4664 -0.4589  0.7943
 1484TIP3   OH225942   5.910   4.246   3.680  0.1490  0.0051 -0.3098
 1484TIP3    H125943   5.899   4.155   3.706  0.7295  0.2486  0.8608
 1484TIP3    H225944   5.837   4.293   3.721  1.3762  0.4788  1.3982
 1485TIP3   OH225945   4.357   3.272  12.252 -0.0487 -0.0208 -0.4346
 1485TIP3    H125946   4.293   3.268  12.180 -0.8192 -0.4187  0.2674
 1485TIP3    H225947   4.313   3.322  12.320  1.5488  2.3951 -1.0974
 1486TIP3   OH225948   5.798   1.786  11.361 -0.3633  0.0794  0.0688
 1486TIP3    H125949   5.784   1.873  11.396 -1.3877 -0.6322  1.4803
 1486TIP3    H225950   5.835   1.800  11.273  1.1936  1.8966  0.9877
 1487TIP3   OH225951   6.813   2.410   3.164  0.0201 -0.1975  0.2577
 1487TIP3    H125952   6.904   2.437   3.180 -0.3313  0.6758  0.8254
 1487TIP3    H225953   6.820   2.338   3.102  1.0820  0.1061  0.0151
 1488TIP3   OH225954   2.853   2.725  10.658  0.0078 -1.1645  0.3215
 1488TIP3    H125955   2.850   2.820  10.654  1.4190 -1.0843  0.7341
 1488TIP3    H225956   2.770   2.699  10.697 -1.7026 -0.2925 -2.6405
 1489TIP3   OH225957   4.063   5.132  13.126  0.5581 -0.5358 -0.4817
 1489TIP3    H125958   3.968   5.139  13.122  0.3764 -0.7117  2.1765
 1489TIP3    H225959   4.093   5.221  13.142  0.7127 -0.6738  0.0271
 1490TIP3   OH225960   2.212   2.089   2.699  0.0583  0.2529  0.2787
 1490TIP3    H125961   2.273   2.163   2.697  0.4985 -0.1209 -1.0397
 1490TIP3    H225962   2.133   2.122   2.657  0.2434  0.0000 -0.2806
 1491TIP3   OH225963   0.421   0.127   0.986 -0.3071 -0.0224  0.1055
 1491TIP3    H125964   0.509   0.148   0.955 -0.1876 -0.4050  0.1852
 1491TIP3    H225965   0.435   0.058   1.051 -0.7824 -1.0454 -0.8643
 1492TIP3   OH225966   0.604   4.525  17.155  0.1628 -0.5014  0.8023
 1492TIP3    H125967   0.526   4.480  17.122  0.0775 -1.3277  2.1083
 1492TIP3    H225968   0.570   4.588  17.219  0.4524  0.0910  0.3760
 1493TIP3   OH225969   4.959   2.522  12.947  0.1721 -0.4468  0.3406
 1493TIP3    H125970   4.993   2.498  12.861 -0.8376 -0.4552 -0.0681
 1493TIP3    H225971   4.952   2.440  12.995 -1.1302 -0.7091 -0.2678
 1494TIP3   OH225972   6.317   5.413   1.453 -0.0579  0.3588 -0.2688
 1494TIP3    H125973   6.226   5.398   1.426 -0.4901  1.0634  0.7611
 1494TIP3    H225974   6.334   5.505   1.431 -0.3591  0.8983  1.6233
 1495TIP3   OH225975   5.235   6.029  11.720  0.0815 -0.0411  0.1597
 1495TIP3    H125976   5.236   5.953  11.778 -0.2562 -0.6467 -0.6334
 1495TIP3    H225977   5.323   6.033  11.684  0.3032  0.3549  0.7244
 1496TIP3   OH225978   5.327   0.490   3.689 -0.0294 -0.6396  0.3601
 1496TIP3    H125979   5.238   0.473   3.657 -0.3211  0.1491  0.7517
 1496TIP3    H225980   5.338   0.430   3.763  0.3741 -1.9322 -0.7274
 1497TIP3   OH225981   2.300   3.824  16.267 -0.2945  0.2679  0.0890
 1497TIP3    H125982   2.284   3.795  16.357 -2.0044  0.0993 -0.2492
 1497TIP3    H225983   2.214   3.855  16.237  0.3188  0.5205 -1.4057
 1498TIP3   OH225984   6.537   1.097   5.168 -0.0029 -0.1358 -0.4420
 1498TIP3    H125985   6.562   1.137   5.085  1.5120  1.7049  0.8612
 1498TIP3    H225986   6.459   1.145   5.196  0.3079  0.1852 -0.1246
 1499TIP3   OH225987   4.362   0.884   6.403 -0.0791 -0.3427 -0.4162
 1499TIP3    H125988   4.371   0.817   6.471 -1.1364 -1.5239 -1.4145
 1499TIP3    H225989   4.271   0.876   6.374 -0.0975  1.2474 -0.8465
 1500TIP3   OH225990   1.597   3.407   3.288  0.9732  0.0556  0.3206
 1500TIP3    H125991   1.628   3.495   3.310  0.9032  0.5432 -1.3902
 1500TIP3    H225992   1.650   3.382   3.212  0.1160 -0.8647  0.0165
 1501TIP3   OH225993   0.620   2.085  14.290  0.2684  0.0563 -0.7959
 1501TIP3    H125994   0.624   2.154  14.225  1.3663  1.2782  0.5336
 1501TIP3    H225995   0.527   2.068  14.301  0.0547  0.1428 -2.3450
 1502TIP3   OH225996   3.383   1.215   3.331  0.0559 -0.0297 -0.1018
 1502TIP3    H125997   3.455   1.276   3.341 -1.5576  1.7077  1.2993
 1502TIP3    H225998   3.333   1.248   3.257 -0.7713  0.3327  0.6039
 1503TIP3   OH225999   5.517   5.399  13.791 -0.1684  0.3114 -0.1031
 1503TIP3    H126000   5.526   5.421  13.699 -1.0086  0.1734 -0.2249
 1503TIP3    H226001   5.572   5.322  13.804  0.0419  0.4029 -0.4563
 1504TIP3   OH226002   0.843   3.470   3.828 -0.3030 -0.0357  0.0822
 1504TIP3    H126003   0.894   3.537   3.874  2.1310 -2.2030  0.6309
 1504TIP3    H226004   0.775   3.520   3.782  0.8172  2.7124  1.2680
 1505TIP3   OH226005   4.184   6.027  16.005  0.2001  0.0650  0.1077
 1505TIP3    H126006   4.125   6.023  15.929 -0.2894 -0.8965  0.5264
 1505TIP3    H226007   4.132   5.990  16.077  0.3269  1.8312  1.1334
 1506TIP3   OH226008   3.787   6.817   2.575 -0.3413 -0.1068  0.7899
 1506TIP3    H126009   3.859   6.789   2.519 -0.1070 -0.3921  1.2271
 1506TIP3    H226010   3.712   6.764   2.547 -0.4247  0.3126  0.2205
 1507TIP3   OH226011   2.132   0.093  15.412  0.2215 -0.2974 -0.3118
 1507TIP3    H126012   2.180   0.088  15.329 -0.4077  1.0998 -0.7809
 1507TIP3    H226013   2.127   0.187  15.430 -2.2911 -0.4126 -0.2386
 1508TIP3   OH226014   5.214   1.523   1.845  0.1724  0.5790 -0.8651
 1508TIP3    H126015   5.195   1.554   1.756  0.3657  0.7930 -0.8315
 1508TIP3    H226016   5.254   1.437   1.832  0.3134  0.6643 -0.9892
 1509TIP3   OH226017   2.164   4.795   3.341 -0.0234  0.1585  0.3290
 1509TIP3    H126018   2.126   4.820   3.425  0.8904 -0.0640  0.8165
 1509TIP3    H226019   2.108   4.837   3.276  0.7502  2.4903  1.1041
 1510TIP3   OH226020   2.497   6.331  17.270 -0.0281 -0.3561  0.2352
 1510TIP3    H126021   2.568   6.395  17.273 -1.0183  0.8496 -1.0979
 1510TIP3    H226022   2.476   6.323  17.176 -1.4469 -0.9113  0.5847
 1511TIP3   OH226023   2.506   4.910   2.198  0.6488 -0.3178  0.3578
 1511TIP3    H126024   2.565   4.950   2.262  1.4410 -1.8492  0.6023
 1511TIP3    H226025   2.530   4.950   2.114  0.3811  0.8524  0.8295
 1512TIP3   OH226026   1.634   1.375  16.945  0.5501 -0.4029 -0.4130
 1512TIP3    H126027   1.612   1.385  17.037 -0.6509 -0.8547 -0.6470
 1512TIP3    H226028   1.591   1.294  16.918  1.1253 -0.4259 -1.3021
 1513TIP3   OH226029   4.889   1.159   4.199  0.0355  0.2755  0.0432
 1513TIP3    H126030   4.803   1.200   4.212 -0.3858 -0.9875  1.4969
 1513TIP3    H226031   4.952   1.230   4.210 -0.7862  1.0143 -0.0038
 1514TIP3   OH226032   5.689   3.582   6.184  0.6188 -0.2702  0.5817
 1514TIP3    H126033   5.636   3.559   6.107  0.3245  2.3840 -0.0692
 1514TIP3    H226034   5.625   3.614   6.247  1.2703  1.3809  0.4117
 1515TIP3   OH226035   0.636   6.077   5.291  0.0893  0.5346  0.4899
 1515TIP3    H126036   0.541   6.068   5.286  0.2322 -0.5968 -0.4251
 1515TIP3    H226037   0.664   6.090   5.201  0.6831  2.2862  0.9206
 1516TIP3   OH226038   1.373   5.521  12.932 -0.7532  0.4049  0.0292
 1516TIP3    H126039   1.325   5.554  13.008 -0.2162  1.2881 -0.0180
 1516TIP3    H226040   1.460   5.501  12.965 -1.0001 -0.7832  0.0109
 1517TIP3   OH226041   1.585   6.322   5.534 -0.3693  0.0287 -0.3571
 1517TIP3    H126042   1.645   6.305   5.462  0.5611 -1.3453  0.7245
 1517TIP3    H226043   1.498   6.303   5.498  0.1321 -1.1305 -0.9769
 1518TIP3   OH226044   2.663   3.856  12.891  0.0157  0.4388 -0.2492
 1518TIP3    H126045   2.617   3.823  12.968  1.4932 -0.2171  0.3587
 1518TIP3    H226046   2.618   3.938  12.871  0.0563  0.9839  1.7484
 1519TIP3   OH226047   2.484   6.192   5.045 -0.1186  0.5972 -0.3501
 1519TIP3    H126048   2.520   6.264   4.994 -0.0361 -0.2569 -1.5006
 1519TIP3    H226049   2.516   6.208   5.134  0.2266  1.7566 -0.6701
 1520TIP3   OH226050   5.933   2.482   1.749  0.5706 -0.2458 -0.0381
 1520TIP3    H126051   5.898   2.548   1.809 -1.9771 -1.5090 -0.0494
 1520TIP3    H226052   5.981   2.421   1.806  1.3000  0.5749  0.2251
 1521TIP3   OH226053   3.441   3.071   1.261  0.0783  0.2991 -0.2881
 1521TIP3    H126054   3.425   3.024   1.179  0.1516  1.0968 -0.7639
 1521TIP3    H226055   3.370   3.044   1.318  0.6869 -1.1740 -0.2112
 1522TIP3   OH226056   5.652   4.730   5.582  0.0885  0.1205 -0.3987
 1522TIP3    H126057   5.728   4.689   5.540  0.4817 -0.4299  0.8380
 1522TIP3    H226058   5.601   4.657   5.614  0.1202  0.5625  0.6629
 1523TIP3   OH226059   5.869   4.143   1.443 -0.6995  0.3579 -0.1932
 1523TIP3    H126060   5.776   4.121   1.439 -0.2878 -1.4537 -0.0618
 1523TIP3    H226061   5.882   4.176   1.532 -0.6344 -2.2285  0.7914
 1524TIP3   OH226062   4.438   2.081  16.649 -0.7167  0.0731 -0.0138
 1524TIP3    H126063   4.458   2.019  16.719  2.4208  2.4527  1.3293
 1524TIP3    H226064   4.479   2.042  16.571  1.8896  0.7292  0.9669
 1525TIP3   OH226065   2.148   3.286   4.106  0.2625 -0.7447 -0.1410
 1525TIP3    H126066   2.117   3.372   4.076  1.2823  1.1562  3.8084
 1525TIP3    H226067   2.074   3.250   4.155 -1.1383 -3.4694 -4.0554
 1526TIP3   OH226068   4.815   1.994  14.736  0.3692  0.2485 -0.3739
 1526TIP3    H126069   4.768   1.968  14.657 -0.7925  1.0767  0.0254
 1526TIP3    H226070   4.802   1.921  14.797  0.1631  0.1837 -0.4973
 1527TIP3   OH226071   0.094   5.131  12.619 -0.3879 -0.4589  0.3595
 1527TIP3    H126072   0.105   5.195  12.550 -1.8737  0.0361  0.5733
 1527TIP3    H226073   0.178   5.085  12.622  0.6786  1.4061  0.1532
 1528TIP3   OH226074   0.511   5.708  13.255 -0.6109  0.4030  0.2623
 1528TIP3    H126075   0.586   5.746  13.301 -0.7767 -1.6938  2.3181
 1528TIP3    H226076   0.504   5.619  13.289 -3.2284  0.1357 -0.8671
 1529TIP3   OH226077   6.507   3.189  14.988 -0.6580 -0.4284  0.6787
 1529TIP3    H126078   6.415   3.214  14.979 -0.5830  0.2479  1.6965
 1529TIP3    H226079   6.555   3.253  14.936 -0.7617 -0.8585  0.0422
 1530TIP3   OH226080   5.423   5.162   1.353 -0.0093  0.5199  0.0307
 1530TIP3    H126081   5.341   5.148   1.400  0.1780  0.5086  0.3546
 1530TIP3    H226082   5.490   5.158   1.420  0.6434 -3.3359 -0.7065
 1531TIP3   OH226083   1.386   0.839  11.110 -0.1153 -0.0530  0.4298
 1531TIP3    H126084   1.310   0.875  11.156 -1.3931  0.9465 -2.3434
 1531TIP3    H226085   1.373   0.866  11.019  2.6613 -1.4115 -0.4002
 1532TIP3   OH226086   0.846   5.883  14.086  0.6843  0.0643 -0.0666
 1532TIP3    H126087   0.830   5.972  14.118  1.3379 -0.1794  0.9467
 1532TIP3    H226088   0.789   5.827  14.140  0.9749 -0.2353 -0.0688
 1533TIP3   OH226089   1.289   4.649  12.427 -0.3160  0.0439 -0.1743
 1533TIP3    H126090   1.307   4.666  12.519 -0.4250 -1.0161  0.0482
 1533TIP3    H226091   1.328   4.723  12.381  1.8759 -0.6261  0.5424
 1534TIP3   OH226092   6.020   5.883  16.211  0.3014  0.1974  0.1849
 1534TIP3    H126093   6.030   5.793  16.241 -1.7229  0.4530  1.7229
 1534TIP3    H226094   6.097   5.929  16.245 -0.6536 -0.1006  2.8991
 1535TIP3   OH226095   6.696   2.986  14.203  0.3826  0.1581  0.1730
 1535TIP3    H126096   6.717   3.046  14.132  0.7504 -0.9837 -0.7016
 1535TIP3    H226097   6.617   3.023  14.242  0.3807  1.0017 -0.5951
 1536TIP3   OH226098   5.534   5.524  17.230  0.3029  0.3796 -0.4235
 1536TIP3    H126099   5.449   5.551  17.267  0.8453  2.5499 -0.6846
 1536TIP3    H226100   5.520   5.526  17.135 -0.0651 -1.7569 -0.4379
 1537TIP3   OH226101   2.258   0.203   2.443 -0.3034 -0.0102 -0.0559
 1537TIP3    H126102   2.312   0.201   2.522 -1.9265 -1.2705  1.0590
 1537TIP3    H226103   2.318   0.230   2.373  0.8748  2.3417  1.8080
 1538TIP3   OH226104   1.999   0.674   5.487  0.3006 -0.2225 -0.2399
 1538TIP3    H126105   2.077   0.721   5.458  1.4973 -2.3144 -0.5574
 1538TIP3    H226106   1.996   0.690   5.581 -0.2373  1.7894 -0.5907
 1539TIP3   OH226107   1.275   0.411  14.488 -0.8877  0.2647  0.0015
 1539TIP3    H126108   1.334   0.487  14.487  0.0657 -0.4584 -0.2738
 1539TIP3    H226109   1.303   0.360  14.565 -1.6261  0.2781  0.2784
 1540TIP3   OH226110   6.249   4.162  16.085  0.0788 -0.3407 -0.4308
 1540TIP3    H126111   6.161   4.186  16.056 -0.6413  0.6725  2.4250
 1540TIP3    H226112   6.294   4.246  16.096  1.5913 -0.8716 -2.3049
 1541TIP3   OH226113   6.173   1.819  15.187  0.4222 -0.3265 -0.4962
 1541TIP3    H126114   6.214   1.863  15.262  1.3312  0.3409 -1.3639
 1541TIP3    H226115   6.081   1.844  15.193  0.5313 -0.0779  0.2691
 1542TIP3   OH226116   5.581   3.927   2.045  0.2283 -0.2906 -0.5071
 1542TIP3    H126117   5.555   4.014   2.014  0.2888 -0.2533 -0.4530
 1542TIP3    H226118   5.641   3.895   1.977 -1.9986 -1.4583 -1.9552
 1543TIP3   OH226119   5.057   1.196   0.958 -1.0077  0.1529  0.1262
 1543TIP3    H126120   5.115   1.120   0.962 -0.7445  0.3039 -0.6243
 1543TIP3    H226121   5.078   1.237   0.874 -1.5040  0.7702  0.3000
 1544TIP3   OH226122   3.181   2.488  13.118  0.0286  0.0876  0.1407
 1544TIP3    H126123   3.195   2.555  13.051  0.5790 -1.2694 -1.1391
 1544TIP3    H226124   3.094   2.508  13.153  0.1916  1.4763 -0.1988
 1545TIP3   OH226125   0.815   1.217   0.028 -0.4638 -0.0876  0.0129
 1545TIP3    H126126   0.723   1.202   0.046 -0.8046 -0.4570 -1.9010
 1545TIP3    H226127   0.821   1.217  -0.068  1.7942 -1.8194  0.1038
 1546TIP3   OH226128   2.450   0.935   3.476 -0.5014 -0.0476 -0.0873
 1546TIP3    H126129   2.521   0.973   3.528 -0.4546 -2.4018  1.6783
 1546TIP3    H226130   2.489   0.920   3.390  1.2481 -1.4606  0.9103
 1547TIP3   OH226131   6.179   2.976  15.421  0.2330  0.0420 -0.1923
 1547TIP3    H126132   6.249   3.036  15.448  0.2253 -0.2342  0.4641
 1547TIP3    H226133   6.136   2.953  15.503 -2.3101  2.2732 -0.8356
 1548TIP3   OH226134   2.783   3.019   5.660  0.4351  0.1924  1.1660
 1548TIP3    H126135   2.783   2.951   5.727  0.3786 -0.0093  0.9601
 1548TIP3    H226136   2.826   2.978   5.584  0.0129  0.2451  0.8985
 1549TIP3   OH226137   0.195   2.839  13.077  0.0814  0.5311 -0.2514
 1549TIP3    H126138   0.120   2.790  13.111 -0.1298  0.4100 -0.8821
 1549TIP3    H226139   0.165   2.873  12.993  0.0485  2.1901  0.4055
 1550TIP3   OH226140   5.798   0.169   3.837 -0.0104 -0.3385 -0.0612
 1550TIP3    H126141   5.811   0.215   3.754  0.8663  0.0800  0.3037
 1550TIP3    H226142   5.877   0.117   3.848 -0.9803 -1.9026 -0.4426
 1551TIP3   OH226143   0.826   0.139  16.664  0.5736 -0.4165 -0.0238
 1551TIP3    H126144   0.878   0.137  16.584 -0.0977 -1.8047 -0.4369
 1551TIP3    H226145   0.889   0.120  16.734  0.9217 -0.4879 -0.3531
 1552TIP3   OH226146   3.260   5.045  12.804  0.1367 -0.2171 -0.7101
 1552TIP3    H126147   3.353   5.065  12.804  0.0514  0.1831 -0.9220
 1552TIP3    H226148   3.231   5.066  12.893  0.4089 -1.1105 -0.4043
 1553TIP3   OH226149   0.375   2.955   3.168 -0.3472  0.6240 -0.0444
 1553TIP3    H126150   0.310   2.907   3.116  3.1707 -3.1335 -1.2781
 1553TIP3    H226151   0.402   3.028   3.111 -0.0979 -0.5877 -1.5275
 1554TIP3   OH226152   5.352   6.223   5.855 -0.0490  0.2923  0.4381
 1554TIP3    H126153   5.266   6.234   5.814 -0.0708  0.1458  0.4452
 1554TIP3    H226154   5.373   6.310   5.889  0.5006  0.7133 -0.9207
 1555TIP3   OH226155   5.714   3.345  15.045 -0.4579 -0.3809  0.1656
 1555TIP3    H126156   5.757   3.285  15.107 -0.4365 -0.3770  0.1547
 1555TIP3    H226157   5.649   3.391  15.098 -1.2336 -1.2056 -0.0641
 1556TIP3   OH226158   1.998   3.161  16.235 -0.0989  0.1431 -0.4071
 1556TIP3    H126159   2.044   3.109  16.301 -0.5096  0.4756  0.1482
 1556TIP3    H226160   1.947   3.097  16.185  0.5449 -0.1626 -0.6850
 1557TIP3   OH226161   5.043   4.294  16.003 -0.3245  0.0378  0.2192
 1557TIP3    H126162   5.037   4.240  15.924 -1.1013 -0.6977  0.7688
 1557TIP3    H226163   5.087   4.238  16.067  2.3060  1.4051 -0.3377
 1558TIP3   OH226164   2.138   2.562  12.282 -0.2694 -0.5774 -0.1015
 1558TIP3    H126165   2.156   2.638  12.337  0.1005 -0.7487  0.0151
 1558TIP3    H226166   2.047   2.573  12.255 -0.0009  0.2810 -0.6696
 1559TIP3   OH226167   3.784   4.809  10.483 -0.0707  0.2613 -0.0977
 1559TIP3    H126168   3.760   4.786  10.572 -2.7550  1.1331 -0.5432
 1559TIP3    H226169   3.730   4.751  10.428  1.3967 -0.1225 -1.1560
 1560TIP3   OH226170   6.541   0.332  13.506 -0.3452 -0.7020 -0.3945
 1560TIP3    H126171   6.447   0.323  13.519  0.0715 -1.0080  2.8152
 1560TIP3    H226172   6.578   0.248  13.532  1.0875  0.5969  2.0296
 1561TIP3   OH226173   0.399   4.736  11.904  0.6096 -0.1486  0.5552
 1561TIP3    H126174   0.458   4.801  11.943 -2.0904  2.3354  0.6742
 1561TIP3    H226175   0.321   4.739  11.960 -1.9208  0.8803 -2.8721
 1562TIP3   OH226176   6.321   4.110   5.769  0.6483 -0.2083  0.3171
 1562TIP3    H126177   6.288   4.198   5.749 -0.6278 -0.9360 -0.8831
 1562TIP3    H226178   6.341   4.112   5.863 -0.6778  0.9594  0.5886
 1563TIP3   OH226179   1.059   2.161   3.068  0.0246  0.5346 -0.3157
 1563TIP3    H126180   1.080   2.084   3.120 -0.0415 -0.0289 -1.1196
 1563TIP3    H226181   1.028   2.226   3.132 -1.9059 -0.7827  0.1223
 1564TIP3   OH226182   4.532   0.220   5.047 -0.1484 -0.2253  0.0921
 1564TIP3    H126183   4.503   0.159   4.979 -0.3287 -0.4737  0.3891
 1564TIP3    H226184   4.620   0.190   5.069 -0.6056 -0.9799  0.9261
 1565TIP3   OH226185   0.166   5.518   4.687  0.0526 -0.4462 -0.0271
 1565TIP3    H126186   0.093   5.461   4.713 -1.6442  2.1664  1.1321
 1565TIP3    H226187   0.233   5.501   4.753 -1.0494  0.0325  1.2398
 1566TIP3   OH226188   5.127   2.432   5.371  0.1265 -0.4830  0.2618
 1566TIP3    H126189   5.164   2.376   5.303 -0.7179 -1.4522  0.5799
 1566TIP3    H226190   5.034   2.409   5.372 -0.1567  0.6681  0.6526
 1567TIP3   OH226191   0.919   3.816  12.542 -0.9695  0.6843 -0.2181
 1567TIP3    H126192   0.865   3.805  12.620 -0.9780 -0.8706 -0.4279
 1567TIP3    H226193   0.984   3.746  12.547  0.7037  2.1967 -0.2610
 1568TIP3   OH226194   0.524   4.226  16.694 -0.0624  0.0616  0.2373
 1568TIP3    H126195   0.556   4.179  16.617  0.1371 -0.4298  0.6206
 1568TIP3    H226196   0.532   4.164  16.766  1.4367  1.0787  0.9971
 1569TIP3   OH226197   5.335   6.556   4.316 -0.4455 -0.2841  0.5482
 1569TIP3    H126198   5.371   6.645   4.310  0.6893 -0.7765 -0.1390
 1569TIP3    H226199   5.323   6.529   4.225 -0.8797 -0.8088  0.7557
 1570TIP3   OH226200   0.564   3.523  12.490  0.3039  0.4257  0.5417
 1570TIP3    H126201   0.639   3.525  12.429  1.0333  0.3986  1.4301
 1570TIP3    H226202   0.505   3.591  12.456  0.4828  0.0923 -0.4674
 1571TIP3   OH226203   6.595   4.928  14.144 -0.5485  0.2875 -0.6439
 1571TIP3    H126204   6.581   4.864  14.074  0.2330  0.6815 -1.1746
 1571TIP3    H226205   6.624   4.876  14.219 -1.6659 -0.1699 -0.5125
 1572TIP3   OH226206   6.061   2.387  14.225 -0.3581  0.4417 -0.0528
 1572TIP3    H126207   6.085   2.360  14.137  2.0061 -1.1617  1.0227
 1572TIP3    H226208   5.976   2.346  14.241 -0.2993 -0.1277 -1.1974
 1573TIP3   OH226209   2.310   3.180   3.665 -0.3459  0.3581 -0.3193
 1573TIP3    H126210   2.287   3.251   3.726 -0.8930 -0.5411  0.5355
 1573TIP3    H226211   2.383   3.136   3.707 -2.0258 -1.5238  0.6982
 1574TIP3   OH226212   2.808   6.612  13.541 -0.0040 -0.2160  0.4182
 1574TIP3    H126213   2.743   6.682  13.541 -0.3464 -0.5348 -0.6389
 1574TIP3    H226214   2.779   6.551  13.473  3.7598  1.8495 -3.2685
 1575TIP3   OH226215   5.824   2.017  13.502  0.1565 -0.0411  0.6790
 1575TIP3    H126216   5.767   2.063  13.441  0.9734  1.5444  1.0815
 1575TIP3    H226217   5.793   1.926  13.500 -1.9742  0.6655  0.4528
 1576TIP3   OH226218   2.863   2.667   0.368  0.1991  0.1905 -0.0164
 1576TIP3    H126219   2.835   2.751   0.405  1.0085 -0.2157  1.5493
 1576TIP3    H226220   2.781   2.618   0.354 -0.2402  1.0684 -0.5452
 1577TIP3   OH226221   4.461   5.432  11.861 -0.1616 -0.6769 -0.6546
 1577TIP3    H126222   4.430   5.507  11.911 -0.6252 -0.7626 -0.8077
 1577TIP3    H226223   4.406   5.359  11.890  0.6709 -1.0825 -0.0865
 1578TIP3   OH226224   3.477   2.815  14.443 -0.3547  0.3971  0.3260
 1578TIP3    H126225   3.555   2.783  14.489 -1.0075  0.3550  1.4075
 1578TIP3    H226226   3.434   2.735  14.413  1.4539  0.4794 -2.7290
 1579TIP3   OH226227   6.476   2.242  14.610 -0.2082 -0.1749  0.0630
 1579TIP3    H126228   6.469   2.224  14.704 -0.0795 -2.7590 -0.3723
 1579TIP3    H226229   6.385   2.245  14.579 -0.2983  2.0175  0.4677
 1580TIP3   OH226230   1.623   1.228   4.756  0.2755 -0.8284 -0.0126
 1580TIP3    H126231   1.584   1.151   4.715 -0.9439  1.1356 -2.7429
 1580TIP3    H226232   1.716   1.209   4.760  0.2262 -1.7498 -2.3211
 1581TIP3   OH226233   4.352   5.847  12.192  0.1987 -0.2920  0.4171
 1581TIP3    H126234   4.281   5.804  12.240 -0.9183 -1.1286 -1.9566
 1581TIP3    H226235   4.411   5.776  12.168 -0.5285 -0.2273 -1.6018
 1582TIP3   OH226236   3.475   4.305   2.677  0.2589  0.5345  0.1259
 1582TIP3    H126237   3.380   4.297   2.667  0.0987  1.9909  0.2876
 1582TIP3    H226238   3.500   4.371   2.613  0.7454  2.1884  1.9715
 1583TIP3   OH226239   6.035   4.067   3.200  0.2622  0.1840  0.5302
 1583TIP3    H126240   6.053   3.985   3.153 -1.4794 -0.0518  0.2323
 1583TIP3    H226241   6.032   4.042   3.292  1.0020  0.1496  0.5460
 1584TIP3   OH226242   4.973   0.818  12.634  0.2303  0.1988 -0.0106
 1584TIP3    H126243   4.984   0.828  12.728  2.6765  0.9273 -0.3343
 1584TIP3    H226244   5.045   0.762  12.607 -0.9779 -0.7495 -1.3290
 1585TIP3   OH226245   5.694   5.156  14.678 -0.1250 -0.3733  0.3504
 1585TIP3    H126246   5.599   5.169  14.683  0.0295  1.7127 -1.0972
 1585TIP3    H226247   5.705   5.078  14.624 -1.0291  0.9359 -1.8144
 1586TIP3   OH226248   3.113   1.488   2.272 -0.2138  0.1842 -0.5872
 1586TIP3    H126249   3.098   1.437   2.352  1.7454  2.3744  1.2502
 1586TIP3    H226250   3.026   1.516   2.245 -1.0580 -1.9321 -0.1726
 1587TIP3   OH226251   4.428   2.000  14.428  0.1486 -0.1366 -0.4181
 1587TIP3    H126252   4.421   2.022  14.521 -0.7194  0.2831 -0.5743
 1587TIP3    H226253   4.513   2.035  14.401  0.8683 -1.1762  0.4542
 1588TIP3   OH226254   2.920   4.816   1.059  0.1876 -0.0689  0.0145
 1588TIP3    H126255   2.911   4.906   1.028  0.2717 -0.0233  0.1213
 1588TIP3    H226256   2.830   4.788   1.077  0.0947 -0.2663 -0.7413
 1589TIP3   OH226257   4.391   4.914   1.469  0.3739 -0.5673  0.1549
 1589TIP3    H126258   4.329   4.936   1.398  1.3216 -0.7931 -0.7500
 1589TIP3    H226259   4.335   4.885   1.541 -0.6926  1.0273  0.0016
 1590TIP3   OH226260   6.519   6.679   1.992  0.1103  0.2662  0.1459
 1590TIP3    H126261   6.558   6.766   1.996  0.9300 -0.0778 -0.4056
 1590TIP3    H226262   6.497   6.666   1.900  0.6945 -0.4253  0.1039
 1591TIP3   OH226263   0.528   5.164  13.413  0.1477  0.5873 -0.1603
 1591TIP3    H126264   0.604   5.111  13.438  0.2178 -0.3107 -2.1638
 1591TIP3    H226265   0.472   5.164  13.491  1.7962  0.5386  1.0463
 1592TIP3   OH226266   1.503   6.108  12.436  0.2717  0.2826  0.3934
 1592TIP3    H126267   1.579   6.149  12.478 -0.5146  1.5219  0.6503
 1592TIP3    H226268   1.536   6.026  12.401  1.4975  0.3390  1.3814
 1593TIP3   OH226269   6.589   6.687   6.257 -0.4142 -0.0807  0.2018
 1593TIP3    H126270   6.525   6.722   6.318  0.7355  0.2785  1.2138
 1593TIP3    H226271   6.582   6.743   6.180 -2.6499 -1.2154 -0.4681
 1594TIP3   OH226272   6.309   3.273   0.635  0.5908 -0.1226 -0.1134
 1594TIP3    H126273   6.231   3.271   0.691  0.2758 -2.2916 -0.5964
 1594TIP3    H226274   6.381   3.248   0.692  0.4769 -0.9937 -0.3451
 1595TIP3   OH226275   3.240   4.274  13.174 -0.0566  0.8121 -0.1254
 1595TIP3    H126276   3.307   4.329  13.133 -0.8484  0.3561 -2.0771
 1595TIP3    H226277   3.157   4.311  13.142 -0.7633  1.3969  2.2890
 1596TIP3   OH226278   1.494   2.460   5.389 -0.1427  0.0916  0.0556
 1596TIP3    H126279   1.576   2.420   5.358  1.1622  3.7623 -1.5663
 1596TIP3    H226280   1.427   2.425   5.331  0.6527 -1.1667 -0.1290
 1597TIP3   OH226281   0.609   4.737  13.348 -0.2095  0.7696 -0.4689
 1597TIP3    H126282   0.668   4.705  13.416 -2.7518  0.3788  1.6519
 1597TIP3    H226283   0.550   4.664  13.330 -2.0500  2.1418 -0.2001
 1598TIP3   OH226284   6.469   3.573   5.912 -0.1772 -0.6871 -0.0179
 1598TIP3    H126285   6.397   3.632   5.930  0.4565  0.3142 -0.7376
 1598TIP3    H226286   6.493   3.538   5.998 -0.5758  0.0757  0.4077
 1599TIP3   OH226287   6.676   1.665   3.150 -0.2302 -0.0234  0.3314
 1599TIP3    H126288   6.687   1.703   3.063  1.5021  2.5101  1.6081
 1599TIP3    H226289   6.690   1.571   3.137  3.5165  0.6933 -1.5490
 1600TIP3   OH226290   6.627   6.223   4.951  0.5526 -0.1362 -1.1218
 1600TIP3    H126291   6.699   6.234   5.013  0.5882  0.3453 -1.2486
 1600TIP3    H226292   6.650   6.145   4.900  1.7289  0.8914 -2.1880
 1601TIP3   OH226293   2.268   4.097  16.634 -0.6402 -0.4160  0.1119
 1601TIP3    H126294   2.352   4.123  16.596 -1.2132  0.6222 -0.4646
 1601TIP3    H226295   2.227   4.044  16.566 -0.0441 -1.7733  0.7800
 1602TIP3   OH226296   0.093   6.660   6.416 -0.1163  0.5623 -0.4376
 1602TIP3    H126297   0.109   6.740   6.366  1.2925 -0.2602 -1.3531
 1602TIP3    H226298   0.163   6.657   6.480 -0.0616 -0.0179 -0.5203
 1603TIP3   OH226299   6.700   5.812   1.870  0.0594  0.1872  0.0908
 1603TIP3    H126300   6.796   5.805   1.867 -0.0069 -0.8592  0.3501
 1603TIP3    H226301   6.682   5.841   1.960  0.1649  1.0182 -0.1508
 1604TIP3   OH226302   1.930   2.638  14.273  0.2434 -0.0670 -0.1113
 1604TIP3    H126303   1.886   2.580  14.212 -1.2061  0.9421 -0.0598
 1604TIP3    H226304   1.859   2.678  14.324  1.3228  0.3413  1.1085
 1605TIP3   OH226305   1.920   2.209   2.654  0.1040 -0.2899  0.0511
 1605TIP3    H126306   1.845   2.158   2.623 -1.6681  2.2624 -0.0165
 1605TIP3    H226307   1.899   2.229   2.745  1.1003 -0.2637  0.2738
 1606TIP3   OH226308   3.912   6.805  13.763 -0.1730 -0.4260 -0.3485
 1606TIP3    H126309   3.831   6.807  13.814 -0.9462 -1.6569 -1.4809
 1606TIP3    H226310   3.925   6.895  13.735 -2.5709 -0.5867 -2.2484
 1607TIP3   OH226311   4.506   2.678   4.200  0.4401 -0.4038  0.1884
 1607TIP3    H126312   4.569   2.609   4.178 -1.1127 -1.2946 -1.7078
 1607TIP3    H226313   4.434   2.632   4.244  0.2691  0.2982  0.6514
 1608TIP3   OH226314   1.716   3.611  12.517 -0.1158  0.1006 -0.4135
 1608TIP3    H126315   1.802   3.623  12.477  0.8692  1.8598  2.1366
 1608TIP3    H226316   1.656   3.663  12.463  0.8566  0.9212 -0.6996
 1609TIP3   OH226317   6.332   0.315   4.072 -0.4851  0.5713  0.2586
 1609TIP3    H126318   6.318   0.341   4.163  0.6650  2.4502 -0.0871
 1609TIP3    H226319   6.245   0.292   4.040 -0.8662 -0.3523  1.8884
 1610TIP3   OH226320   1.258   0.121  13.035  0.0298  1.0431  0.0781
 1610TIP3    H126321   1.174   0.119  12.988  0.6148  0.9318 -0.9849
 1610TIP3    H226322   1.250   0.194  13.096 -0.7188  1.2437 -0.2527
 1611TIP3   OH226323   3.720   3.339   1.518 -0.2978  0.7738  0.6751
 1611TIP3    H126324   3.671   3.396   1.578 -1.4714 -1.3801  1.8064
 1611TIP3    H226325   3.663   3.330   1.442 -0.9634 -0.4214  1.3068
 1612TIP3   OH226326   6.383   5.767  11.328 -0.1344  0.2047  0.6063
 1612TIP3    H126327   6.387   5.787  11.235  1.0887 -0.9020  0.4061
 1612TIP3    H226328   6.294   5.735  11.341  0.2292 -1.3633 -0.5680
 1613TIP3   OH226329   1.103   4.344   3.221  0.1723 -0.3784  0.7264
 1613TIP3    H126330   1.026   4.367   3.168 -0.8694  1.4285  2.9495
 1613TIP3    H226331   1.168   4.315   3.157 -1.3257  0.9898 -1.4742
 1614TIP3   OH226332   4.846   0.168   5.597 -0.1621  0.1578 -0.2530
 1614TIP3    H126333   4.850   0.086   5.549 -1.0834 -1.0058  1.5846
 1614TIP3    H226334   4.807   0.145   5.682  2.2075  1.9438  1.4095
 1615TIP3   OH226335   3.671   0.030  11.992 -0.0629 -0.1133  0.5315
 1615TIP3    H126336   3.669   0.024  12.087 -0.3543 -2.2171  0.4093
 1615TIP3    H226337   3.601   0.091  11.970  0.2761  0.7091  1.6621
 1616TIP3   OH226338   4.968   4.174  16.679  0.3983  0.4316 -0.1904
 1616TIP3    H126339   5.021   4.237  16.631  0.6927 -0.3464 -0.9069
 1616TIP3    H226340   4.880   4.211  16.678  0.5258  0.7304 -0.7912
 1617TIP3   OH226341   3.409   2.101  11.421 -0.7411 -0.4933 -0.0990
 1617TIP3    H126342   3.501   2.095  11.447 -0.1033 -0.1424 -2.1697
 1617TIP3    H226343   3.411   2.093  11.326 -2.9150 -1.0205 -0.1221
 1618TIP3   OH226344   5.518   2.392   1.383 -0.1958 -0.4572  0.5430
 1618TIP3    H126345   5.549   2.481   1.366  1.9375 -1.1204  0.7892
 1618TIP3    H226346   5.554   2.371   1.469  1.7647 -2.5971 -0.7492
 1619TIP3   OH226347   0.442   2.501   2.463 -0.4209 -0.2508  0.3189
 1619TIP3    H126348   0.379   2.570   2.445 -2.8469 -2.7579 -1.1579
 1619TIP3    H226349   0.476   2.521   2.551  0.4997  3.8860 -0.8714
 1620TIP3   OH226350   0.802   6.371   5.249  0.2944  0.4635  0.7163
 1620TIP3    H126351   0.783   6.464   5.247 -0.4332  0.3375  1.4180
 1620TIP3    H226352   0.737   6.334   5.310  0.2613 -0.5609  0.0844
 1621TIP3   OH226353   5.766   1.086   4.847  0.6075  0.2340  0.1555
 1621TIP3    H126354   5.852   1.103   4.810  0.0393  0.6059 -1.0370
 1621TIP3    H226355   5.781   1.076   4.941  2.1472 -1.1875 -0.2286
 1622TIP3   OH226356   6.577   1.249  16.431 -0.1129 -0.3403 -0.1027
 1622TIP3    H126357   6.560   1.199  16.511 -0.4787 -1.5923 -0.9455
 1622TIP3    H226358   6.539   1.196  16.361 -0.7608  1.2550 -0.9992
 1623TIP3   OH226359   6.787   3.423   3.699  0.4182  0.4148  0.5552
 1623TIP3    H126360   6.837   3.342   3.689  0.2498  0.2957  0.6654
 1623TIP3    H226361   6.852   3.492   3.697  0.6142  0.2430  0.9891
 1624TIP3   OH226362   2.912   2.985  16.365 -0.8945 -0.0072 -0.2181
 1624TIP3    H126363   2.930   2.891  16.374 -3.1596 -0.3529  1.1425
 1624TIP3    H226364   2.816   2.991  16.363 -0.7658  2.1026 -2.6761
 1625TIP3   OH226365   2.618   2.960   0.189 -0.4502  0.2388  0.5925
 1625TIP3    H126366   2.678   2.931   0.258  0.1966 -0.8034 -0.3807
 1625TIP3    H226367   2.641   3.052   0.175  1.4140 -0.3279 -0.2439
 1626TIP3   OH226368   1.254   1.767   5.369 -0.1223 -0.2753  0.5396
 1626TIP3    H126369   1.276   1.830   5.301 -0.1922 -0.1821  0.6040
 1626TIP3    H226370   1.165   1.789   5.395 -0.8796 -1.6237 -0.8021
 1627TIP3   OH226371   5.512   1.669  11.450  0.0736  0.3773  0.2091
 1627TIP3    H126372   5.605   1.653  11.462  0.1134  0.5021  0.0635
 1627TIP3    H226373   5.469   1.605  11.507  0.2661  1.4840  1.6262
 1628TIP3   OH226374   4.987   4.094   3.266 -0.1488  0.3475  0.2776
 1628TIP3    H126375   5.021   4.024   3.322 -0.8686 -0.4539 -0.2703
 1628TIP3    H226376   5.012   4.175   3.311  0.6390 -0.2581  0.9491
 1629TIP3   OH226377   2.004   4.759   1.738 -0.4527 -0.4513 -0.5295
 1629TIP3    H126378   1.926   4.814   1.747 -1.6376 -2.1615  0.0111
 1629TIP3    H226379   1.989   4.708   1.658  0.6878  0.0962 -1.1047
 1630TIP3   OH226380   4.943   4.153  13.693 -0.7464  0.3560  0.3918
 1630TIP3    H126381   4.864   4.102  13.712 -0.1204 -1.2205 -1.1514
 1630TIP3    H226382   4.912   4.228  13.642 -1.3770  0.2994  0.6930
 1631TIP3   OH226383   0.023   2.636  10.962  0.2897  0.2746  0.0891
 1631TIP3    H126384   0.002   2.722  10.927 -2.3983 -0.3174  0.1376
 1631TIP3    H226385  -0.028   2.629  11.042 -0.9056 -2.0100 -0.8268
 1632TIP3   OH226386   4.678   5.954   4.030  0.6164 -0.2234  0.7375
 1632TIP3    H126387   4.746   5.889   4.052  2.6148  1.9393  1.1542
 1632TIP3    H226388   4.726   6.036   4.020 -1.8115  1.1101 -0.2766
 1633TIP3   OH226389   3.274   2.143   1.566  0.4506  0.6030  0.1566
 1633TIP3    H126390   3.254   2.091   1.643  0.0281  0.2728 -0.1715
 1633TIP3    H226391   3.328   2.085   1.511 -0.1850  0.4297 -0.2972
 1634TIP3   OH226392   4.480   0.059   1.863 -0.2601  0.6570 -0.5329
 1634TIP3    H126393   4.400   0.094   1.903 -2.0391 -0.7310 -2.7129
 1634TIP3    H226394   4.456   0.044   1.772 -0.1696 -7.1788  0.3537
 1635TIP3   OH226395   2.581   2.871   3.518  0.2289 -0.4709  0.1153
 1635TIP3    H126396   2.495   2.888   3.557 -0.6122 -2.0978 -0.9691
 1635TIP3    H226397   2.583   2.927   3.440 -0.0692 -0.8372 -0.1561
 1636TIP3   OH226398   5.976   5.104  12.119  0.3463 -0.8175 -0.0522
 1636TIP3    H126399   5.904   5.115  12.057  0.3438 -0.1552  0.0611
 1636TIP3    H226400   5.960   5.171  12.185  1.0474 -0.6988 -0.0039
 1637TIP3   OH226401   6.305   4.037   0.397 -0.4666  0.3344 -0.3833
 1637TIP3    H126402   6.396   4.044   0.426 -1.1485  1.6083  1.5178
 1637TIP3    H226403   6.302   4.090   0.317  0.1156  1.5532  0.3888
 1638TIP3   OH226404   1.694   2.417   0.264 -0.3098 -0.2722  0.1155
 1638TIP3    H126405   1.647   2.496   0.290 -0.9870 -0.5999 -0.1105
 1638TIP3    H226406   1.630   2.366   0.214 -0.1716 -1.3828  1.0469
 1639TIP3   OH226407   0.982   0.591   0.118  0.3636  0.5821  0.2476
 1639TIP3    H126408   1.029   0.513   0.087 -1.1548 -0.4238  0.4626
 1639TIP3    H226409   1.036   0.623   0.190  0.1650 -1.2137  1.2256
 1640TIP3   OH226410   6.773   1.478  14.675 -0.1061 -0.5436 -0.1477
 1640TIP3    H126411   6.805   1.543  14.612 -0.4908 -0.5799 -0.3854
 1640TIP3    H226412   6.851   1.431  14.704  0.3989  1.1350  1.2963
 1641TIP3   OH226413   6.604   0.777   4.982  0.0366  0.6966 -0.1120
 1641TIP3    H126414   6.548   0.854   4.975 -1.4712 -0.1909  1.7286
 1641TIP3    H226415   6.542   0.703   4.986  1.4163 -0.5268 -0.8265
 1642TIP3   OH226416   2.004   0.126  10.591 -0.1125  0.3158  0.4390
 1642TIP3    H126417   2.081   0.110  10.536 -0.3529  1.2599 -0.2000
 1642TIP3    H226418   2.005   0.056  10.655  2.2798  1.2657  1.5169
 1643TIP3   OH226419   2.637   1.568   0.588  0.4870 -0.4812 -0.5298
 1643TIP3    H126420   2.661   1.636   0.650 -1.7482 -1.0643  1.0341
 1643TIP3    H226421   2.654   1.606   0.502 -0.3255  1.8922  0.3340
 1644TIP3   OH226422   3.993   5.765   4.605 -0.3191  0.6361  0.5993
 1644TIP3    H126423   3.912   5.720   4.580  0.0380 -0.4280  1.3365
 1644TIP3    H226424   4.044   5.769   4.524 -0.0819 -0.8743  0.6575
 1645TIP3   OH226425   0.486   4.576  15.880  0.4754  0.2127 -0.1826
 1645TIP3    H126426   0.449   4.542  15.798  0.2162  0.1453 -0.0378
 1645TIP3    H226427   0.580   4.583  15.863  0.4995 -0.3620 -0.2824
 1646TIP3   OH226428   1.166   0.527   0.983  0.7373 -0.0113  0.2132
 1646TIP3    H126429   1.161   0.617   0.949 -1.0103 -0.0893  0.2207
 1646TIP3    H226430   1.213   0.479   0.915  0.3274  0.5833 -0.5069
 1647TIP3   OH226431   2.180   5.702  14.422 -0.6170 -0.2931 -0.6172
 1647TIP3    H126432   2.102   5.743  14.460 -0.2722  0.2934 -0.5298
 1647TIP3    H226433   2.235   5.776  14.394 -0.1333 -0.7012 -0.7593
 1648TIP3   OH226434   0.181   1.663  13.273 -0.0308  0.5979 -0.3194
 1648TIP3    H126435   0.194   1.625  13.186  0.6132 -0.7863  0.3580
 1648TIP3    H226436   0.136   1.594  13.322  0.1444  1.1426  0.6243
 1649TIP3   OH226437   5.234   4.754  17.055  0.9253 -0.1795 -0.8105
 1649TIP3    H126438   5.252   4.841  17.019  0.5761  0.4701  0.5611
 1649TIP3    H226439   5.298   4.697  17.013  1.9326  0.9532 -0.8359
 1650TIP3   OH226440   4.490   4.034  14.513 -0.7107 -0.1835  0.4357
 1650TIP3    H126441   4.457   4.027  14.423  0.1710 -1.4501  0.1953
 1650TIP3    H226442   4.566   4.091  14.507 -0.9098  0.0849  0.4523
 1651TIP3   OH226443   1.933   3.778  17.191 -0.1194 -0.8248 -0.5665
 1651TIP3    H126444   2.027   3.776  17.211  0.3685 -0.7527 -2.6821
 1651TIP3    H226445   1.897   3.843  17.251  1.1403 -1.0523  0.4646
 1652TIP3   OH226446   5.911   6.498  15.168  0.1602  0.3759 -0.5132
 1652TIP3    H126447   5.893   6.404  15.165  0.3654  0.2365  1.9026
 1652TIP3    H226448   5.856   6.535  15.099 -0.6284 -1.4170 -0.8651
 1653TIP3   OH226449   6.013   1.051   5.028 -0.0475 -0.3470 -0.0358
 1653TIP3    H126450   6.017   0.959   5.001 -1.2886 -0.3129 -0.3940
 1653TIP3    H226451   6.041   1.100   4.950  1.9997 -0.4635  0.6058
 1654TIP3   OH226452   1.492   1.418  15.728  0.2659 -0.3068  0.2050
 1654TIP3    H126453   1.488   1.333  15.686  0.1722 -0.0523 -0.3111
 1654TIP3    H226454   1.475   1.481  15.657 -0.9510  0.0754  0.8217
 1655TIP3   OH226455   3.492   4.618  14.958  0.0147 -0.1476 -0.0151
 1655TIP3    H126456   3.521   4.532  14.927  1.5420  0.7653 -1.2324
 1655TIP3    H226457   3.540   4.631  15.040  2.3589  0.9151 -1.4986
 1656TIP3   OH226458   0.502   4.328  14.541 -0.4158  0.3009 -0.6334
 1656TIP3    H126459   0.457   4.247  14.566 -1.1013  1.0028  0.4521
 1656TIP3    H226460   0.561   4.345  14.614  0.7334  0.0452 -1.4970
 1657TIP3   OH226461   2.929   2.528  12.452  0.7128 -0.1667 -0.3904
 1657TIP3    H126462   2.872   2.512  12.527  0.1315  1.3147 -0.4883
 1657TIP3    H226463   3.017   2.523  12.488  0.4821 -1.1290  0.0435
 1658TIP3   OH226464   2.630   3.226   4.341 -0.0702  0.0098  0.1190
 1658TIP3    H126465   2.650   3.317   4.321 -0.0347 -0.1022 -0.3580
 1658TIP3    H226466   2.690   3.175   4.286 -1.6727 -0.3344 -1.3563
 1659TIP3   OH226467   0.536   2.530  13.683  0.2917  0.2834 -0.3416
 1659TIP3    H126468   0.579   2.501  13.603 -0.4558 -0.3721 -0.5026
 1659TIP3    H226469   0.597   2.594  13.720  0.1338  1.4165 -1.9921
 1660TIP3   OH226470   1.651   3.334   0.603 -0.6745  0.3472 -0.3468
 1660TIP3    H126471   1.656   3.421   0.642 -0.5522  0.3343 -0.3316
 1660TIP3    H226472   1.733   3.326   0.553 -0.9610  0.4779 -0.8447
 1661TIP3   OH226473   2.341   2.087   5.487  0.2748 -0.7004 -0.0876
 1661TIP3    H126474   2.344   2.176   5.523  2.3822  0.2994 -2.6320
 1661TIP3    H226475   2.325   2.099   5.394  3.0532 -2.8873 -0.8919
 1662TIP3   OH226476   4.310   1.805   5.956 -0.0329  0.1440  0.3614
 1662TIP3    H126477   4.329   1.738   5.890 -1.4923  0.6822 -0.6309
 1662TIP3    H226478   4.247   1.763   6.014  1.5208 -0.4506  1.6313
 1663TIP3   OH226479   3.173   3.365  15.912 -0.3106 -0.2442 -0.4501
 1663TIP3    H126480   3.239   3.426  15.878 -1.2438  0.7271 -0.5545
 1663TIP3    H226481   3.150   3.400  15.998  0.9464 -1.8572  0.5731
 1664TIP3   OH226482   4.340   4.495  15.574 -0.2203  0.3400 -0.2361
 1664TIP3    H126483   4.321   4.564  15.511  1.4197  1.1846  0.1667
 1664TIP3    H226484   4.436   4.494  15.581 -0.4050  1.3462  3.4286
 1665TIP3   OH226485   0.563   4.791  10.806  0.3889  0.2153 -0.2660
 1665TIP3    H126486   0.480   4.788  10.853  0.2102  0.2695 -0.5757
 1665TIP3    H226487   0.603   4.873  10.833  0.4020  0.1282 -0.0148
 1666TIP3   OH226488   0.196   5.922  16.739  0.3169 -0.2714  0.2345
 1666TIP3    H126489   0.250   5.885  16.669 -1.0843  1.1491 -1.6518
 1666TIP3    H226490   0.163   5.845  16.786  4.0020 -1.1541  1.5036
 1667TIP3   OH226491   1.689   2.962   0.447 -0.0933  0.5350  0.3902
 1667TIP3    H126492   1.735   3.001   0.372 -0.4258 -1.8519 -1.0815
 1667TIP3    H226493   1.760   2.937   0.507  0.4777 -1.5735 -1.1141
 1668TIP3   OH226494   0.717   1.916   5.441 -0.3203  0.7140 -0.2889
 1668TIP3    H126495   0.761   1.979   5.385  1.7705 -0.1451  0.3466
 1668TIP3    H226496   0.688   1.847   5.381  1.1529  0.2161 -0.4519
 1669TIP3   OH226497   2.643   3.708  12.624 -0.0270  0.0058  0.0791
 1669TIP3    H126498   2.692   3.756  12.690  0.0251  1.9606 -1.3567
 1669TIP3    H226499   2.708   3.682  12.559 -0.6083  1.1882 -1.0009
 1670TIP3   OH226500   4.207   6.119   6.274 -0.2191 -0.5256  0.4042
 1670TIP3    H126501   4.247   6.061   6.338 -0.3882 -1.1296 -0.0295
 1670TIP3    H226502   4.126   6.149   6.316  0.6324  0.6287  1.2453
 1671TIP3   OH226503   4.975   6.442   5.898 -0.0091  0.2604 -0.2160
 1671TIP3    H126504   4.886   6.478   5.895 -0.6396 -1.2150 -0.0206
 1671TIP3    H226505   5.011   6.474   5.981  0.1126  1.8998 -0.8886
 1672TIP3   OH226506   4.770   0.310  12.096 -0.4031  0.1548 -0.1444
 1672TIP3    H126507   4.832   0.380  12.115 -1.2967  0.9344 -0.0805
 1672TIP3    H226508   4.802   0.236  12.148 -0.4199  1.0145  1.1193
 1673TIP3   OH226509   1.764   0.559  11.201 -0.0884  0.2385  0.2794
 1673TIP3    H126510   1.728   0.471  11.210  0.5853 -0.3533 -2.3429
 1673TIP3    H226511   1.856   0.545  11.178  0.9121  1.6898  3.1308
 1674TIP3   OH226512   2.670   6.605   1.710 -0.4289 -0.1903  0.2103
 1674TIP3    H126513   2.601   6.670   1.727 -0.0557  0.0376  0.8793
 1674TIP3    H226514   2.682   6.607   1.615 -0.8673  0.2667  0.1629
 1675TIP3   OH226515   1.708   6.149  12.873  0.2858  0.4762 -0.3252
 1675TIP3    H126516   1.719   6.062  12.832  1.0025  0.7116 -0.6482
 1675TIP3    H226517   1.682   6.206  12.801 -0.1372  0.5359 -0.1215
 1676TIP3   OH226518   3.306   1.656  12.341 -0.3270 -0.3359  0.8891
 1676TIP3    H126519   3.356   1.581  12.372  0.5503  0.2136  0.8271
 1676TIP3    H226520   3.289   1.637  12.249  1.5409  0.3847  0.3582
 1677TIP3   OH226521   4.281   2.552   1.415  0.2135  0.4382  0.2306
 1677TIP3    H126522   4.199   2.588   1.382  1.4945  2.9853 -0.3443
 1677TIP3    H226523   4.265   2.534   1.507 -1.2655  0.0597 -0.0938
 1678TIP3   OH226524   2.382   4.412   1.486  0.6893 -0.4740 -0.6962
 1678TIP3    H126525   2.310   4.349   1.487 -0.2108  0.5549 -0.4822
 1678TIP3    H226526   2.345   4.492   1.522  0.9828  1.1347 -3.8758
 1679TIP3   OH226527   0.748   6.276   4.753 -0.6371 -0.1317  0.5258
 1679TIP3    H126528   0.779   6.238   4.835 -1.7648  0.0717  1.0597
 1679TIP3    H226529   0.787   6.363   4.751  0.4985 -0.6477  0.1753
 1680TIP3   OH226530   5.177   1.333   5.159  0.0103  0.0327  0.0564
 1680TIP3    H126531   5.155   1.298   5.072  0.9900  0.2452 -0.2898
 1680TIP3    H226532   5.258   1.288   5.182 -1.6087 -1.9599  2.0286
 1681TIP3   OH226533   6.229   4.402   2.510  0.1584  0.0634  0.2423
 1681TIP3    H126534   6.195   4.318   2.539 -0.6023  0.0267 -0.7318
 1681TIP3    H226535   6.182   4.467   2.562 -1.1172 -0.0051 -0.8038
 1682TIP3   OH226536   4.539   6.659  14.772  0.0836  0.1442  0.5117
 1682TIP3    H126537   4.537   6.740  14.720 -2.0932 -0.3825 -0.2998
 1682TIP3    H226538   4.581   6.685  14.854  0.5190  1.8177 -0.2126
 1683TIP3   OH226539   4.584   2.359  12.331 -0.6025 -0.1382  0.4458
 1683TIP3    H126540   4.526   2.328  12.401 -3.1603  0.5180 -1.2902
 1683TIP3    H226541   4.576   2.455  12.335 -0.1049 -0.0655 -0.1971
 1684TIP3   OH226542   0.423   2.947   3.650 -0.1877 -0.3868  0.1373
 1684TIP3    H126543   0.510   2.979   3.626 -0.3788  0.0310 -0.0022
 1684TIP3    H226544   0.364   2.986   3.586 -0.3210 -1.7410 -0.5736
 1685TIP3   OH226545   5.606   4.135   0.443  0.5793  0.8581 -0.4381
 1685TIP3    H126546   5.692   4.176   0.450  0.8088  0.1905  0.8342
 1685TIP3    H226547   5.609   4.086   0.361  1.7747  0.0451  0.0820
 1686TIP3   OH226548   6.511   6.306  15.779 -0.1518  0.2745 -0.5349
 1686TIP3    H126549   6.604   6.287  15.765 -0.2516  0.5833 -1.6852
 1686TIP3    H226550   6.487   6.361  15.705 -1.4613 -0.4957 -0.6952
 1687TIP3   OH226551   4.309   6.062   3.304  0.0384 -0.4666  0.1210
 1687TIP3    H126552   4.376   6.064   3.372 -0.4062  0.7916  0.5272
 1687TIP3    H226553   4.358   6.073   3.222  0.2719  1.3270  0.4718
 1688TIP3   OH226554   6.371   3.358  14.742  0.1064 -0.0340 -0.7489
 1688TIP3    H126555   6.442   3.423  14.737 -0.9581  1.2945  0.8831
 1688TIP3    H226556   6.293   3.405  14.712 -0.6057 -0.6738  0.0800
 1689TIP3   OH226557   3.434   0.491   6.164  0.4562  0.0911  0.1741
 1689TIP3    H126558   3.479   0.573   6.144 -0.9855  0.8444 -0.0567
 1689TIP3    H226559   3.504   0.426   6.172  1.6610  1.4957  1.1306
 1690TIP3   OH226560   1.007   3.027  12.374  0.2917  0.3797 -0.4130
 1690TIP3    H126561   0.915   3.043  12.350 -0.4433 -1.0180  1.3941
 1690TIP3    H226562   1.021   3.079  12.453  1.0376  0.4790 -0.6028
 1691TIP3   OH226563   2.014   5.997  13.015  0.3321  0.3573  0.4933
 1691TIP3    H126564   2.078   5.926  13.007  1.6925  1.7664 -1.4522
 1691TIP3    H226565   1.932   5.952  13.039  0.6257 -2.1834 -2.7427
 1692TIP3   OH226566   5.229   2.774  13.395 -0.0196 -0.0967 -0.3177
 1692TIP3    H126567   5.257   2.834  13.464 -0.6531  0.3152 -0.4172
 1692TIP3    H226568   5.236   2.824  13.314  0.0279 -0.3476 -0.4700
 1693TIP3   OH226569   3.293   2.272  12.354 -0.4458  0.1071 -0.3658
 1693TIP3    H126570   3.257   2.329  12.286  0.3399 -0.6892 -1.4669
 1693TIP3    H226571   3.244   2.191  12.346 -0.3009 -0.0156 -0.0293
 1694TIP3   OH226572   1.442   4.188   4.781  0.5756 -0.6052 -0.2838
 1694TIP3    H126573   1.475   4.218   4.866  0.1277  0.7480 -0.5707
 1694TIP3    H226574   1.348   4.210   4.783 -0.0421 -3.1315 -0.0219
 1695TIP3   OH226575   6.406   0.336  13.189 -0.6604  0.2095 -0.1077
 1695TIP3    H126576   6.438   0.246  13.200  0.1736  0.3659 -1.1654
 1695TIP3    H226577   6.325   0.339  13.241 -0.2784 -0.9179  0.5766
 1696TIP3   OH226578   1.707   1.229   5.546  0.0893 -0.2684 -0.2057
 1696TIP3    H126579   1.644   1.262   5.482  0.0868 -0.9608 -0.5667
 1696TIP3    H226580   1.696   1.134   5.544  0.7180 -0.3565  0.1760
 1697TIP3   OH226581   6.537   6.451  16.020 -0.1068  0.2208 -0.3989
 1697TIP3    H126582   6.576   6.381  16.072  0.9578 -0.0399 -1.5294
 1697TIP3    H226583   6.486   6.405  15.953  1.0516  0.5065 -1.4930
 1698TIP3   OH226584   4.781   1.929  15.580 -0.2277  0.5168 -0.1117
 1698TIP3    H126585   4.835   1.976  15.644 -1.6192 -0.3301  1.7117
 1698TIP3    H226586   4.784   1.838  15.609 -1.6169  0.2687 -0.7363
 1699TIP3   OH226587   0.274   4.740   4.285 -0.5234  0.5522 -0.5121
 1699TIP3    H126588   0.333   4.733   4.210 -0.5864 -1.0129 -0.4218
 1699TIP3    H226589   0.332   4.762   4.358 -0.2281  0.3277 -0.6780
 1700TIP3   OH226590   5.992   5.594  11.607 -0.5864  0.2575 -0.6535
 1700TIP3    H126591   5.942   5.549  11.540 -0.1626 -0.4827 -0.4803
 1700TIP3    H226592   6.081   5.559  11.599  0.0531  1.9628 -1.3420
 1701TIP3   OH226593   1.970   5.820   6.742 -0.1009 -0.3991  0.2956
 1701TIP3    H126594   1.903   5.887   6.754 -1.5314 -1.2455 -2.3859
 1701TIP3    H226595   2.053   5.865   6.754 -1.0786  1.6502 -0.4685
 1702TIP3   OH226596   5.775   4.896  15.942  0.3342  0.1837  0.3859
 1702TIP3    H126597   5.845   4.944  15.986  1.6088  0.2074 -1.5990
 1702TIP3    H226598   5.758   4.820  15.999  1.5320  0.5202  1.2033
 1703TIP3   OH226599   1.752   4.237  11.616 -0.1493 -0.5977 -0.0267
 1703TIP3    H126600   1.756   4.255  11.522 -1.8052  0.8450  0.1383
 1703TIP3    H226601   1.763   4.323  11.657 -3.8739 -0.4928  0.9293
 1704TIP3   OH226602   5.835   5.615  13.068 -0.4811  0.0926  0.1087
 1704TIP3    H126603   5.905   5.665  13.110 -1.5862  2.7482 -1.1101
 1704TIP3    H226604   5.797   5.562  13.139  0.7652  0.9136  1.4064
 1705TIP3   OH226605   1.897   1.114  11.069  0.8083  0.3243 -0.2924
 1705TIP3    H126606   1.893   1.198  11.116  2.2765  0.3216 -0.1346
 1705TIP3    H226607   1.858   1.133  10.984  0.5924  1.0190 -0.0491
 1706TIP3   OH226608   6.066   0.973   5.451  0.3642  0.3795 -0.0186
 1706TIP3    H126609   6.083   0.977   5.545 -2.0934  1.2521  0.4322
 1706TIP3    H226610   5.976   0.939   5.444  0.2624  0.9630 -2.0123
 1707TIP3   OH226611   0.453   0.202   2.384 -0.0181  0.5085  0.1949
 1707TIP3    H126612   0.460   0.238   2.295 -1.5162  0.2245 -0.0476
 1707TIP3    H226613   0.393   0.128   2.375  0.2866  0.1142  1.3426
 1708TIP3   OH226614   5.272   5.030  12.043 -0.1678  0.1793  0.4914
 1708TIP3    H126615   5.221   4.977  11.981 -0.7414  0.6792  0.5303
 1708TIP3    H226616   5.272   5.118  12.005  0.3583  0.2633  0.6813
 1709TIP3   OH226617   3.814   5.070  17.218  0.2538 -0.2736  0.2384
 1709TIP3    H126618   3.845   4.991  17.261 -1.2586 -0.6174  0.7366
 1709TIP3    H226619   3.781   5.040  17.133  0.0766 -0.1013  0.2483
 1710TIP3   OH226620   3.931   0.190  12.838 -0.1175  0.8343  0.1021
 1710TIP3    H126621   4.023   0.167  12.846 -0.1220  1.5927  2.4822
 1710TIP3    H226622   3.884   0.109  12.855  0.0869  0.2964 -1.7414
 1711TIP3   OH226623   1.428   5.955  14.097 -0.2374 -0.0893  0.3555
 1711TIP3    H126624   1.483   5.987  14.026 -0.7011 -2.1416 -0.9356
 1711TIP3    H226625   1.338   5.963  14.064 -0.5804  0.4836  1.3567
 1712TIP3   OH226626   4.116   2.506   6.236 -0.6459  0.2409  0.8001
 1712TIP3    H126627   4.152   2.418   6.239 -0.0899  0.4701  0.7925
 1712TIP3    H226628   4.173   2.558   6.292  2.0335  1.6798 -2.9862
 1713TIP3   OH226629   4.854   3.800   1.991  0.1005 -0.2059  0.2763
 1713TIP3    H126630   4.769   3.844   1.989 -0.2837 -0.8633  1.4899
 1713TIP3    H226631   4.894   3.827   2.074  1.6611  1.1418 -0.8828
 1714TIP3   OH226632   1.986   1.822  11.670 -0.3045 -0.2843  0.8813
 1714TIP3    H126633   2.046   1.756  11.634  0.5484  0.8203  0.2575
 1714TIP3    H226634   1.943   1.777  11.743  0.0293 -1.6397  0.2710
 1715TIP3   OH226635   0.824   0.553   4.502  0.0697  0.2148 -0.0764
 1715TIP3    H126636   0.889   0.622   4.515 -0.8960  1.0146  0.5338
 1715TIP3    H226637   0.758   0.592   4.445 -0.2208 -0.3695 -0.1429
 1716TIP3   OH226638   4.620   3.591   3.345  0.2595 -0.0962 -0.3479
 1716TIP3    H126639   4.670   3.547   3.414  0.0215  1.1424  0.6289
 1716TIP3    H226640   4.616   3.682   3.374 -0.6442  0.2403 -1.5461
 1717TIP3   OH226641   6.403   3.885  11.790  0.1061 -0.5855  0.0845
 1717TIP3    H126642   6.402   3.965  11.738 -0.7689 -0.7204 -0.1064
 1717TIP3    H226643   6.467   3.829  11.745  3.3063  1.2295  2.1087
 1718TIP3   OH226644   1.298   1.124  14.058  0.5720 -0.5435 -0.0193
 1718TIP3    H126645   1.203   1.115  14.063  0.4318 -0.5335 -2.2088
 1718TIP3    H226646   1.331   1.062  14.123 -0.9106 -0.9248  0.3992
 1719TIP3   OH226647   1.124   3.799   4.165  0.2480  0.2054 -0.0068
 1719TIP3    H126648   1.056   3.781   4.229  0.4789  1.0891  0.5025
 1719TIP3    H226649   1.188   3.852   4.212  0.9150  0.0210 -0.6893
 1720TIP3   OH226650   4.841   3.567  16.506  0.5099  0.1574  0.1471
 1720TIP3    H126651   4.766   3.524  16.547 -1.2526  1.3025 -1.8124
 1720TIP3    H226652   4.912   3.503  16.514 -1.2923 -1.9475 -0.1203
 1721TIP3   OH226653   5.949   6.803   4.191 -0.6720  0.6566 -0.3368
 1721TIP3    H126654   5.940   6.754   4.109  1.5506 -0.0890 -0.1616
 1721TIP3    H226655   5.860   6.828   4.213 -1.4370 -0.0855 -2.4059
 1722TIP3   OH226656   0.121   1.159   2.983 -0.1840 -0.3559 -0.5319
 1722TIP3    H126657   0.111   1.214   2.905  1.4817 -0.8648 -1.1187
 1722TIP3    H226658   0.166   1.215   3.046  0.2105 -0.5699 -0.6213
 1723TIP3   OH226659   5.074   6.273  13.220 -0.6920  0.3104 -0.1147
 1723TIP3    H126660   5.148   6.237  13.172  0.6572  2.2407  0.4450
 1723TIP3    H226661   5.096   6.258  13.312 -1.8487 -0.6935  0.0062
 1724TIP3   OH226662   1.543   5.723  11.552 -0.3148  0.0230  0.4317
 1724TIP3    H126663   1.474   5.681  11.500  1.1437 -2.0054  0.0864
 1724TIP3    H226664   1.500   5.799  11.591 -2.4734 -0.6156 -0.6047
 1725TIP3   OH226665   3.616   2.127  15.421 -0.1897  0.3035 -0.1513
 1725TIP3    H126666   3.698   2.091  15.454 -0.7949 -1.4905 -0.5357
 1725TIP3    H226667   3.556   2.124  15.495 -0.2268  0.5545 -0.1725
 1726TIP3   OH226668   0.240   5.033  16.800 -0.0018  0.0897 -0.0520
 1726TIP3    H126669   0.174   5.096  16.827 -0.1416 -0.5595  1.1938
 1726TIP3    H226670   0.239   5.035  16.705  0.6872  2.6629 -0.0276
 1727TIP3   OH226671   5.092   1.664  15.280  0.1513  0.0986  0.1653
 1727TIP3    H126672   5.155   1.676  15.209  0.0409 -0.9528 -0.1256
 1727TIP3    H226673   5.020   1.723  15.259  0.8080  0.9225  0.2267
 1728TIP3   OH226674   2.531   1.349  11.363 -0.3615  0.2825  0.1048
 1728TIP3    H126675   2.518   1.254  11.371  0.3830 -0.1973 -3.3683
 1728TIP3    H226676   2.612   1.357  11.313 -0.7872  2.7314 -0.2328
 1729TIP3   OH226677   1.359   4.988   2.994  0.5635 -0.1184 -0.0335
 1729TIP3    H126678   1.376   4.942   3.076 -0.2954  0.2602  0.3630
 1729TIP3    H226679   1.336   4.919   2.932  1.3112 -0.4156  0.0132
 1730TIP3   OH226680   4.171   4.773   3.687  0.0332  0.0399 -0.2415
 1730TIP3    H126681   4.216   4.725   3.757 -0.8902  0.0849  0.3893
 1730TIP3    H226682   4.159   4.861   3.723  1.9740  0.8596 -1.4963
 1731TIP3   OH226683   2.837   0.857  12.228 -0.3287 -0.3454  0.2906
 1731TIP3    H126684   2.907   0.859  12.162 -0.0766 -0.8517  0.5415
 1731TIP3    H226685   2.760   0.827  12.180 -0.5812  1.0317 -0.1768
 1732TIP3   OH226686   4.550   2.118  16.333  0.4599 -0.3924  0.0880
 1732TIP3    H126687   4.515   2.032  16.355 -0.2589 -0.1392 -0.0713
 1732TIP3    H226688   4.631   2.125  16.384 -1.0389  0.0935  2.5133
 1733TIP3   OH226689   0.918   6.217  17.248 -0.0798 -0.3218 -0.6159
 1733TIP3    H126690   0.940   6.296  17.298 -1.2489 -1.7309  2.2245
 1733TIP3    H226691   0.829   6.232  17.218 -0.7005 -0.9921  0.8567
 1734TIP3   OH226692   2.188   0.539  12.805  0.4250  0.5548 -0.3982
 1734TIP3    H126693   2.184   0.501  12.717  1.8870  1.3572 -0.8201
 1734TIP3    H226694   2.166   0.466  12.863  0.5959 -0.2698 -1.3568
 1735TIP3   OH226695   6.771   3.924  16.709 -0.0776  0.6269 -0.7705
 1735TIP3    H126696   6.816   3.893  16.630  1.2348  1.1923 -0.2604
 1735TIP3    H226697   6.814   3.877  16.780  0.1896  1.7095 -0.2118
 1736TIP3   OH226698   2.808   6.055  11.489 -0.0994 -0.2937 -0.0017
 1736TIP3    H126699   2.759   6.135  11.510  0.0721 -0.5908  1.5376
 1736TIP3    H226700   2.814   6.007  11.572  0.9383 -1.2808 -0.6313
 1737TIP3   OH226701   6.338   5.925   2.533  0.0616  0.0657  0.7819
 1737TIP3    H126702   6.380   5.879   2.606 -0.0414 -1.2279  0.0533
 1737TIP3    H226703   6.373   5.882   2.455 -0.7059  0.6607  0.0974
 1738TIP3   OH226704   6.558   4.975  11.009 -0.6546 -0.2256 -0.6287
 1738TIP3    H126705   6.488   4.985  11.073 -0.5020  0.0466 -0.5006
 1738TIP3    H226706   6.526   5.021  10.931 -1.5896 -2.0642 -1.3515
 1739TIP3   OH226707   4.807   5.852   4.246  1.0083 -0.0069 -0.1445
 1739TIP3    H126708   4.859   5.773   4.260  0.0977 -1.0071 -2.1757
 1739TIP3    H226709   4.868   5.924   4.264  2.3442 -1.1674  0.0455
 1740TIP3   OH226710   3.700   4.437   2.931 -0.0206  0.2851  0.2794
 1740TIP3    H126711   3.617   4.395   2.954 -0.9003  0.8701 -1.6415
 1740TIP3    H226712   3.767   4.373   2.953 -1.2210 -1.4948 -1.0537
 1741TIP3   OH226713   0.283   0.387  15.282 -0.3779 -0.8181  0.3562
 1741TIP3    H126714   0.237   0.303  15.290 -0.0460 -0.9235  1.1239
 1741TIP3    H226715   0.221   0.451  15.316 -1.3850 -0.5009 -1.9858
 1742TIP3   OH226716   0.486   1.637  13.466  0.1589 -0.2157  0.0555
 1742TIP3    H126717   0.476   1.554  13.511  0.1018 -0.0181  0.4072
 1742TIP3    H226718   0.434   1.627  13.386  0.5886 -0.7069 -0.1626
 1743TIP3   OH226719   3.681   5.195   5.479 -0.1943  0.1085  0.2985
 1743TIP3    H126720   3.613   5.153   5.425 -0.4292 -0.2475  0.8659
 1743TIP3    H226721   3.703   5.129   5.544  0.9428  0.1091 -0.0844
 1744TIP3   OH226722   6.006   0.639  13.275 -0.2383 -0.0104  0.2202
 1744TIP3    H126723   6.074   0.691  13.319 -0.0895  0.9264 -1.1040
 1744TIP3    H226724   6.051   0.599  13.201 -0.4321 -1.7907  1.0468
 1745TIP3   OH226725   3.777   3.588  14.324 -0.2910 -0.0044 -0.1764
 1745TIP3    H126726   3.796   3.672  14.282  0.5998 -0.3225 -0.4104
 1745TIP3    H226727   3.862   3.556  14.354 -0.7917 -0.2162  1.0655
 1746TIP3   OH226728   3.373   5.744  17.152  0.0667 -0.3905 -0.2563
 1746TIP3    H126729   3.468   5.738  17.143 -0.0614 -1.0515 -1.2636
 1746TIP3    H226730   3.358   5.828  17.195  0.9836  0.8208 -2.2540
 1747TIP3   OH226731   4.020   2.286  15.409  0.2827 -0.0080  1.1130
 1747TIP3    H126732   3.989   2.205  15.450  1.5383 -1.2445 -0.3101
 1747TIP3    H226733   4.113   2.289  15.430 -0.2428  2.3860  3.2551
 1748TIP3   OH226734   3.315   6.011   4.525 -0.1596 -0.0500  1.2652
 1748TIP3    H126735   3.405   5.997   4.555  0.3427  3.1796  1.3915
 1748TIP3    H226736   3.274   6.062   4.594 -1.6101 -0.1434  0.4902
 1749TIP3   OH226737   6.698   6.759  13.858 -0.5348 -0.1714 -0.5835
 1749TIP3    H126738   6.790   6.742  13.840 -0.2364 -2.1393  2.3463
 1749TIP3    H226739   6.696   6.783  13.951 -3.1258 -1.5969 -0.2308
 1750TIP3   OH226740   1.282   5.569  14.017 -0.6783 -0.2010  0.1439
 1750TIP3    H126741   1.209   5.600  13.964 -0.5934 -0.4956 -0.1447
 1750TIP3    H226742   1.255   5.482  14.047 -0.2276 -0.5283 -0.3940
 1751TIP3   OH226743   4.510   4.712   6.695  0.0535 -0.3292 -0.2548
 1751TIP3    H126744   4.449   4.685   6.627  1.2944 -0.1098 -1.4864
 1751TIP3    H226745   4.551   4.630   6.724  1.2649 -0.1877 -1.4989
 1752TIP3   OH226746   1.652   2.132  14.014 -0.5238  0.1987 -0.3543
 1752TIP3    H126747   1.710   2.100  14.083  0.6611 -1.6471 -2.1444
 1752TIP3    H226748   1.564   2.130  14.052  0.3616  1.3410  1.7977
 1753TIP3   OH226749   4.225   4.342   1.970 -0.6384 -0.6233  0.0496
 1753TIP3    H126750   4.245   4.253   1.942  1.3651 -0.8532  2.0173
 1753TIP3    H226751   4.302   4.393   1.948 -1.6171  0.5664 -0.7173
 1754TIP3   OH226752   0.743   1.870   4.198  0.6107  0.1826  0.2050
 1754TIP3    H126753   0.837   1.884   4.194  0.7633 -1.2669 -1.5766
 1754TIP3    H226754   0.731   1.807   4.269  1.3088 -2.1040 -1.6511
 1755TIP3   OH226755   6.653   5.230  15.734 -0.5512 -0.0307 -0.4054
 1755TIP3    H126756   6.711   5.243  15.809 -0.3794 -0.9351 -0.3777
 1755TIP3    H226757   6.680   5.146  15.697 -0.0319  0.8171 -2.0167
 1756TIP3   OH226758   4.954   1.139   0.651 -0.7952  0.5657 -0.1673
 1756TIP3    H126759   5.020   1.180   0.708 -0.4003  1.0750 -0.9862
 1756TIP3    H226760   4.878   1.196   0.658 -1.7088 -0.8459  1.9862
 1757TIP3   OH226761   6.777   4.989   1.349  0.4314  0.0720 -0.0469
 1757TIP3    H126762   6.814   5.063   1.301 -0.2649  0.4444 -0.0118
 1757TIP3    H226763   6.853   4.946   1.388  0.7622  1.3926  0.8104
 1758TIP3   OH226764   5.954   3.835   4.278 -0.8094 -0.5036  0.2415
 1758TIP3    H126765   5.923   3.916   4.237 -1.1714 -0.8606 -0.1976
 1758TIP3    H226766   5.965   3.774   4.205  0.7529 -0.4438  0.4185
 1759TIP3   OH226767   3.887   6.748  12.904 -0.1125  0.1189 -0.3528
 1759TIP3    H126768   3.870   6.762  12.997  1.5226 -0.2920  0.0059
 1759TIP3    H226769   3.814   6.693  12.875  1.3667 -2.9930  1.5503
 1760TIP3   OH226770   6.313   5.307  13.263 -0.1898 -0.2990  0.0214
 1760TIP3    H126771   6.348   5.303  13.353  1.0635 -0.4580 -0.4601
 1760TIP3    H226772   6.388   5.283  13.208 -0.7526  0.5546 -1.1155
 1761TIP3   OH226773   0.105   4.952   4.186 -0.2345 -0.4048  0.4594
 1761TIP3    H126774   0.115   5.026   4.246  1.5632 -0.3873  0.1437
 1761TIP3    H226775   0.149   4.880   4.229  0.4912 -0.5614 -0.5379
 1762TIP3   OH226776   4.508   5.747   5.587  0.7977  0.1919  0.2690
 1762TIP3    H126777   4.479   5.662   5.620  0.1938  0.5226  0.6025
 1762TIP3    H226778   4.558   5.785   5.660  1.2502  0.0260  0.0408
 1763TIP3   OH226779   4.487   0.344   2.641  0.2642  0.4516  0.1493
 1763TIP3    H126780   4.441   0.403   2.582  0.6685  0.6382  0.0172
 1763TIP3    H226781   4.459   0.370   2.729 -0.1352  0.3457  0.0551
 1764TIP3   OH226782   0.381   5.080  12.614  0.0342 -0.1522  0.1758
 1764TIP3    H126783   0.417   5.160  12.653 -0.3413 -0.4395  1.1333
 1764TIP3    H226784   0.417   5.010  12.668 -0.2952 -0.5757 -0.1582
 1765TIP3   OH226785   4.186   6.694  12.602 -0.3263 -0.6902  0.0250
 1765TIP3    H126786   4.186   6.691  12.698  0.9619 -1.1024  0.0259
 1765TIP3    H226787   4.225   6.611  12.575 -0.6706 -0.5718 -0.8554
 1766TIP3   OH226788   3.793   6.165   4.296  0.3483  0.1360  0.6056
 1766TIP3    H126789   3.813   6.166   4.202 -1.2314 -1.9845  0.1787
 1766TIP3    H226790   3.844   6.092   4.330 -1.0430 -0.7244  0.8790
 1767TIP3   OH226791   2.337   6.645  14.769  0.3578 -0.8787  0.2012
 1767TIP3    H126792   2.298   6.637  14.856 -0.4560 -2.3019 -0.2816
 1767TIP3    H226793   2.329   6.557  14.731  0.6832 -0.2610 -1.3158
 1768TIP3   OH226794   3.089   5.745  16.810  0.4562  0.1218 -0.4208
 1768TIP3    H126795   3.024   5.782  16.870  0.3754  0.8064 -0.9299
 1768TIP3    H226796   3.160   5.810  16.808  0.8880 -0.3439 -0.3286
 1769TIP3   OH226797   6.642   0.203   6.125  0.3704  0.0211 -0.2452
 1769TIP3    H126798   6.621   0.178   6.034  0.6954 -1.1489 -0.0084
 1769TIP3    H226799   6.558   0.197   6.171  0.4240 -0.4973 -0.2174
 1770TIP3   OH226800   0.832   3.619   1.920 -0.0158  0.4649  0.0631
 1770TIP3    H126801   0.884   3.651   1.847 -1.7513  1.3850 -0.7995
 1770TIP3    H226802   0.741   3.623   1.889 -0.6541 -0.5322  1.7338
 1771TIP3   OH226803   2.338   4.134  15.869  0.2228 -0.4627 -0.0042
 1771TIP3    H126804   2.419   4.083  15.865  0.4288  0.0031 -2.8703
 1771TIP3    H226805   2.275   4.075  15.910  1.0235 -2.2421 -1.2740
 1772TIP3   OH226806   2.449   0.460  15.885  0.0261 -0.0773 -0.0602
 1772TIP3    H126807   2.461   0.457  15.790 -0.3329  0.5549 -0.1310
 1772TIP3    H226808   2.420   0.549  15.903 -1.0211 -0.5200  0.5172
 1773TIP3   OH226809   3.716   5.138  15.608 -0.2696 -0.1513 -0.4791
 1773TIP3    H126810   3.676   5.181  15.532 -1.2133 -0.2690 -0.0562
 1773TIP3    H226811   3.695   5.045  15.597 -0.0807 -0.2157 -0.2789
 1774TIP3   OH226812   2.436   6.378   2.477 -0.5941 -0.0952 -0.3245
 1774TIP3    H126813   2.413   6.432   2.401  0.1509  0.9725  0.2081
 1774TIP3    H226814   2.356   6.375   2.529 -0.3638  1.3131  0.1303
 1775TIP3   OH226815   5.518   2.590   4.371 -0.3808 -0.1927 -0.0395
 1775TIP3    H126816   5.592   2.621   4.318  0.6053 -2.4276 -0.0323
 1775TIP3    H226817   5.454   2.560   4.308 -1.0490  1.2016 -0.0337
 1776TIP3   OH226818   4.479   0.023   4.168 -0.6648 -0.4315  0.3513
 1776TIP3    H126819   4.417  -0.001   4.238 -2.0218 -0.5851 -0.8822
 1776TIP3    H226820   4.530  -0.057   4.153 -0.2915 -0.3648  1.2399
 1777TIP3   OH226821   1.669   4.522  17.009 -0.6982  0.5372  0.2625
 1777TIP3    H126822   1.611   4.590  16.974 -1.4576 -1.4121 -2.5242
 1777TIP3    H226823   1.699   4.474  16.931 -0.4014 -2.4509  2.1190
 1778TIP3   OH226824   6.303   0.278   5.372 -0.3612  0.3249  0.7021
 1778TIP3    H126825   6.336   0.367   5.380 -0.6180  0.6240 -1.3037
 1778TIP3    H226826   6.241   0.268   5.444 -0.2779  1.7392  0.9741
 1779TIP3   OH226827   0.955   1.066  15.393  0.2288  0.4606  0.3210
 1779TIP3    H126828   0.953   0.978  15.357  1.5990  1.1015 -1.4364
 1779TIP3    H226829   0.913   1.059  15.479  0.2603 -1.8670  0.1644
 1780TIP3   OH226830   4.137   6.597   3.749 -0.2373  0.3770 -0.8732
 1780TIP3    H126831   4.158   6.681   3.709 -0.8373  1.1034  0.3135
 1780TIP3    H226832   4.042   6.596   3.753 -0.2998 -0.9523 -2.0997
 1781TIP3   OH226833   1.327   2.000   1.118  0.4528 -0.0779  0.2856
 1781TIP3    H126834   1.295   2.028   1.204 -1.8199  0.8829 -0.8127
 1781TIP3    H226835   1.264   1.934   1.089  1.8243 -1.2104 -0.1987
 1782TIP3   OH226836   4.178   0.774   2.859  0.1246  0.0013 -0.0538
 1782TIP3    H126837   4.204   0.743   2.946  0.2902 -0.4799 -0.2750
 1782TIP3    H226838   4.243   0.841   2.837  1.4304 -1.4751 -0.7725
 1783TIP3   OH226839   5.839   6.252  15.076  0.0595  0.1029 -0.1923
 1783TIP3    H126840   5.814   6.177  15.130 -1.2092  1.0927  0.6393
 1783TIP3    H226841   5.870   6.214  14.994 -2.6005 -1.2782 -0.6117
 1784TIP3   OH226842   1.269   4.659  12.711  0.7340 -0.4042 -0.2485
 1784TIP3    H126843   1.198   4.691  12.767 -0.2899  1.6738 -2.6247
 1784TIP3    H226844   1.349   4.691  12.752  0.0616  0.1985  0.6021
 1785TIP3   OH226845   1.795   1.301   0.041 -0.0486 -0.0963 -0.0905
 1785TIP3    H126846   1.718   1.342   0.001  0.4478  0.3954 -0.5547
 1785TIP3    H226847   1.854   1.373   0.060 -0.4386 -0.2754  1.9550
 1786TIP3   OH226848   1.816   5.504  13.876 -0.1677 -0.5712  0.3735
 1786TIP3    H126849   1.855   5.522  13.791 -2.1250 -0.1319 -0.4630
 1786TIP3    H226850   1.784   5.590  13.906 -2.4435 -1.2640  0.0124
 1787TIP3   OH226851   4.560   6.552   1.853 -0.5270  0.2842 -0.0157
 1787TIP3    H126852   4.536   6.579   1.765 -2.3044 -1.1098  0.0025
 1787TIP3    H226853   4.555   6.456   1.851  4.0400 -0.0825  0.3309
 1788TIP3   OH226854   5.465   2.317  16.103 -0.0714 -0.0480 -0.0383
 1788TIP3    H126855   5.470   2.279  16.015  1.5134  0.7625 -0.3021
 1788TIP3    H226856   5.556   2.328  16.130 -0.5239  2.0822  0.6716
 1789TIP3   OH226857   4.281   2.403  13.575 -0.0668 -0.1869  0.0954
 1789TIP3    H126858   4.268   2.322  13.525 -2.6779  0.9893 -1.2164
 1789TIP3    H226859   4.225   2.467  13.531  1.4162  2.1659  1.5566
 1790TIP3   OH226860   6.687   3.109  10.713  0.2872  0.4471 -0.3368
 1790TIP3    H126861   6.749   3.054  10.665  1.4162  1.7341 -0.3843
 1790TIP3    H226862   6.667   3.181  10.653 -1.5049 -0.1279 -0.4332
 1791TIP3   OH226863   1.520   3.121   0.737  0.4081 -0.3773  0.1064
 1791TIP3    H126864   1.542   3.199   0.685  0.7790  0.2877  1.2564
 1791TIP3    H226865   1.433   3.139   0.771 -0.7965 -1.7944 -2.1097
 1792TIP3   OH226866   4.482   2.764  10.487 -0.1798 -0.5096  0.3667
 1792TIP3    H126867   4.457   2.672  10.480  1.0113 -0.7582 -0.7536
 1792TIP3    H226868   4.575   2.766  10.462 -0.5191  1.1670 -0.8591
 1793TIP3   OH226869   0.609   4.617   0.229  0.2698  0.4143 -0.3657
 1793TIP3    H126870   0.594   4.710   0.246  0.5681  0.7265 -1.7501
 1793TIP3    H226871   0.533   4.588   0.180 -0.2309 -0.2991  0.8014
 1794TIP3   OH226872   1.420   5.565   4.308  0.6848  0.1817  0.0197
 1794TIP3    H126873   1.515   5.575   4.306  0.7261  0.3448  2.1233
 1794TIP3    H226874   1.404   5.496   4.372 -0.5121 -1.3099 -1.8601
 1795TIP3   OH226875   0.560   0.305  12.131 -0.2308  0.2115  1.0911
 1795TIP3    H126876   0.513   0.339  12.206 -0.8937  0.2185  0.6733
 1795TIP3    H226877   0.523   0.218  12.117  1.3120 -0.6263  2.0330
 1796TIP3   OH226878   6.536   5.536  15.846 -0.5363 -0.7902 -0.1848
 1796TIP3    H126879   6.595   5.563  15.776 -1.7125 -0.8656 -1.2053
 1796TIP3    H226880   6.581   5.563  15.926  0.3341  0.2270 -1.0056
 1797TIP3   OH226881   1.755   6.715   1.810 -0.3602 -0.8928 -0.0807
 1797TIP3    H126882   1.672   6.700   1.764 -0.1813 -1.0720 -0.3481
 1797TIP3    H226883   1.822   6.684   1.749  0.1116  1.9875 -1.1375
 1798TIP3   OH226884   4.200   4.879  11.445 -0.2219 -0.9294  0.0333
 1798TIP3    H126885   4.133   4.928  11.492  0.4578  1.0077 -0.9836
 1798TIP3    H226886   4.151   4.810  11.400 -1.6849  1.0695 -1.5051
 1799TIP3   OH226887   1.508   0.411  16.882 -0.5769 -0.0028 -0.2614
 1799TIP3    H126888   1.600   0.426  16.900 -0.2231 -2.1508 -0.0930
 1799TIP3    H226889   1.485   0.476  16.816  0.4789  1.9664  1.2654
 1800TIP3   OH226890   1.465   5.425   3.748 -0.7345  0.3980  0.0666
 1800TIP3    H126891   1.422   5.511   3.752 -1.7398 -0.1633  1.8842
 1800TIP3    H226892   1.432   5.379   3.825 -1.5211 -2.2246 -1.7763
 1801TIP3   OH226893   1.825   3.523   4.485 -0.0939  0.4241  0.4418
 1801TIP3    H126894   1.761   3.490   4.548  2.8278 -1.9238  2.3051
 1801TIP3    H226895   1.897   3.461   4.490  2.7197  3.4671 -0.9584
 1802TIP3   OH226896   0.014   0.500  11.634 -0.3414 -0.1492  0.4446
 1802TIP3    H126897   0.028   0.581  11.682 -0.8714  0.4060 -0.3230
 1802TIP3    H226898   0.015   0.432  11.701 -0.0920  0.5052  1.1155
 1803TIP3   OH226899   3.026   6.655  15.937 -0.0020 -0.3651 -0.2365
 1803TIP3    H126900   3.033   6.742  15.898 -1.2315 -0.3469 -0.4395
 1803TIP3    H226901   3.050   6.667  16.029  0.2872  0.0909 -0.3709
 1804TIP3   OH226902   1.943   3.391   1.080 -0.4966 -0.4658 -0.2499
 1804TIP3    H126903   2.020   3.406   1.025 -0.6632 -1.5924 -0.8145
 1804TIP3    H226904   1.876   3.361   1.019 -0.2784 -3.0424  0.7112
 1805TIP3   OH226905   1.545   4.479  15.964 -0.2839 -0.4310  0.0540
 1805TIP3    H126906   1.548   4.393  15.923 -1.2987 -0.3733 -0.1465
 1805TIP3    H226907   1.456   4.511  15.948  0.1096  0.6971  0.0285
 1806TIP3   OH226908   5.906   0.036  16.606 -0.7006  0.4467 -0.1089
 1806TIP3    H126909   5.980   0.093  16.625 -0.9161  0.3404  1.1012
 1806TIP3    H226910   5.945  -0.051  16.594 -0.8144 -0.0009  2.5518
 1807TIP3   OH226911   1.569   4.610   0.426 -0.5689  0.5178  0.0199
 1807TIP3    H126912   1.498   4.566   0.379 -1.4440  0.4037  1.4400
 1807TIP3    H226913   1.538   4.617   0.516  1.8596 -0.9438  1.0157
 1808TIP3   OH226914   0.928   6.406  15.740 -0.2501  0.4080 -0.5037
 1808TIP3    H126915   0.856   6.417  15.802  0.1439  2.1878 -0.3333
 1808TIP3    H226916   0.978   6.488  15.747  1.1887 -0.3787 -1.3783
 1809TIP3   OH226917   1.196   0.259   0.249  0.2442  0.0328  0.2219
 1809TIP3    H126918   1.184   0.286   0.340 -0.5326 -0.6259  0.3260
 1809TIP3    H226919   1.184   0.164   0.251 -1.6975  0.2242 -0.8492
 1810TIP3   OH226920   6.061   5.850   0.829  0.6455  0.5113  0.4535
 1810TIP3    H126921   6.023   5.935   0.807  0.8784  0.4016 -0.3902
 1810TIP3    H226922   6.119   5.829   0.755 -1.9188 -1.9060 -0.9711
 1811TIP3   OH226923   0.731   5.676  12.853 -0.5037 -0.8267  0.8701
 1811TIP3    H126924   0.730   5.689  12.758 -0.4897  0.7854  1.0677
 1811TIP3    H226925   0.654   5.622  12.870 -0.3794 -1.3166 -0.0889
 1812TIP3   OH226926   4.413   2.746   4.514 -0.2540 -0.4845  0.0371
 1812TIP3    H126927   4.414   2.716   4.605  2.5155  0.0174  0.2138
 1812TIP3    H226928   4.475   2.689   4.469  0.8898  1.3664 -0.8078
 1813TIP3   OH226929   5.843   0.939   3.688  0.2999 -0.0059 -1.3998
 1813TIP3    H126930   5.912   0.873   3.682 -0.7836 -1.1614 -1.3327
 1813TIP3    H226931   5.792   0.928   3.607 -0.7012 -0.1870 -0.7507
 1814TIP3   OH226932   1.413   5.547   0.358 -1.0559 -0.3330 -0.2005
 1814TIP3    H126933   1.413   5.558   0.453 -0.3930 -0.4808 -0.1776
 1814TIP3    H226934   1.358   5.618   0.326  0.5478  1.1118  0.1474
 1815TIP3   OH226935   6.683   6.057   5.332 -0.1961  0.0456  0.0852
 1815TIP3    H126936   6.625   6.133   5.325 -0.5814 -0.3454 -0.9732
 1815TIP3    H226937   6.767   6.094   5.360 -0.0798  0.9997 -1.4731
 1816TIP3   OH226938   0.105   5.810  11.928 -0.2709 -0.4679  0.1733
 1816TIP3    H126939   0.187   5.773  11.895  0.5239  3.0553 -2.0916
 1816TIP3    H226940   0.133   5.868  11.999 -0.9616 -0.4428  0.4223
 1817TIP3   OH226941   3.928   4.612  15.317 -0.2715  0.0770  0.3352
 1817TIP3    H126942   3.916   4.519  15.298 -0.2234 -0.2197  1.6634
 1817TIP3    H226943   3.839   4.649  15.312 -0.4802 -0.3091  1.1292
 1818TIP3   OH226944   3.210   0.904   4.415  0.1585  0.1841 -1.0098
 1818TIP3    H126945   3.257   0.976   4.374 -0.6259  0.8464 -0.7646
 1818TIP3    H226946   3.269   0.872   4.484 -0.6813  2.5420  0.8645
 1819TIP3   OH226947   5.167   4.938  14.516 -0.0883 -0.0072  0.1761
 1819TIP3    H126948   5.241   4.878  14.525  0.6479  0.9952  0.8543
 1819TIP3    H226949   5.207   5.024  14.502 -1.1243  0.5653  0.6733
 1820TIP3   OH226950   3.767   1.486  14.301  0.3776  0.3660  0.3847
 1820TIP3    H126951   3.734   1.565  14.258  0.9696  0.1596 -0.4337
 1820TIP3    H226952   3.794   1.428  14.230  0.2855 -0.4331  0.9922
 1821TIP3   OH226953   0.937   0.422  12.416 -0.1119  0.2284  0.5752
 1821TIP3    H126954   0.993   0.496  12.395 -1.9458  1.4843 -0.0580
 1821TIP3    H226955   0.951   0.359  12.345  1.3933 -0.0172  1.0784
 1822TIP3   OH226956   6.789   6.316   4.031 -0.0284 -0.2133 -0.0279
 1822TIP3    H126957   6.744   6.298   3.949 -0.2214  1.7994 -0.3837
 1822TIP3    H226958   6.778   6.236   4.083 -0.5995 -1.1957 -1.6348
 1823TIP3   OH226959   0.508   5.496   1.771 -0.4375 -0.0626  0.6614
 1823TIP3    H126960   0.600   5.505   1.748 -0.7062  0.1667 -0.3574
 1823TIP3    H226961   0.492   5.402   1.770 -1.0009  0.0021 -2.4486
 1824TIP3   OH226962   6.176   3.642  15.378  0.2132 -0.1350 -0.6233
 1824TIP3    H126963   6.115   3.652  15.305  0.3391  0.0690 -0.7023
 1824TIP3    H226964   6.258   3.613  15.338  0.9915  2.2601 -0.8621
 1825TIP3   OH226965   0.142   4.315  14.341 -0.0488 -0.5726 -0.8035
 1825TIP3    H126966   0.138   4.315  14.436 -1.9734  0.3629 -0.8480
 1825TIP3    H226967   0.118   4.226  14.315 -2.2681 -0.1315 -0.4404
 1826TIP3   OH226968   4.798   1.966   4.150 -0.5235 -0.3371  0.4474
 1826TIP3    H126969   4.785   1.873   4.133  1.6416 -0.4473 -0.8399
 1826TIP3    H226970   4.893   1.977   4.153 -0.6810  2.1203 -1.3267
 1827TIP3   OH226971   5.519   4.907   4.227 -0.8399 -0.2160  0.3364
 1827TIP3    H126972   5.556   4.915   4.139  0.1320 -0.3034  0.7313
 1827TIP3    H226973   5.424   4.914   4.214 -0.6888 -0.0131 -0.6894
 1828TIP3   OH226974   2.877   0.590   6.403 -0.2365 -0.0367  0.6144
 1828TIP3    H126975   2.905   0.559   6.489 -0.2479 -0.6409  0.4059
 1828TIP3    H226976   2.845   0.511   6.359 -0.1950  0.2635  0.0453
 1829TIP3   OH226977   1.984   3.431  12.989  0.1318  0.0083  0.3550
 1829TIP3    H126978   1.932   3.507  12.965  0.1760 -0.0921 -0.0623
 1829TIP3    H226979   2.066   3.467  13.022 -0.3117  0.1768  1.2943
 1830TIP3   OH226980   6.805   3.931  15.201  0.2169 -0.5776 -0.4555
 1830TIP3    H126981   6.855   3.959  15.124 -0.1503 -0.2072 -0.5633
 1830TIP3    H226982   6.827   3.995  15.269  0.5511 -0.9135 -0.2497
 1831TIP3   OH226983   1.970   0.871  11.162  0.6684 -0.2747 -0.5351
 1831TIP3    H126984   1.953   0.946  11.105 -2.9818 -0.2669  0.4404
 1831TIP3    H226985   2.053   0.835  11.131  0.4406  1.7285 -3.6409
 1832TIP3   OH226986   0.931   2.060   5.637 -0.9667  0.1272 -0.2497
 1832TIP3    H126987   0.839   2.077   5.656 -0.7808 -1.2417  2.0704
 1832TIP3    H226988   0.971   2.147   5.629 -1.8107  0.7434  2.0261
 1833TIP3   OH226989   1.126   1.159   0.572  0.1894  0.2276 -0.0185
 1833TIP3    H126990   1.093   1.086   0.520 -1.0472 -0.7866  2.1215
 1833TIP3    H226991   1.138   1.230   0.508 -1.9615 -0.7551 -1.5873
 1834TIP3   OH226992   2.468   4.092   2.279  0.3536  0.3513  0.2821
 1834TIP3    H126993   2.469   4.081   2.184 -0.1139 -0.7020  0.3850
 1834TIP3    H226994   2.415   4.170   2.294  0.1655  0.3402 -0.3045
 1835TIP3   OH226995   2.238   6.692  12.573 -0.2304 -0.0717  0.3526
 1835TIP3    H126996   2.281   6.771  12.607 -0.4585  0.1384  0.1528
 1835TIP3    H226997   2.251   6.627  12.642  0.2997  0.0250  0.3463
 1836TIP3   OH226998   5.559   3.789   2.276  0.5424  0.0310  0.6308
 1836TIP3    H126999   5.497   3.824   2.339 -0.0346  0.1351  0.0123
 1836TIP3    H227000   5.535   3.831   2.193  2.2275  1.0470  0.6281
 1837TIP3   OH227001   3.008   0.759   4.507 -0.4450  0.1736 -0.2057
 1837TIP3    H127002   3.041   0.835   4.460 -0.7535 -0.7398 -1.9529
 1837TIP3    H227003   3.076   0.693   4.497 -1.1404 -0.4975 -0.6456
 1838TIP3   OH227004   3.851   0.692  15.132 -0.1775  0.3313  0.4799
 1838TIP3    H127005   3.769   0.686  15.082  0.6947 -0.4771 -0.8896
 1838TIP3    H227006   3.865   0.604  15.165  0.8072  0.1567 -0.3877
 1839TIP3   OH227007   6.157   1.527  15.780  0.2762  0.1138  0.0800
 1839TIP3    H127008   6.071   1.565  15.798  0.3715 -0.1239  1.0628
 1839TIP3    H227009   6.210   1.547  15.857  0.9501 -0.1989 -0.2872
 1840TIP3   OH227010   4.683   3.701  15.299 -0.2840  0.3610 -0.1167
 1840TIP3    H127011   4.712   3.690  15.209 -0.8870 -0.6923 -0.1850
 1840TIP3    H227012   4.761   3.682  15.352  0.0136  0.7741 -0.4036
 1841TIP3   OH227013   6.716   2.780   5.800 -0.1028  0.1538  0.6094
 1841TIP3    H127014   6.731   2.712   5.866 -0.6706 -0.2224  0.3613
 1841TIP3    H227015   6.620   2.784   5.792 -0.1664  2.4809  2.1619
 1842TIP3   OH227016   2.222   2.290  12.305  0.2600 -0.2755 -0.3061
 1842TIP3    H127017   2.311   2.282  12.270  0.4271 -0.6845  0.2024
 1842TIP3    H227018   2.208   2.384  12.314  0.6721 -0.2112 -0.3123
 1843TIP3   OH227019   3.433   1.316  15.843 -0.1846  0.0069 -0.5692
 1843TIP3    H127020   3.469   1.345  15.926  2.2795  0.4527 -1.7621
 1843TIP3    H227021   3.407   1.225  15.859 -0.0088  0.1782  0.7452
 1844TIP3   OH227022   4.046   5.546   1.745 -0.1187  0.3155 -0.3780
 1844TIP3    H127023   4.016   5.514   1.660  1.8354  0.1642 -1.0513
 1844TIP3    H227024   4.052   5.467   1.800 -0.2179  0.2383 -0.4785
 1845TIP3   OH227025   6.373   6.488   6.074  0.0307 -0.1067  0.2826
 1845TIP3    H127026   6.327   6.467   6.155  1.2504 -0.4959  0.8795
 1845TIP3    H227027   6.385   6.583   6.077  1.5986 -0.3268  1.3847
 1846TIP3   OH227028   0.922   4.929  13.262 -0.0888  0.4353  0.1852
 1846TIP3    H127029   0.967   4.850  13.290  1.0987  0.9841 -0.1591
 1846TIP3    H227030   0.862   4.949  13.334 -0.0518 -0.5017  0.4842
 1847TIP3   OH227031   6.653   5.443  16.897  0.5113  0.0562  0.2651
 1847TIP3    H127032   6.669   5.521  16.950  3.1621 -0.1059 -0.2073
 1847TIP3    H227033   6.683   5.467  16.809  0.6126 -1.2336 -0.0625
 1848TIP3   OH227034   0.257   4.436  12.076 -0.0337  0.0541  0.2059
 1848TIP3    H127035   0.269   4.529  12.092 -1.3476  0.3211 -0.2516
 1848TIP3    H227036   0.239   4.399  12.162 -0.7602  0.4424  0.2292
 1849TIP3   OH227037   4.775   0.136   5.210  0.4840  0.4968  0.0300
 1849TIP3    H127038   4.755   0.043   5.212 -0.8816  0.7528 -0.9970
 1849TIP3    H227039   4.860   0.142   5.166 -0.0989 -0.1628 -1.2103
 1850TIP3   OH227040   2.812   1.931   5.712  0.3204  0.0348 -0.0565
 1850TIP3    H127041   2.905   1.951   5.723  0.7007  0.1699 -2.9987
 1850TIP3    H227042   2.767   1.997   5.765  1.8607  1.1814 -0.1428
 1851TIP3   OH227043   0.892   2.622  15.561  0.1828  0.5176 -0.1792
 1851TIP3    H127044   0.899   2.609  15.655  0.2212 -1.2521 -0.3985
 1851TIP3    H227045   0.980   2.607  15.527 -0.0351  0.1273 -0.5899
 1852TIP3   OH227046   3.068   4.235   2.865  0.4042 -0.0250  0.0961
 1852TIP3    H127047   2.977   4.207   2.876  0.6174 -0.9143 -0.3635
 1852TIP3    H227048   3.090   4.276   2.949 -0.1769 -0.4961  0.4885
 1853TIP3   OH227049   3.782   2.099  15.983  0.7426  0.2441 -0.0854
 1853TIP3    H127050   3.753   2.187  15.959 -0.4140  0.4536  1.9706
 1853TIP3    H227051   3.859   2.083  15.928  1.1639  2.6535 -0.2440
 1854TIP3   OH227052   4.209   2.314   5.130 -0.2211  0.0691 -0.1681
 1854TIP3    H127053   4.223   2.219   5.138 -0.1542  0.0859 -0.0900
 1854TIP3    H227054   4.120   2.327   5.161 -0.7095 -0.1500 -1.4369
 1855TIP3   OH227055   0.277   5.868  15.675 -0.0105  0.2467 -1.2224
 1855TIP3    H127056   0.248   5.913  15.596  1.3707  2.6034 -0.4660
 1855TIP3    H227057   0.245   5.924  15.746  1.0341 -0.4207 -0.2192
 1856TIP3   OH227058   0.692   2.223  16.514 -0.0934 -0.8961 -0.1753
 1856TIP3    H127059   0.774   2.247  16.473 -1.5101  2.6704 -1.0950
 1856TIP3    H227060   0.629   2.220  16.443 -1.3071 -1.0121  0.8753
 1857TIP3   OH227061   6.104   3.278  12.200 -0.0521 -0.0525 -0.3084
 1857TIP3    H127062   6.089   3.325  12.117  0.5642 -0.1039 -0.4491
 1857TIP3    H227063   6.018   3.277  12.242 -0.4641 -0.3817 -1.1332
 1858TIP3   OH227064   0.872   6.799   3.841  0.4131  0.2505  0.3420
 1858TIP3    H127065   0.848   6.727   3.899 -1.2215  1.6815  1.5060
 1858TIP3    H227066   0.835   6.776   3.756 -0.7523  0.0619  0.8933
 1859TIP3   OH227067   6.067   3.530   3.705 -0.1555  0.2650  0.2445
 1859TIP3    H127068   6.047   3.439   3.686 -1.6697  0.4973  0.6642
 1859TIP3    H227069   6.128   3.556   3.636 -0.2279 -0.8789 -0.2554
 1860TIP3   OH227070   4.027   1.447   0.542  0.9769 -0.2336 -0.0066
 1860TIP3    H127071   3.942   1.458   0.498  1.0087  1.7993  0.3805
 1860TIP3    H227072   4.083   1.513   0.501  1.7829 -0.1806  1.1646
 1861TIP3   OH227073   1.350   6.509  13.175  0.3044  0.2547 -0.2458
 1861TIP3    H127074   1.362   6.494  13.081  1.0863 -1.1951  0.0661
 1861TIP3    H227075   1.356   6.422  13.214 -0.3722  0.8009  1.1218
 1862TIP3   OH227076   0.451   2.699   3.492  0.5675  0.2259  0.2492
 1862TIP3    H127077   0.473   2.780   3.537  0.6598  0.7776 -0.7894
 1862TIP3    H227078   0.491   2.708   3.406 -0.1385 -0.5693 -0.1588
 1863TIP3   OH227079   4.166   0.547  12.062  0.1771 -0.0113 -0.2677
 1863TIP3    H127080   4.252   0.536  12.022  0.7489  2.0508  0.2992
 1863TIP3    H227081   4.105   0.550  11.988  0.7754 -0.0729 -0.7614
 1864TIP3   OH227082   5.253   2.443  12.189 -0.3196  0.1563  0.0227
 1864TIP3    H127083   5.175   2.446  12.244  0.8676 -1.4837  1.9097
 1864TIP3    H227084   5.306   2.516  12.219 -0.9489  1.0242 -0.9753
 1865TIP3   OH227085   4.820   3.087  16.865 -0.0298 -0.2733 -0.4854
 1865TIP3    H127086   4.734   3.100  16.825  0.7130  0.8694 -1.7779
 1865TIP3    H227087   4.828   3.158  16.929  0.1230 -0.0909 -0.7023
 1866TIP3   OH227088   2.929   0.102  17.108  0.3101  0.4502 -0.0814
 1866TIP3    H127089   2.864   0.124  17.175  2.0194  0.6191  1.5323
 1866TIP3    H227090   2.887   0.128  17.026 -1.7750  0.3173  0.8978
 1867TIP3   OH227091   2.119   6.648  13.101 -0.0261  0.4781 -0.4587
 1867TIP3    H127092   2.174   6.697  13.162 -0.5515 -0.4464  0.7682
 1867TIP3    H227093   2.034   6.691  13.106 -1.3295 -2.2790  2.8299
 1868TIP3   OH227094   2.779   5.191  15.900 -0.4703  0.5111  0.0201
 1868TIP3    H127095   2.757   5.281  15.874 -1.2908  0.0512 -0.9403
 1868TIP3    H227096   2.697   5.143  15.890  0.1440 -0.5053 -0.2064
 1869TIP3   OH227097   3.723   0.284   3.141 -0.3894 -0.8183 -0.1039
 1869TIP3    H127098   3.816   0.262   3.131  0.5791  2.6896  0.4957
 1869TIP3    H227099   3.696   0.311   3.053 -0.0671  0.7466  0.2534
 1870TIP3   OH227100   0.124   3.406   1.019  0.0195  0.7829 -0.4832
 1870TIP3    H127101   0.118   3.449   1.104  0.5325 -0.5161  0.2218
 1870TIP3    H227102   0.038   3.421   0.979 -1.0579 -0.5961  1.2427
 1871TIP3   OH227103   4.104   3.010  13.081 -0.0473  0.2834 -0.2517
 1871TIP3    H127104   4.171   3.074  13.058 -1.1108  2.4384  2.3976
 1871TIP3    H227105   4.132   2.977  13.167 -0.8340 -0.9865 -0.4657
 1872TIP3   OH227106   3.995   2.040  12.095 -1.0759 -0.5830  0.3565
 1872TIP3    H127107   4.006   2.128  12.131 -2.0789 -0.2909 -0.0271
 1872TIP3    H227108   3.900   2.032  12.081 -0.8614 -1.2683 -0.7447
 1873TIP3   OH227109   2.957   2.936   0.775  0.3516  0.1575  0.5875
 1873TIP3    H127110   2.900   2.876   0.822 -0.2752  0.2956  0.0156
 1873TIP3    H227111   2.928   3.023   0.802 -1.2643  0.3032 -1.4267
 1874TIP3   OH227112   4.706   5.362   1.198 -0.2125  0.6892  0.0626
 1874TIP3    H127113   4.616   5.344   1.226  0.9683  0.5213  4.0509
 1874TIP3    H227114   4.712   5.458   1.197 -0.9401  0.7385 -2.1085
 1875TIP3   OH227115   0.961   5.688   0.374  0.0034  0.0803 -0.3900
 1875TIP3    H127116   0.995   5.601   0.393  0.4145  0.6210  1.3807
 1875TIP3    H227117   0.877   5.692   0.420  0.8238  1.2530  1.0353
 1876TIP3   OH227118   0.988   4.555   5.868  0.1846  0.1298 -0.6075
 1876TIP3    H127119   0.989   4.650   5.871 -0.3548  0.0960  1.2826
 1876TIP3    H227120   1.080   4.530   5.876  0.0399  0.4435  2.4498
 1877TIP3   OH227121   1.281   0.080   5.623 -0.2462  0.0488 -0.4264
 1877TIP3    H127122   1.214   0.147   5.607 -0.1790  0.3476  0.4883
 1877TIP3    H227123   1.363   0.130   5.634 -0.1757 -0.1803  0.1478
 1878TIP3   OH227124   6.312   5.778   3.388  0.2819  0.4508  0.6622
 1878TIP3    H127125   6.336   5.708   3.327 -0.8418  0.2161  0.4915
 1878TIP3    H227126   6.226   5.753   3.421  0.1962  1.3853  1.1592
 1879TIP3   OH227127   2.857   4.184  14.652 -0.0090 -0.0044  0.4948
 1879TIP3    H127128   2.811   4.175  14.569  0.4676 -2.1096  0.4329
 1879TIP3    H227129   2.814   4.258  14.696 -0.2709  1.1164 -1.5842
 1880TIP3   OH227130   0.601   1.803   0.389 -0.0371  0.1757 -0.6255
 1880TIP3    H127131   0.565   1.890   0.408  0.4967  0.0815  0.9381
 1880TIP3    H227132   0.669   1.791   0.455 -0.2268 -1.5088 -0.7190
 1881TIP3   OH227133   6.349   4.734   5.928  0.0791  0.2230 -0.2868
 1881TIP3    H127134   6.361   4.811   5.872  1.6789  0.0356 -0.2410
 1881TIP3    H227135   6.255   4.717   5.927 -0.3581  2.5122  0.1450
 1882TIP3   OH227136   6.583   3.715  16.636 -0.2540  0.1578 -0.0745
 1882TIP3    H127137   6.502   3.744  16.595 -0.5110  2.0805  1.7266
 1882TIP3    H227138   6.629   3.796  16.658  1.2622 -0.8840  0.6599
 1883TIP3   OH227139   6.074   4.824   0.285 -0.5783 -0.1287  0.5129
 1883TIP3    H127140   5.995   4.873   0.261  0.8671  1.5012 -1.0907
 1883TIP3    H227141   6.129   4.888   0.331  0.2821 -0.9342  0.6321
 1884TIP3   OH227142   2.248   5.946   4.624 -0.2689 -0.1781  0.2184
 1884TIP3    H127143   2.252   5.864   4.673 -0.7240  1.2086  2.6713
 1884TIP3    H227144   2.320   5.940   4.561  0.5560 -1.8811  1.2984
 1885TIP3   OH227145   1.795   0.567   6.179  0.0809 -0.1166 -0.3285
 1885TIP3    H127146   1.771   0.576   6.271 -0.4573  1.5518 -0.6271
 1885TIP3    H227147   1.830   0.653   6.155  1.9910 -1.1071 -1.1704
 1886TIP3   OH227148   4.420   5.115   1.771  0.0372  0.0259  0.3553
 1886TIP3    H127149   4.382   5.179   1.831  1.9040  1.5241 -0.0394
 1886TIP3    H227150   4.353   5.102   1.704 -0.1594  1.9463  0.1631
 1887TIP3   OH227151   4.563   1.844   4.019  0.5615 -0.2214  0.2736
 1887TIP3    H127152   4.540   1.772   4.077  1.8063 -1.0433 -0.2311
 1887TIP3    H227153   4.611   1.803   3.947  0.3996  0.9803 -0.5366
 1888TIP3   OH227154   5.982   5.106  11.667  0.7058 -0.0154  0.6851
 1888TIP3    H127155   5.957   5.063  11.585  2.0621  1.0169 -0.2852
 1888TIP3    H227156   6.018   5.035  11.721 -2.2410 -1.1203  1.2794
 1889TIP3   OH227157   3.680   1.628  12.542 -0.3697  0.3725  0.2541
 1889TIP3    H127158   3.692   1.719  12.518  2.0318  0.6606  2.3605
 1889TIP3    H227159   3.711   1.578  12.466  1.4053  1.2794  0.3738
 1890TIP3   OH227160   4.676   4.225  14.715  0.5013 -0.4761 -0.1478
 1890TIP3    H127161   4.605   4.271  14.670  0.2747  0.1637  0.8474
 1890TIP3    H227162   4.754   4.277  14.697  0.0096  1.1474  2.1554
 1891TIP3   OH227163   0.234   0.572   0.616  0.5848  0.1833 -0.1654
 1891TIP3    H127164   0.176   0.625   0.562  1.1952  0.2485 -0.7693
 1891TIP3    H227165   0.182   0.494   0.637 -0.0664  0.7012  0.1442
 1892TIP3   OH227166   6.270   5.821  11.785 -0.0643  0.2495 -0.2273
 1892TIP3    H127167   6.288   5.728  11.796  0.1394  0.4248  0.9736
 1892TIP3    H227168   6.182   5.824  11.747  0.7635 -0.4838 -2.3327
 1893TIP3   OH227169   3.284   4.238   6.582  0.0853  0.4571  1.0449
 1893TIP3    H127170   3.253   4.199   6.500 -3.0642 -2.2028  3.3997
 1893TIP3    H227171   3.255   4.329   6.577 -2.7145 -0.4139  0.4345
 1894TIP3   OH227172   4.812   1.678   2.284  0.3876  0.3153 -0.3520
 1894TIP3    H127173   4.834   1.681   2.191 -1.9574  2.5337 -0.9161
 1894TIP3    H227174   4.861   1.751   2.322  0.0305  0.4633 -0.1749
 1895TIP3   OH227175   0.900   3.131  12.888  0.4206 -0.1086 -0.1231
 1895TIP3    H127176   0.832   3.108  12.951 -0.4856 -0.0923 -1.1024
 1895TIP3    H227177   0.963   3.183  12.939  0.0964 -0.7537  0.9542
 1896TIP3   OH227178   5.491   1.183  17.286 -0.3621 -0.4197 -0.2211
 1896TIP3    H127179   5.525   1.106  17.239 -1.6475 -0.5806 -0.9136
 1896TIP3    H227180   5.539   1.183  17.369  1.4120 -0.5587 -1.2144
 1897TIP3   OH227181   1.866   3.906  13.775  0.4745 -0.7382 -0.2352
 1897TIP3    H127182   1.947   3.857  13.787 -0.3881 -2.0116  0.5008
 1897TIP3    H227183   1.867   3.934  13.683  2.2790  0.2543  0.0635
 1898TIP3   OH227184   5.182   4.895  15.233 -0.0785  0.4454 -0.4107
 1898TIP3    H127185   5.165   4.986  15.207  2.3697  0.4422 -2.3199
 1898TIP3    H227186   5.250   4.902  15.300 -0.3606  0.0544 -0.0844
 1899TIP3   OH227187   0.690   1.485  12.575 -0.0552 -0.0022  0.5090
 1899TIP3    H127188   0.643   1.452  12.499 -1.9236  0.1046  1.5874
 1899TIP3    H227189   0.668   1.424  12.645 -0.6039  1.4620  1.6300
 1900TIP3   OH227190   1.329   2.527   1.996  0.1199 -0.0330 -0.0140
 1900TIP3    H127191   1.373   2.514   2.080 -0.5619 -2.6524 -0.0122
 1900TIP3    H227192   1.396   2.568   1.940  1.8671 -1.9141  0.6400
 1901TIP3   OH227193   6.268   1.902  13.851  0.6693 -0.1182  0.3570
 1901TIP3    H127194   6.179   1.895  13.887  1.8530 -0.7893  3.2830
 1901TIP3    H227195   6.305   1.815  13.863  1.4629 -0.0845 -1.6657
 1902TIP3   OH227196   1.122   4.784  12.002 -0.1815 -0.0398  0.0142
 1902TIP3    H127197   1.107   4.781  11.908  1.7046  3.2556 -0.4579
 1902TIP3    H227198   1.203   4.735  12.016 -0.6359 -0.8051 -0.0318
 1903TIP3   OH227199   1.005   6.775   0.864 -0.7461  0.1261  0.1348
 1903TIP3    H127200   0.956   6.852   0.836  0.2374  0.2516 -1.2702
 1903TIP3    H227201   1.049   6.803   0.945 -1.4553  0.6001  0.3640
 1904TIP3   OH227202   3.336   0.583   1.414 -0.7266  0.3680 -0.1510
 1904TIP3    H127203   3.308   0.587   1.323  0.6840  0.1644 -0.6055
 1904TIP3    H227204   3.375   0.669   1.431  1.2279 -0.4283 -0.4921
 1905TIP3   OH227205   5.859   4.330   5.106 -0.3071 -0.0607  0.0913
 1905TIP3    H127206   5.812   4.392   5.051  0.9130  2.0561  1.3726
 1905TIP3    H227207   5.795   4.302   5.171 -0.1948  1.7445  0.9954
 1906TIP3   OH227208   0.356   1.023  16.659 -0.3426  0.4249  0.3782
 1906TIP3    H127209   0.379   1.068  16.578  0.8879 -0.0909  0.4288
 1906TIP3    H227210   0.263   1.041  16.671 -0.5963  0.2808 -1.2847
 1907TIP3   OH227211   2.829   5.614   0.379 -0.2312 -0.1249 -0.0079
 1907TIP3    H127212   2.838   5.531   0.425  1.1753 -1.1422 -2.0362
 1907TIP3    H227213   2.836   5.680   0.447 -2.8255 -1.6723  1.8384
 1908TIP3   OH227214   3.468   3.238  13.468  0.4142 -0.0000 -0.6716
 1908TIP3    H127215   3.447   3.252  13.560  1.4412 -0.0158 -0.4201
 1908TIP3    H227216   3.384   3.234  13.424 -0.1505 -1.6957  0.5241
 1909TIP3   OH227217   0.949   3.709   5.157  0.2327 -0.1872  0.1153
 1909TIP3    H127218   1.036   3.710   5.196  0.1574 -0.2872  0.2856
 1909TIP3    H227219   0.892   3.745   5.224  0.3210  0.9882 -0.4329
 1910TIP3   OH227220   4.709   1.512   2.507  0.4761 -0.3896  0.3024
 1910TIP3    H127221   4.755   1.541   2.586 -1.6830  0.7906  1.1546
 1910TIP3    H227222   4.770   1.529   2.436  0.2566  4.0467  1.0474
 1911TIP3   OH227223   5.303   0.888   3.640 -0.3004 -0.0106  0.3063
 1911TIP3    H127224   5.322   0.799   3.607 -0.8111 -0.3643  0.9652
 1911TIP3    H227225   5.213   0.904   3.613 -0.2851  0.2195  0.3984
 1912TIP3   OH227226   3.827   2.745   1.695 -0.0480 -0.2304 -0.0698
 1912TIP3    H127227   3.857   2.816   1.639 -0.7684  0.0775 -0.0619
 1912TIP3    H227228   3.744   2.776   1.732 -0.6684 -1.3135 -0.5321
 1913TIP3   OH227229   2.835   4.452  16.254 -0.0078 -0.0343 -0.2119
 1913TIP3    H127230   2.851   4.376  16.310 -0.0793  0.4096  0.4085
 1913TIP3    H227231   2.843   4.527  16.312 -3.2120  0.2917 -0.0632
 1914TIP3   OH227232   0.571   2.122   3.482 -0.9327 -0.2807 -0.5617
 1914TIP3    H127233   0.526   2.144   3.564  0.6339 -1.6100  0.6814
 1914TIP3    H227234   0.586   2.028   3.488  1.8064  0.0938 -1.0420
 1915TIP3   OH227235   6.688   0.585   1.347 -0.5268  0.3199 -0.5665
 1915TIP3    H127236   6.608   0.570   1.398  0.1936 -0.3629  0.3922
 1915TIP3    H227237   6.750   0.521   1.382  0.2001  0.3215 -1.8448
 1916TIP3   OH227238   6.386   5.853   1.706  0.0233  0.5577  0.9826
 1916TIP3    H127239   6.438   5.777   1.682  0.3529  0.0876  3.1302
 1916TIP3    H227240   6.302   5.840   1.661  0.0337 -1.1468  1.4115
 1917TIP3   OH227241   4.841   4.050   5.027 -0.1845 -0.1708  0.6440
 1917TIP3    H127242   4.912   4.010   5.077  0.6714  1.1065  0.4755
 1917TIP3    H227243   4.808   3.980   4.971  2.4149 -0.2043 -0.9015
 1918TIP3   OH227244   3.983   3.074   0.429 -0.3507 -0.5006  0.0282
 1918TIP3    H127245   4.073   3.104   0.418 -0.1679 -0.9650  0.2082
 1918TIP3    H227246   3.992   2.985   0.465 -0.8761 -0.6249 -0.1408
 1919TIP3   OH227247   2.667   5.259  12.444 -0.2542 -0.3496  0.5814
 1919TIP3    H127248   2.591   5.213  12.479 -0.0096 -1.4375 -0.2789
 1919TIP3    H227249   2.736   5.244  12.508 -0.0017 -1.7372  0.0063
 1920TIP3   OH227250   5.223   1.836   1.170 -0.0074 -0.1123  0.0577
 1920TIP3    H127251   5.249   1.864   1.083  0.1863 -1.8394 -0.4570
 1920TIP3    H227252   5.155   1.898   1.196  0.8913  1.2383 -0.7441
 1921TIP3   OH227253   0.155   2.771  14.226 -0.2146 -0.1115 -0.1103
 1921TIP3    H127254   0.218   2.810  14.167  0.1658 -1.5716 -0.6913
 1921TIP3    H227255   0.071   2.812  14.204  0.1491  0.2488 -0.8014
 1922TIP3   OH227256   1.103   0.036   5.175  0.4564  0.2899  0.4140
 1922TIP3    H127257   1.038  -0.029   5.203 -0.1154  1.7796  2.7223
 1922TIP3    H227258   1.182   0.014   5.225  0.5814  0.6978  0.3952
 1923TIP3   OH227259   5.475   6.634   5.289  0.5021 -0.5188  0.2547
 1923TIP3    H127260   5.568   6.649   5.300  0.2605  1.7194 -0.5602
 1923TIP3    H227261   5.460   6.644   5.195 -0.6314 -0.3662  0.4394
 1924TIP3   OH227262   4.323   2.527   3.812 -0.2910 -0.1612 -0.2607
 1924TIP3    H127263   4.413   2.519   3.781 -0.6331  0.8762 -1.5772
 1924TIP3    H227264   4.325   2.491   3.901  1.4889  0.1296 -0.1548
 1925TIP3   OH227265   4.751   0.105  14.371  0.7283  0.3474  0.2365
 1925TIP3    H127266   4.755   0.200  14.372 -0.7264  0.5071 -3.1737
 1925TIP3    H227267   4.841   0.077  14.350  0.6081  1.0919 -1.3263
 1926TIP3   OH227268   1.458   2.821   3.357  0.8824 -0.1347  0.0805
 1926TIP3    H127269   1.519   2.890   3.333  0.6917  0.1561  0.4195
 1926TIP3    H227270   1.374   2.867   3.367  0.5670 -0.5617 -0.5948
 1927TIP3   OH227271   1.733   5.649   4.717  0.2036  0.5689 -0.6769
 1927TIP3    H127272   1.790   5.585   4.761  0.1133  0.4654 -0.7095
 1927TIP3    H227273   1.652   5.648   4.770  0.6071  1.4605 -0.0292
 1928TIP3   OH227274   3.841   3.594  14.885 -0.6781  0.2131 -0.4896
 1928TIP3    H127275   3.927   3.606  14.925  0.6674  0.6903 -3.3964
 1928TIP3    H227276   3.792   3.543  14.949  2.3555 -1.6439  0.4558
 1929TIP3   OH227277   1.409   5.978   5.445 -0.5551 -0.0474  0.7239
 1929TIP3    H127278   1.342   5.928   5.491 -1.3739 -0.5611 -0.9656
 1929TIP3    H227279   1.377   6.069   5.448 -1.0110 -0.1960  0.4951
 1930TIP3   OH227280   3.916   5.394  17.081  1.0075  0.0541  0.6868
 1930TIP3    H127281   3.967   5.313  17.072  1.1158  0.3508 -1.6451
 1930TIP3    H227282   3.825   5.365  17.086  1.2418 -0.3922  3.4481
 1931TIP3   OH227283   3.509   3.120   5.463  0.1772 -0.1033 -0.5503
 1931TIP3    H127284   3.427   3.113   5.414 -0.0314  1.9077 -0.5298
 1931TIP3    H227285   3.499   3.058   5.536 -0.1057 -2.0284 -2.1911
 1932TIP3   OH227286   1.148   2.733   4.348 -0.3504  0.5053 -0.0141
 1932TIP3    H127287   1.181   2.727   4.437  0.3104  0.6047 -0.2502
 1932TIP3    H227288   1.120   2.644   4.327 -1.1021  0.6074  0.5136
 1933TIP3   OH227289   3.592   2.493  16.167  0.3064 -0.7042  0.5147
 1933TIP3    H127290   3.599   2.507  16.262  2.6593 -1.4237  0.4707
 1933TIP3    H227291   3.602   2.399  16.156  1.8608 -0.4316 -0.5859
 1934TIP3   OH227292   4.588   3.351  17.286  0.7177  0.1200 -0.2979
 1934TIP3    H127293   4.598   3.284  17.218 -0.6812  0.9005 -1.3103
 1934TIP3    H227294   4.613   3.432  17.243  1.6791  0.3704  0.7064
 1935TIP3   OH227295   6.325   5.788  12.079  0.3745 -0.0219  0.3580
 1935TIP3    H127296   6.267   5.805  12.004 -0.8583 -0.0002  1.3086
 1935TIP3    H227297   6.392   5.730  12.044 -0.5481 -0.5170 -0.6120
 1936TIP3   OH227298   6.671   3.246   5.801  0.2909 -0.1618  0.1715
 1936TIP3    H127299   6.678   3.250   5.897  0.6153  0.2841  0.1334
 1936TIP3    H227300   6.759   3.221   5.772  1.5314  4.1698 -0.2489
 1937TIP3   OH227301   1.829   6.497  11.117 -0.4172  0.0061 -0.2762
 1937TIP3    H127302   1.807   6.496  11.024 -1.5543 -0.7502 -0.0077
 1937TIP3    H227303   1.891   6.424  11.127 -0.6314 -0.1900 -0.3662
 1938TIP3   OH227304   4.173   4.019  16.297  0.1544 -0.4877  0.6232
 1938TIP3    H127305   4.190   3.960  16.224 -0.1432 -0.3859  0.4685
 1938TIP3    H227306   4.218   3.979  16.371  1.0188 -0.2491  0.2372
 1939TIP3   OH227307   2.419   3.342   4.132  0.2219  0.0864 -0.0359
 1939TIP3    H127308   2.448   3.320   4.221 -1.2087  0.7861  0.6151
 1939TIP3    H227309   2.329   3.309   4.127 -1.0165  3.2523  0.0342
 1940TIP3   OH227310   5.622   0.637  16.326 -0.1793 -0.6848 -0.4180
 1940TIP3    H127311   5.651   0.623  16.416 -0.7065  0.6516 -0.0218
 1940TIP3    H227312   5.555   0.705  16.333  1.2429  0.9270 -2.0370
 1941TIP3   OH227313   1.191   0.040   0.614  0.2168 -0.6305 -0.4671
 1941TIP3    H127314   1.166   0.027   0.523  0.9457 -1.1191 -0.6031
 1941TIP3    H227315   1.241   0.122   0.613 -0.7018 -0.0632 -0.3226
 1942TIP3   OH227316   6.207   5.920  16.700 -0.0203  0.4485 -0.2824
 1942TIP3    H127317   6.282   5.905  16.758 -0.8654 -0.1375  0.6856
 1942TIP3    H227318   6.182   6.011  16.717  1.7144  1.2909 -2.1074
 1943TIP3   OH227319   1.179   1.968   0.699  0.4600 -0.2265 -0.3005
 1943TIP3    H127320   1.106   1.914   0.729  0.1573 -0.4523 -1.4109
 1943TIP3    H227321   1.255   1.935   0.746 -0.1048 -0.1263  0.7119
 1944TIP3   OH227322   5.890   3.255   6.055  0.6688 -0.4931  0.4385
 1944TIP3    H127323   5.919   3.198   5.984 -0.3610 -0.2510 -0.1853
 1944TIP3    H227324   5.900   3.203   6.135  2.1195 -0.6594  0.1552
 1945TIP3   OH227325   5.735   6.304   1.578  0.0031  1.0346 -0.2216
 1945TIP3    H127326   5.716   6.236   1.514  2.2208  0.5950 -0.4343
 1945TIP3    H227327   5.779   6.373   1.528  2.4163  0.3702  0.9437
 1946TIP3   OH227328   1.728   4.887   4.545  0.0112 -0.4721 -0.3109
 1946TIP3    H127329   1.709   4.804   4.589  1.9265 -0.7958 -0.0613
 1946TIP3    H227330   1.700   4.954   4.607  1.1155 -0.9322  0.7067
 1947TIP3   OH227331   6.364   4.831  13.338  0.2638  0.5618  0.1330
 1947TIP3    H127332   6.333   4.875  13.417 -2.6255 -2.8423  1.0235
 1947TIP3    H227333   6.346   4.739  13.353  3.7492 -0.7111 -2.7253
 1948TIP3   OH227334   0.652   5.589   2.568  0.1441 -0.1272 -0.1077
 1948TIP3    H127335   0.666   5.626   2.655 -0.1111 -0.0751 -0.0894
 1948TIP3    H227336   0.557   5.580   2.560  0.1371  0.2611 -0.5429
 1949TIP3   OH227337   2.592   6.527  14.999  0.4990  0.3480  0.2397
 1949TIP3    H127338   2.591   6.615  15.038  0.5048  1.0957 -1.4179
 1949TIP3    H227339   2.665   6.529  14.938  0.7170 -0.9368  0.4512
 1950TIP3   OH227340   3.450   0.710  17.187 -0.1760  0.5798  0.7118
 1950TIP3    H127341   3.440   0.707  17.283 -0.3668  0.7117  0.6979
 1950TIP3    H227342   3.538   0.744  17.173  0.0937 -0.0529  0.8474
 1951TIP3   OH227343   0.134   2.520  14.728  0.5910  0.0599  0.0193
 1951TIP3    H127344   0.170   2.516  14.817 -1.9515  0.2816  1.0795
 1951TIP3    H227345   0.095   2.434  14.713  0.5774  0.1866 -0.7247
 1952TIP3   OH227346   4.715   4.625   2.444  0.3889 -0.0892  0.0223
 1952TIP3    H127347   4.806   4.646   2.423  0.2742 -0.3858 -0.7861
 1952TIP3    H227348   4.717   4.532   2.467  0.4624  0.1573  1.0551
 1953TIP3   OH227349   6.520   4.414  11.966 -0.0072  0.1164 -0.3679
 1953TIP3    H127350   6.436   4.457  11.946 -0.6619 -0.3744  1.3018
 1953TIP3    H227351   6.502   4.321  11.956 -0.0382 -0.0709  1.3723
 1954TIP3   OH227352   3.971   2.885  16.093 -0.1828  0.2846 -0.2798
 1954TIP3    H127353   3.906   2.821  16.120  2.2359 -1.9732  0.4232
 1954TIP3    H227354   3.938   2.969  16.124 -3.2952 -0.6303 -0.9934
 1955TIP3   OH227355   5.176   2.119  16.062 -0.3124  0.1501  0.0863
 1955TIP3    H127356   5.094   2.075  16.082  0.1208 -0.7789 -0.1495
 1955TIP3    H227357   5.225   2.056  16.009  0.6320  0.6199  0.3879
 1956TIP3   OH227358   3.278   1.349   4.109 -0.1406 -0.0258  0.3054
 1956TIP3    H127359   3.247   1.339   4.018 -1.1778  2.1168  0.3742
 1956TIP3    H227360   3.266   1.263   4.148 -3.1760 -0.0822 -0.5998
 1957TIP3   OH227361   5.281   5.442  15.639  0.1290  0.0869 -0.1525
 1957TIP3    H127362   5.340   5.401  15.703 -0.2945 -0.7113 -0.2752
 1957TIP3    H227363   5.195   5.407  15.660 -0.2223  0.8603 -0.3086
 1958TIP3   OH227364   1.828   0.269  11.902 -0.5047 -0.0627 -0.1809
 1958TIP3    H127365   1.833   0.364  11.917  0.7814 -0.2613  0.6866
 1958TIP3    H227366   1.905   0.250  11.848 -0.4207 -0.7125  0.1700
 1959TIP3   OH227367   2.384   4.578  12.351  0.3062  0.2674 -0.2769
 1959TIP3    H127368   2.395   4.668  12.320  0.1322  0.5909  0.6063
 1959TIP3    H227369   2.303   4.580  12.403  0.8159 -0.1851  0.5369
 1960TIP3   OH227370   5.143   6.343   5.690 -0.0011 -0.4747  0.0776
 1960TIP3    H127371   5.083   6.359   5.762 -1.5024 -1.3180 -0.9515
 1960TIP3    H227372   5.143   6.424   5.639 -1.0735 -0.8070 -0.4735
 1961TIP3   OH227373   0.291   2.098  14.913 -0.2535  0.3681 -0.6522
 1961TIP3    H127374   0.268   2.015  14.954 -0.9865  0.7732 -0.2247
 1961TIP3    H227375   0.237   2.102  14.834  1.7829 -0.8001 -2.1333
 1962TIP3   OH227376   1.684   4.082  16.696 -0.0534  0.0866  0.1704
 1962TIP3    H127377   1.641   4.039  16.622  0.9050  0.7854 -0.8151
 1962TIP3    H227378   1.777   4.080  16.675  0.1398  1.2914  0.8115
 1963TIP3   OH227379   1.962   6.310  16.983 -0.7060  0.3374  0.5570
 1963TIP3    H127380   1.875   6.336  16.954 -0.8260 -0.3705  0.2626
 1963TIP3    H227381   1.998   6.388  17.026 -0.5608  1.3803 -1.4080
 1964TIP3   OH227382   0.753   1.583  13.961 -0.3020 -0.0851 -0.3697
 1964TIP3    H127383   0.702   1.644  14.014  0.0536  0.3198 -0.4981
 1964TIP3    H227384   0.723   1.598  13.871 -0.4975 -0.3764 -0.3549
 1965TIP3   OH227385   3.608   4.743   5.819  0.7718 -0.0655 -0.0351
 1965TIP3    H127386   3.697   4.762   5.789  1.0277 -1.1586  0.0145
 1965TIP3    H227387   3.580   4.668   5.767 -1.4450  2.3534 -2.5097
 1966TIP3   OH227388   2.857   4.223  15.398 -0.3009 -0.1761  0.2803
 1966TIP3    H127389   2.914   4.244  15.324 -1.7603 -0.2737 -0.8820
 1966TIP3    H227390   2.813   4.305  15.419 -0.1265 -0.2236  0.8293
 1967TIP3   OH227391   1.101   3.226  14.506 -0.2462  0.7442 -0.2022
 1967TIP3    H127392   1.046   3.250  14.432 -1.3078  1.0348  0.6746
 1967TIP3    H227393   1.063   3.272  14.580  0.3927 -0.1027  0.6602
 1968TIP3   OH227394   0.582   6.471   1.894 -0.4830  0.7366  0.0292
 1968TIP3    H127395   0.641   6.398   1.877  0.2440  1.2493  0.3154
 1968TIP3    H227396   0.506   6.431   1.936  0.4335  0.3050  1.3079
 1969TIP3   OH227397   0.162   0.835   0.516 -0.1069 -0.6524 -0.0636
 1969TIP3    H127398   0.220   0.836   0.593  0.7975 -2.4243 -0.6778
 1969TIP3    H227399   0.098   0.767   0.536 -0.6771 -0.1821 -0.3001
 1970TIP3   OH227400   1.846   5.192  15.337 -0.1408 -0.3240 -0.1824
 1970TIP3    H127401   1.875   5.268  15.287  0.4323 -0.1463  0.4310
 1970TIP3    H227402   1.828   5.126  15.270  0.7599 -0.1268 -0.6266
 1971TIP3   OH227403   2.901   6.753  14.116 -0.0283 -0.0521  0.6709
 1971TIP3    H127404   2.868   6.663  14.119 -2.1285  0.7265  1.5677
 1971TIP3    H227405   2.921   6.767  14.023 -1.0616 -0.9590  0.2923
 1972TIP3   OH227406   2.834   3.047   4.953  0.4688  0.3254 -0.3892
 1972TIP3    H127407   2.902   3.089   4.902  2.0738 -0.5892  0.9541
 1972TIP3    H227408   2.870   3.043   5.042 -1.8531  1.0072  0.6351
 1973TIP3   OH227409   0.061   3.792  12.341  0.0327  0.5919  0.5061
 1973TIP3    H127410   0.047   3.748  12.256 -1.9377  0.8224  0.6964
 1973TIP3    H227411   0.109   3.871  12.319 -0.1321  0.4586 -0.3556
 1974TIP3   OH227412   3.592   4.484   5.965  0.6865  0.1460  0.1724
 1974TIP3    H127413   3.606   4.578   5.955  0.5172  0.4265  2.2772
 1974TIP3    H227414   3.675   4.451   6.000  1.0372 -0.6387 -1.3713
 1975TIP3   OH227415   0.537   4.133   6.325 -0.5467  0.0773 -0.2668
 1975TIP3    H127416   0.591   4.080   6.266 -1.3331  0.7901 -1.6578
 1975TIP3    H227417   0.471   4.072   6.358  0.0926 -0.4019  0.1446
 1976TIP3   OH227418   0.379   2.977  12.447  0.5172 -0.2667 -0.0360
 1976TIP3    H127419   0.468   3.005  12.468  0.4266 -1.1200  1.5973
 1976TIP3    H227420   0.325   3.054  12.464  0.8890  0.1224 -0.6065
 1977TIP3   OH227421   0.528   4.134   2.904 -0.0063  0.5361  0.2292
 1977TIP3    H127422   0.443   4.108   2.939  0.7184 -1.2838  0.7115
 1977TIP3    H227423   0.570   4.181   2.976 -0.3383  0.8363  0.2253
 1978TIP3   OH227424   4.021   6.051  15.797  0.3377 -0.0089 -0.7168
 1978TIP3    H127425   3.952   6.007  15.847 -0.2630 -0.0113 -1.5379
 1978TIP3    H227426   3.998   6.035  15.706  1.4026  0.0370 -0.9939
 1979TIP3   OH227427   1.326   6.258  15.957  0.1511 -0.1119  0.1241
 1979TIP3    H127428   1.339   6.218  16.043 -0.8390 -3.0339 -1.0381
 1979TIP3    H227429   1.355   6.192  15.894  0.3427  1.7605 -1.8182
 1980TIP3   OH227430   0.651   6.642  12.574  0.2868  0.3544  0.3690
 1980TIP3    H127431   0.706   6.576  12.616  0.2705 -0.5462 -0.9882
 1980TIP3    H227432   0.709   6.717  12.560  0.8401 -0.1290  0.0669
 1981TIP3   OH227433   5.105   2.119  16.892 -0.2431 -0.1024  0.3342
 1981TIP3    H127434   5.030   2.069  16.860 -0.2558  0.3668 -0.3911
 1981TIP3    H227435   5.180   2.081  16.846 -0.1518  0.0017  0.3971
 1982TIP3   OH227436   0.335   6.438  11.929  0.2338 -0.1572  0.0750
 1982TIP3    H127437   0.280   6.447  12.006 -2.5134  0.7669 -1.8811
 1982TIP3    H227438   0.287   6.376  11.873  1.0250  0.8867 -1.8000
 1983TIP3   OH227439   2.697   1.925   2.355 -0.2148  0.4612  0.2706
 1983TIP3    H127440   2.645   1.936   2.435  0.3523 -1.0079  0.8736
 1983TIP3    H227441   2.636   1.944   2.284 -1.0760  0.5627  1.0226
 1984TIP3   OH227442   5.564   1.524   0.364 -0.0006 -0.5328  0.6329
 1984TIP3    H127443   5.545   1.458   0.297  2.2211 -0.5916 -0.0061
 1984TIP3    H227444   5.528   1.605   0.328 -2.0473 -1.2229  1.0624
 1985TIP3   OH227445   4.115   2.255  12.247  0.2264  0.4416 -0.1166
 1985TIP3    H127446   4.195   2.206  12.263  0.0407  0.1758  0.0138
 1985TIP3    H227447   4.144   2.339  12.212  0.5679  0.4164  0.1083
 1986TIP3   OH227448   3.636   1.719   0.485 -0.5432  0.4220 -0.0013
 1986TIP3    H127449   3.597   1.640   0.524 -0.4347 -0.5121 -1.7223
 1986TIP3    H227450   3.722   1.725   0.525  0.7691 -2.2469 -2.2106
 1987TIP3   OH227451   0.074   4.660  11.838 -0.4244 -0.3833  0.3413
 1987TIP3    H127452   0.053   4.714  11.762  1.7900  0.9611  0.6367
 1987TIP3    H227453   0.114   4.581  11.801  0.3902  0.1444  0.0727
 1988TIP3   OH227454   2.443   4.182   5.288 -0.4479 -0.1594 -0.3099
 1988TIP3    H127455   2.422   4.092   5.315  1.4626 -0.2225  1.0760
 1988TIP3    H227456   2.457   4.175   5.194 -0.1052 -1.3849 -0.1879
 1989TIP3   OH227457   3.212   0.352   1.193 -0.3956 -0.4510  0.2662
 1989TIP3    H127458   3.215   0.302   1.112  2.0912 -2.7662  1.7087
 1989TIP3    H227459   3.241   0.440   1.169  2.1558 -1.6045 -1.0450
 1990TIP3   OH227460   6.765   5.706  13.471  0.2968  0.2647 -0.0974
 1990TIP3    H127461   6.819   5.778  13.504  0.1537 -0.0098  0.7578
 1990TIP3    H227462   6.714   5.678  13.547  1.5303 -1.8009  0.0034
 1991TIP3   OH227463   4.965   6.160  15.501  0.5883 -0.2509  0.2259
 1991TIP3    H127464   4.970   6.256  15.503  1.3998 -0.2880  0.3564
 1991TIP3    H227465   4.939   6.139  15.412  3.7721 -0.0256 -0.8024
 1992TIP3   OH227466   4.879   4.518   1.060  0.1615 -0.2233 -0.2126
 1992TIP3    H127467   4.810   4.465   1.100 -0.2947  1.0704  0.7415
 1992TIP3    H227468   4.959   4.495   1.108 -0.3681  1.2609  1.4383
 1993TIP3   OH227469   0.739   5.806  13.370  0.1947 -0.5033 -0.5163
 1993TIP3    H127470   0.795   5.735  13.401  0.5575 -0.3873 -0.9040
 1993TIP3    H227471   0.741   5.871  13.441 -0.3785 -1.0070 -0.0292
 1994TIP3   OH227472   5.905   4.276  12.427  0.0634  0.1595  0.4420
 1994TIP3    H127473   5.876   4.276  12.336  0.4982 -0.3490  0.3017
 1994TIP3    H227474   5.978   4.214  12.429  0.4864  0.6717  0.9982
 1995TIP3   OH227475   1.535   0.303  12.559  0.8291  0.3787  0.4752
 1995TIP3    H127476   1.496   0.245  12.624 -1.6770  1.6997  0.1798
 1995TIP3    H227477   1.500   0.271  12.475  0.6039  1.4143  0.1776
 1996TIP3   OH227478   5.778   4.563   2.129  0.3843 -0.6340  0.1938
 1996TIP3    H127479   5.834   4.499   2.175 -0.7281 -0.6812  1.5230
 1996TIP3    H227480   5.792   4.545   2.036  1.5224 -1.5621  0.5344
 1997TIP3   OH227481   6.088   5.573   5.679  0.2455 -0.0892  0.6107
 1997TIP3    H127482   6.065   5.642   5.617 -0.1992  2.5517  3.6104
 1997TIP3    H227483   6.034   5.591   5.756  2.9704 -1.4955  2.9118
 1998TIP3   OH227484   5.997   3.806   0.831 -0.7624 -0.2063  0.3670
 1998TIP3    H127485   5.908   3.827   0.861  0.0374 -0.0112  2.7870
 1998TIP3    H227486   6.026   3.886   0.786 -1.5699 -0.0294  0.1440
 1999TIP3   OH227487   1.081   0.010  15.046 -0.0917  0.1794 -0.3198
 1999TIP3    H127488   1.168  -0.016  15.076  0.5318  0.9806 -1.4252
 1999TIP3    H227489   1.039  -0.073  15.022  0.2855 -0.2287  0.3988
 2000TIP3   OH227490   0.213   1.825  16.693  0.5811  0.5997  0.1613
 2000TIP3    H127491   0.207   1.731  16.709  0.1831  0.1105 -2.7305
 2000TIP3    H227492   0.123   1.852  16.676  0.4453  1.8553  2.6577
 2001TIP3   OH227493   2.367   5.727  17.053  0.4032  0.5614  0.4852
 2001TIP3    H127494   2.415   5.780  16.990  0.9685 -0.1967  0.2635
 2001TIP3    H227495   2.413   5.643  17.053 -2.0191 -0.8293 -1.1470
 2002TIP3   OH227496   2.131   6.077  16.983 -0.1137  0.1530  0.5116
 2002TIP3    H127497   2.083   5.998  16.958 -1.2472  1.1085 -0.3559
 2002TIP3    H227498   2.063   6.142  17.000  0.8149  0.9453  1.2290
 2003TIP3   OH227499   0.796   4.475   4.294 -0.1495 -0.2162  0.1750
 2003TIP3    H127500   0.781   4.525   4.214  1.6166 -1.5395 -1.0164
 2003TIP3    H227501   0.708   4.462   4.331 -0.7395  2.6636 -0.1276
 2004TIP3   OH227502   4.191   5.211   2.282  0.2792 -0.6414  0.1763
 2004TIP3    H127503   4.281   5.180   2.296  0.1339 -1.9302 -1.6415
 2004TIP3    H227504   4.137   5.134   2.296 -0.3880 -0.3279 -0.6520
 2005TIP3   OH227505   1.318   1.633  12.046 -0.2017 -0.2228  0.1990
 2005TIP3    H127506   1.391   1.577  12.018 -0.5540 -0.7630  0.3874
 2005TIP3    H227507   1.246   1.609  11.988 -0.1347  0.5733 -0.2364
 2006TIP3   OH227508   2.251   4.317  11.126  0.1824 -0.3235  0.4881
 2006TIP3    H127509   2.337   4.278  11.109  0.4378  0.4319  0.0337
 2006TIP3    H227510   2.207   4.253  11.182 -0.2059 -2.3081 -1.9707
 2007TIP3   OH227511   3.425   6.791   3.044  0.2752 -0.3389 -0.0100
 2007TIP3    H127512   3.343   6.814   3.089 -0.3556 -0.8664 -0.8721
 2007TIP3    H227513   3.425   6.846   2.966  0.7702 -0.3086  0.0100
 2008TIP3   OH227514   4.096   2.218  17.268  0.7339  0.0769  0.0714
 2008TIP3    H127515   4.154   2.248  17.198  0.0796 -1.0281 -0.9689
 2008TIP3    H227516   4.065   2.132  17.238  3.1475 -2.0667  3.2325
 2009TIP3   OH227517   1.302   0.540   2.287 -0.4935  0.1680  0.1792
 2009TIP3    H127518   1.315   0.629   2.255 -1.0413  0.9422  2.0325
 2009TIP3    H227519   1.310   0.548   2.382 -0.4238 -1.7921  0.3502
 2010TIP3   OH227520   2.426   4.636   1.933 -0.1035  0.2116 -0.0686
 2010TIP3    H127521   2.517   4.660   1.915  0.1228 -1.7055 -1.6722
 2010TIP3    H227522   2.421   4.631   2.028  1.0076  2.0412  0.0953
 2011TIP3   OH227523   1.094   5.051   0.547  0.2508  0.3403  0.0784
 2011TIP3    H127524   1.154   5.124   0.560 -1.3723  1.6541  0.3962
 2011TIP3    H227525   1.023   5.066   0.610  0.7219 -2.4541  1.3777
 2012TIP3   OH227526   5.487   3.833   3.547  0.5018 -0.0722 -0.0887
 2012TIP3    H127527   5.396   3.805   3.560  0.7951 -0.1681  1.8197
 2012TIP3    H227528   5.510   3.795   3.462 -2.3415  2.9102 -2.3141
 2013TIP3   OH227529   3.838   6.300  11.577  0.1781 -0.3912  1.0980
 2013TIP3    H127530   3.889   6.294  11.496 -1.4025  2.5739 -0.2118
 2013TIP3    H227531   3.903   6.319  11.645  1.2774 -0.6417  0.1322
 2014TIP3   OH227532   0.288   0.436   1.262  0.2851  0.2850  0.1945
 2014TIP3    H127533   0.263   0.389   1.182 -2.7891 -2.5512  2.7153
 2014TIP3    H227534   0.371   0.396   1.288  1.6069  1.6090 -1.7835
 2015TIP3   OH227535   5.899   5.849   1.862 -0.3349  0.3825 -0.2997
 2015TIP3    H127536   5.971   5.848   1.799  0.5797  0.7144  0.7307
 2015TIP3    H227537   5.822   5.823   1.810  0.9105 -2.3025 -0.9172
 2016TIP3   OH227538   6.494   1.883  15.206  0.4823  0.3576  0.3144
 2016TIP3    H127539   6.541   1.826  15.144 -2.8265 -0.0341 -1.9355
 2016TIP3    H227540   6.445   1.822  15.261 -1.4713  0.8797 -0.7851
 2017TIP3   OH227541   3.535   4.308  16.266 -0.1055  0.0062 -0.4898
 2017TIP3    H127542   3.596   4.273  16.201 -0.1677  0.1232 -0.6111
 2017TIP3    H227543   3.504   4.230  16.313 -1.1840 -0.2368 -1.5734
 2018TIP3   OH227544   3.262   5.310  11.249 -0.9723  0.3264  0.1936
 2018TIP3    H127545   3.350   5.294  11.284 -1.5566  0.3854  1.7455
 2018TIP3    H227546   3.236   5.394  11.288 -1.0001  1.2465 -1.7302
 2019TIP3   OH227547   5.159   5.951  13.142  0.3251 -0.2409  0.3697
 2019TIP3    H127548   5.178   5.919  13.053 -1.4607  2.2563 -0.9750
 2019TIP3    H227549   5.218   6.026  13.153 -0.2465  0.1410  0.8396
 2020TIP3   OH227550   3.886   1.751  14.114 -0.0952 -0.0843  0.2585
 2020TIP3    H127551   3.916   1.674  14.066  1.8263  0.1249  1.0451
 2020TIP3    H227552   3.914   1.825  14.060 -0.7729  0.0795  0.1373
 2021TIP3   OH227553   1.388   6.776  10.593 -0.4469 -0.5612  0.5388
 2021TIP3    H127554   1.294   6.790  10.596 -0.3870  0.6143 -1.9737
 2021TIP3    H227555   1.426   6.864  10.590  0.7820 -1.0071  2.1630
 2022TIP3   OH227556   6.364   3.456   3.917 -0.6539  0.0516 -0.3677
 2022TIP3    H127557   6.367   3.470   3.822  1.8590 -2.2360 -0.6819
 2022TIP3    H227558   6.290   3.397   3.930 -0.9609  0.3140 -0.8861
 2023TIP3   OH227559   6.423   1.325   0.529 -0.0530  0.0344 -0.2267
 2023TIP3    H127560   6.480   1.261   0.486 -0.5225 -0.2728 -0.4006
 2023TIP3    H227561   6.462   1.410   0.509 -0.0859 -0.1308 -0.9912
 2024TIP3   OH227562   2.124   5.457   3.065 -0.3402 -0.2331  0.1313
 2024TIP3    H127563   2.105   5.498   2.981  0.8823  0.1467  0.0255
 2024TIP3    H227564   2.211   5.419   3.053  0.6758  1.4755  1.8233
 2025TIP3   OH227565   6.302   1.725   0.919 -0.1610 -0.3315 -0.1633
 2025TIP3    H127566   6.340   1.802   0.877 -1.3635  0.1227 -0.4281
 2025TIP3    H227567   6.373   1.660   0.917  0.8094  0.6945 -0.0879
 2026TIP3   OH227568   6.315   3.870  13.735  0.5068  0.1803  0.4442
 2026TIP3    H127569   6.339   3.953  13.694  0.6318 -0.0361  0.0869
 2026TIP3    H227570   6.225   3.884  13.764  0.1515  0.0721 -0.5852
 2027TIP3   OH227571   0.575   6.559   2.825 -0.0071  0.2939 -0.1815
 2027TIP3    H127572   0.667   6.561   2.851  0.2735 -0.9384 -1.0147
 2027TIP3    H227573   0.567   6.479   2.772 -2.0898 -0.9588  1.8977
 2028TIP3   OH227574   0.587   6.254   4.547 -0.1225 -0.7546  0.1529
 2028TIP3    H127575   0.563   6.169   4.584  1.8111 -0.4279  2.3564
 2028TIP3    H227576   0.653   6.288   4.608  0.8373  1.2981 -1.9410
 2029TIP3   OH227577   2.503   2.526  15.995 -0.5324 -0.6689 -0.4753
 2029TIP3    H127578   2.493   2.433  15.978  0.0904 -1.1455  1.5491
 2029TIP3    H227579   2.533   2.530  16.086  3.5518  1.2927 -1.7976
 2030TIP3   OH227580   5.738   4.155   4.266 -0.2917  0.2265 -0.8302
 2030TIP3    H127581   5.763   4.100   4.192 -1.8481  1.0114 -1.9933
 2030TIP3    H227582   5.720   4.240   4.227  0.7387  1.1929  0.7503
 2031TIP3   OH227583   4.377   3.729  14.342 -0.2895  0.1720  0.1568
 2031TIP3    H127584   4.427   3.675  14.403 -1.8575 -1.9958 -0.4118
 2031TIP3    H227585   4.441   3.788  14.304  1.2014 -0.2699  1.9238
 2032TIP3   OH227586   0.849   3.967   2.583 -0.2859  0.1741 -0.4107
 2032TIP3    H127587   0.782   3.902   2.606 -1.7843  1.6530 -0.5211
 2032TIP3    H227588   0.859   3.957   2.488  1.4861 -1.7564 -0.0474
 2033TIP3   OH227589   5.160   1.835   4.788 -0.2935  0.1660 -0.4071
 2033TIP3    H127590   5.256   1.841   4.793 -0.2552 -0.9409  0.2537
 2033TIP3    H227591   5.131   1.926   4.791  0.8585  0.6925 -3.3424
 2034TIP3   OH227592   2.799   0.899   3.541 -0.1504  0.3569 -0.7630
 2034TIP3    H127593   2.769   0.833   3.605 -0.4668  1.2418  0.0073
 2034TIP3    H227594   2.739   0.973   3.553  1.4457  1.5830 -0.2194
 2035TIP3   OH227595   2.192   4.097   0.357  0.2464 -0.5353  0.3498
 2035TIP3    H127596   2.266   4.065   0.306  0.1406 -0.6693  0.2801
 2035TIP3    H227597   2.231   4.134   0.436  0.3476 -1.0765  0.5519
 2036TIP3   OH227598   5.008   4.254  10.824  0.4298  0.3207 -0.3084
 2036TIP3    H127599   5.058   4.333  10.803 -0.1800  0.5832 -0.8347
 2036TIP3    H227600   5.072   4.184  10.825  0.7238  0.5511 -1.5987
 2037TIP3   OH227601   0.444   5.504   6.070  0.4300  0.3966 -0.2118
 2037TIP3    H127602   0.500   5.430   6.048 -0.1229 -0.4718  1.2505
 2037TIP3    H227603   0.408   5.533   5.986  3.3904  1.2685 -1.2227
 2038TIP3   OH227604   6.668   2.741  11.976  0.2484  0.9644  0.6854
 2038TIP3    H127605   6.645   2.742  11.883 -3.1876  0.5976  1.4572
 2038TIP3    H227606   6.603   2.684  12.015  0.5766  2.5197  3.5990
 2039TIP3   OH227607   2.354   4.739  15.581  0.4782 -0.3896 -0.2529
 2039TIP3    H127608   2.388   4.764  15.667  0.7722 -1.6849  0.0228
 2039TIP3    H227609   2.430   4.705  15.534  0.0289 -1.0892 -0.4782
 2040TIP3   OH227610   4.526   5.056  13.111 -0.2151  0.2862 -0.2831
 2040TIP3    H127611   4.547   5.056  13.204 -0.1874 -0.5053 -0.2883
 2040TIP3    H227612   4.476   5.137  13.098 -0.3141  0.3427  0.4359
 2041TIP3   OH227613   2.467   4.427  13.096 -0.0739 -0.3975  0.1016
 2041TIP3    H127614   2.509   4.344  13.118 -1.4058 -0.4686  2.5924
 2041TIP3    H227615   2.424   4.411  13.012 -0.6607 -2.3786  0.7571
 2042TIP3   OH227616   2.487   5.060  11.303 -0.1368  0.2402  0.3168
 2042TIP3    H127617   2.506   5.026  11.216  0.5977 -0.8611  0.9008
 2042TIP3    H227618   2.396   5.035  11.320 -0.7774  1.7529 -0.7182
 2043TIP3   OH227619   1.025   6.081  13.368  0.1261 -0.0798 -0.1429
 2043TIP3    H127620   1.090   6.131  13.418  0.0476 -1.5745  1.5082
 2043TIP3    H227621   0.941   6.102  13.410 -0.2346  0.4842 -1.1527
 2044TIP3   OH227622   5.608   6.627  12.477 -0.1509 -0.5233 -0.0351
 2044TIP3    H127623   5.549   6.559  12.510 -0.0374 -0.7610 -0.3284
 2044TIP3    H227624   5.587   6.635  12.384 -0.2338 -0.0808  0.0181
 2045TIP3   OH227625   4.363   2.588  15.071 -0.0293  0.3496  0.0477
 2045TIP3    H127626   4.365   2.583  14.976  0.8761  1.3970  0.0153
 2045TIP3    H227627   4.449   2.621  15.096 -0.7791  1.5009  1.1410
 2046TIP3   OH227628   5.029   0.007  11.591 -0.3297  0.1272  0.3495
 2046TIP3    H127629   5.023  -0.011  11.497 -0.5582 -1.5152  0.6532
 2046TIP3    H227630   5.111   0.055  11.601 -0.5642  0.7749 -0.7621
 2047TIP3   OH227631   3.635   6.212  13.966  0.0087 -0.2028  0.5407
 2047TIP3    H127632   3.674   6.129  13.993  0.1261 -0.2432  0.2451
 2047TIP3    H227633   3.591   6.245  14.045  2.6387  1.0252  1.5608
 2048TIP3   OH227634   1.646   6.571   5.602  0.0129  0.2470 -0.0160
 2048TIP3    H127635   1.740   6.573   5.587 -0.0932  0.1552 -0.6973
 2048TIP3    H227636   1.619   6.482   5.581 -0.4367  0.6387 -1.1637
 2049TIP3   OH227637   5.380   0.227  14.176 -0.3925 -0.2722  0.3658
 2049TIP3    H127638   5.408   0.245  14.086 -0.3443  1.6597  0.7460
 2049TIP3    H227639   5.290   0.195  14.168 -1.1051  1.8185 -0.2427
 2050TIP3   OH227640   3.277   5.249   4.408  0.1473 -0.1859  0.0368
 2050TIP3    H127641   3.349   5.255   4.471 -0.9763  1.4215  1.2238
 2050TIP3    H227642   3.317   5.270   4.324  1.3957 -0.9791  0.4227
 2051TIP3   OH227643   0.378   2.216  16.806  0.3162  0.1742  0.5325
 2051TIP3    H127644   0.396   2.128  16.841 -1.7676 -0.8014 -0.7412
 2051TIP3    H227645   0.353   2.201  16.715  0.1317  2.1262  0.2460
 2052TIP3   OH227646   5.167   5.460  13.999 -0.0590 -0.3681  0.1173
 2052TIP3    H127647   5.109   5.534  13.979  0.1278 -0.0799  0.6338
 2052TIP3    H227648   5.255   5.494  13.983 -0.0503 -0.9759 -1.2099
 2053TIP3   OH227649   3.878   2.424  11.068  0.0616 -0.5393  0.1071
 2053TIP3    H127650   3.871   2.372  11.149  0.0260  0.2098  0.5913
 2053TIP3    H227651   3.968   2.457  11.069  0.0115 -0.3981 -0.0782
 2054TIP3   OH227652   4.117   3.093   1.955  0.1904 -0.0170  0.4999
 2054TIP3    H127653   4.166   3.020   1.994 -0.1504 -1.7085 -2.0681
 2054TIP3    H227654   4.028   3.082   1.990 -0.1272 -1.5370 -0.7123
 2055TIP3   OH227655   0.436   1.824  15.083 -0.2982 -0.4591  0.0462
 2055TIP3    H127656   0.355   1.789  15.044 -0.6622  0.3353  0.0941
 2055TIP3    H227657   0.482   1.865  15.009 -1.1663  1.3867  0.5026
 2056TIP3   OH227658   5.278   6.573   7.006  0.4505 -0.3138 -0.3985
 2056TIP3    H127659   5.358   6.622   7.021 -0.3740  1.1068 -0.5637
 2056TIP3    H227660   5.239   6.614   6.929 -1.1008 -0.1254  0.4671
 2057TIP3   OH227661   1.347   2.903   1.411 -1.0290 -0.1740  0.3009
 2057TIP3    H127662   1.318   2.859   1.491  0.4906 -0.5276  0.6595
 2057TIP3    H227663   1.437   2.929   1.429 -1.3976  1.6880 -0.5034
 2058TIP3   OH227664   2.498   3.710  15.985  0.2240  0.2340 -0.2317
 2058TIP3    H127665   2.517   3.651  16.058 -0.3070  0.8529  0.4167
 2058TIP3    H227666   2.537   3.668  15.909 -1.1262 -1.5226  0.0171
 2059TIP3   OH227667   3.793   2.259  11.619 -0.0243  0.5843 -0.2294
 2059TIP3    H127668   3.848   2.283  11.694  0.0524  0.8260 -0.3603
 2059TIP3    H227669   3.798   2.164  11.615  1.2058  0.6614 -0.8420
 2060TIP3   OH227670   4.324   6.136   1.610  0.0831  0.4601  0.3793
 2060TIP3    H127671   4.232   6.110   1.624  0.5659 -0.8427  1.2700
 2060TIP3    H227672   4.324   6.178   1.524 -1.7269  2.3360  1.2451
 2061TIP3   OH227673   4.662   6.382   0.884 -0.6612 -0.0496  0.3673
 2061TIP3    H127674   4.651   6.365   0.790 -1.1532  0.8587  0.2613
 2061TIP3    H227675   4.741   6.436   0.890 -1.2834  0.8675  0.3720
 2062TIP3   OH227676   4.749   5.555  16.539  0.2706  0.4864  0.5649
 2062TIP3    H127677   4.739   5.588  16.628 -0.4939  0.1105  0.6162
 2062TIP3    H227678   4.668   5.581  16.495 -0.0094 -0.6657  0.3971
 2063TIP3   OH227679   6.466   5.216  13.486  0.2010  0.4893 -0.4280
 2063TIP3    H127680   6.548   5.168  13.473  0.1050 -0.0092  0.7625
 2063TIP3    H227681   6.431   5.183  13.569 -0.9156  1.1208 -0.6294
 2064TIP3   OH227682   3.974   3.454   0.540 -0.4364  0.2451 -0.0980
 2064TIP3    H127683   3.884   3.475   0.517  0.3772  2.6391 -1.2681
 2064TIP3    H227684   4.020   3.447   0.456  1.0967  2.0818  0.5615
 2065TIP3   OH227685   0.926   2.820  13.167 -0.0050 -0.1141  0.6829
 2065TIP3    H127686   0.926   2.811  13.262  1.0992 -2.7354  0.4903
 2065TIP3    H227687   0.974   2.901  13.150  1.1526 -0.4336  2.3124
 2066TIP3   OH227688   3.208   1.271   4.492  0.2834 -0.1419  0.4532
 2066TIP3    H127689   3.233   1.244   4.403  0.0571  2.2005 -0.3785
 2066TIP3    H227690   3.269   1.342   4.512  0.0235 -0.3531  1.9971
 2067TIP3   OH227691   1.230   0.549   0.620  0.1964 -0.1670  0.0086
 2067TIP3    H127692   1.191   0.637   0.627 -0.0817 -0.4786  3.0007
 2067TIP3    H227693   1.317   0.565   0.584 -0.3315  1.2113 -0.7063
 2068TIP3   OH227694   4.476   5.244  15.856 -0.5847 -0.6742  0.6668
 2068TIP3    H127695   4.551   5.290  15.892  0.6695 -2.9346  1.0300
 2068TIP3    H227696   4.442   5.301  15.787  2.2340 -0.1921 -0.3563
 2069TIP3   OH227697   2.136   1.818  17.021 -0.3905 -0.0592 -0.4129
 2069TIP3    H127698   2.127   1.887  16.955  1.1420 -0.3134 -0.9133
 2069TIP3    H227699   2.075   1.750  16.993 -0.4861  0.2678 -1.0078
 2070TIP3   OH227700   5.199   2.169   1.088  0.0488  0.2131 -0.7641
 2070TIP3    H127701   5.214   2.161   1.182  1.2289 -0.6204 -1.0131
 2070TIP3    H227702   5.266   2.231   1.058 -0.8191  1.0853 -0.9443
 2071TIP3   OH227703   1.891   5.113  14.617 -0.1453 -0.2715  0.1713
 2071TIP3    H127704   1.949   5.168  14.669 -1.4276  0.5705  0.7391
 2071TIP3    H227705   1.942   5.091  14.539  1.1540 -0.0851  0.9612
 2072TIP3   OH227706   2.494   3.417   1.983  0.0700 -0.1017  0.1454
 2072TIP3    H127707   2.526   3.500   2.019 -1.6940  1.0057 -0.7890
 2072TIP3    H227708   2.404   3.435   1.956  0.2220 -1.8574 -1.6400
 2073TIP3   OH227709   5.802   6.058   1.696  0.4701 -0.4986  0.3248
 2073TIP3    H127710   5.792   6.153   1.699  1.1361 -0.4338  0.5931
 2073TIP3    H227711   5.891   6.042   1.728  0.8993 -1.1067 -1.1246
 2074TIP3   OH227712   2.454   5.334  15.978 -0.1964 -0.4712 -0.3395
 2074TIP3    H127713   2.369   5.379  15.978  0.7874  1.7491  4.2117
 2074TIP3    H227714   2.509   5.385  15.919 -1.0977  0.0708 -0.7161
 2075TIP3   OH227715   0.912   1.269  17.036 -0.1975 -0.2232  0.6913
 2075TIP3    H127716   0.976   1.265  16.966 -0.5806  1.2975  0.2474
 2075TIP3    H227717   0.836   1.223  17.001  0.2989 -1.1914  0.8622
 2076TIP3   OH227718   4.176   2.143   0.858 -0.0311 -0.7826 -0.1549
 2076TIP3    H127719   4.117   2.101   0.921 -0.9910 -0.3424 -0.7502
 2076TIP3    H227720   4.118   2.176   0.790  0.8395  0.3842 -0.3371
 2077TIP3   OH227721   5.588   0.444  12.367 -0.2575 -0.4161 -0.2790
 2077TIP3    H127722   5.681   0.449  12.344 -0.1630  0.7109  0.2833
 2077TIP3    H227723   5.586   0.383  12.441  0.3083  1.0653  0.9830
 2078TIP3   OH227724   3.392   6.591   2.766  0.4374 -0.0062 -0.1155
 2078TIP3    H127725   3.334   6.568   2.838  0.5086 -1.5015 -0.5172
 2078TIP3    H227726   3.336   6.594   2.689  1.0635 -2.6839 -0.7184
 2079TIP3   OH227727   6.460   0.233   7.036 -0.1407 -0.1281  0.0924
 2079TIP3    H127728   6.401   0.219   6.962  0.1317  0.3949 -0.2261
 2079TIP3    H227729   6.505   0.315   7.016  0.7633 -0.5713  0.2860
 2080TIP3   OH227730   5.839   3.513   3.136 -0.5091  0.5962 -0.6979
 2080TIP3    H127731   5.889   3.522   3.055 -1.1550  1.5305 -1.0113
 2080TIP3    H227732   5.782   3.590   3.137  1.2986  2.0044  1.9044
 2081TIP3   OH227733   1.088   6.097   1.924 -0.4193 -0.6783 -0.7066
 2081TIP3    H127734   1.105   6.059   1.838 -0.3322 -0.5303 -0.7560
 2081TIP3    H227735   1.042   6.029   1.972 -2.3548 -0.0116 -1.5665
 2082TIP3   OH227736   6.315   0.437   4.339  0.4143 -0.0084 -0.6018
 2082TIP3    H127737   6.282   0.394   4.418  0.4530 -0.1223 -0.6481
 2082TIP3    H227738   6.410   0.431   4.345  0.4877  1.8413  0.3817
 2083TIP3   OH227739   1.589   4.869  15.161 -0.3933 -0.3832  0.2821
 2083TIP3    H127740   1.548   4.783  15.158  1.3551 -1.3821  2.6562
 2083TIP3    H227741   1.672   4.854  15.208 -0.1048  2.5868  0.8287
 2084TIP3   OH227742   1.169   2.014  12.826 -0.6852  0.4560  0.2167
 2084TIP3    H127743   1.231   2.008  12.753 -0.8786  1.8705 -0.0674
 2084TIP3    H227744   1.099   1.954  12.802 -0.7381  0.8965 -0.7616
 2085TIP3   OH227745   4.278   1.588   1.659  0.1454 -0.1516  0.0017
 2085TIP3    H127746   4.353   1.598   1.601  1.4616 -0.2023  1.6553
 2085TIP3    H227747   4.235   1.674   1.658  1.3623  0.4710  0.5612
 2086TIP3   OH227748   1.161   1.990  15.515 -0.2119 -0.3231  0.2039
 2086TIP3    H127749   1.067   1.971  15.518 -0.3150 -0.2486 -1.8919
 2086TIP3    H227750   1.168   2.082  15.540 -0.4219 -0.9700  2.8590
 2087TIP3   OH227751   1.723   6.484  13.150 -0.0543 -0.0144 -0.3552
 2087TIP3    H127752   1.788   6.431  13.195 -1.5033 -0.0723  1.7364
 2087TIP3    H227753   1.674   6.422  13.096  0.1137 -0.3431 -0.1289
 2088TIP3   OH227754   3.483   2.007  14.345  0.4044 -0.2030  0.4007
 2088TIP3    H127755   3.566   1.960  14.349 -0.2645 -1.3313  1.3667
 2088TIP3    H227756   3.491   2.063  14.268  1.8680 -0.6502  0.2054
 2089TIP3   OH227757   0.455   1.724  11.861  0.0008  0.3247  0.3173
 2089TIP3    H127758   0.525   1.775  11.820 -0.4642  0.4005 -0.3984
 2089TIP3    H227759   0.459   1.747  11.954  1.5769 -0.4396  0.4477
 2090TIP3   OH227760   1.793   1.932  15.405  0.0924  0.3658  0.0302
 2090TIP3    H127761   1.875   1.916  15.451 -0.9441  0.6507  2.0395
 2090TIP3    H227762   1.729   1.879  15.452 -1.1007  1.0776 -0.7810
 2091TIP3   OH227763   1.972   1.891  13.283  0.8730 -0.2421  0.4860
 2091TIP3    H127764   2.057   1.892  13.327  0.3318  1.2040  1.5512
 2091TIP3    H227765   1.930   1.973  13.310 -0.2608 -0.2183 -1.2152
 2092TIP3   OH227766   5.714   0.884  15.634 -0.3708 -0.1862 -0.8130
 2092TIP3    H127767   5.723   0.798  15.676  1.2213 -0.4183 -1.5546
 2092TIP3    H227768   5.621   0.894  15.618 -0.5540 -1.8800 -0.8904
 2093TIP3   OH227769   4.907   4.823   2.687  0.2714 -0.7483 -0.8959
 2093TIP3    H127770   4.854   4.899   2.667  0.9454 -0.4736 -1.6553
 2093TIP3    H227771   4.931   4.787   2.602  1.4860 -0.7290 -0.5732
 2094TIP3   OH227772   0.101   3.178   5.698  0.6338  0.5371  0.1238
 2094TIP3    H127773   0.172   3.198   5.638  1.8434  1.0102  1.6815
 2094TIP3    H227774   0.108   3.083   5.714 -0.0426  0.3049 -0.8965
 2095TIP3   OH227775   2.148   4.746   5.033 -0.1904 -0.8411 -0.0290
 2095TIP3    H127776   2.145   4.658   5.070  0.0882 -1.0977 -0.6136
 2095TIP3    H227777   2.195   4.736   4.951 -1.8828 -0.4900 -1.0714
 2096TIP3   OH227778   2.972   5.636  11.836 -0.0998 -0.6554 -0.0877
 2096TIP3    H127779   2.975   5.560  11.894  0.6677 -0.9045 -0.4588
 2096TIP3    H227780   2.967   5.599  11.748 -0.6388 -0.2717 -0.2247
 2097TIP3   OH227781   0.410   2.663   0.592 -0.1226 -0.1414 -0.0902
 2097TIP3    H127782   0.397   2.684   0.500 -0.3866 -0.4864 -0.1307
 2097TIP3    H227783   0.372   2.576   0.603 -1.9507  0.7376  0.8032
 2098TIP3   OH227784   0.560   2.229   0.436  0.2344  0.1760 -0.1673
 2098TIP3    H127785   0.602   2.220   0.521  0.4113  1.8055 -0.0638
 2098TIP3    H227786   0.619   2.286   0.386 -0.0101 -0.5222 -1.2858
 2099TIP3   OH227787   0.859   1.097  11.411  0.1703  0.2032  0.5812
 2099TIP3    H127788   0.769   1.069  11.424 -0.1965  0.9162 -0.3211
 2099TIP3    H227789   0.882   1.064  11.324  0.7933 -0.0089  0.8196
 2100TIP3   OH227790   6.763   4.117  14.404 -0.3397  0.2925 -0.1828
 2100TIP3    H127791   6.713   4.191  14.370  0.0300  0.0544 -1.2895
 2100TIP3    H227792   6.709   4.041  14.386 -1.3929  0.4080  2.2985
 2101TIP3   OH227793   6.813   5.556   0.814  0.1505 -0.2393  0.4848
 2101TIP3    H127794   6.736   5.552   0.758  1.3153  2.3048 -1.4193
 2101TIP3    H227795   6.800   5.635   0.867  0.8753 -0.4594  1.0018
 2102TIP3   OH227796   0.663   2.150   5.755 -0.5099  0.1127 -0.4022
 2102TIP3    H127797   0.582   2.147   5.806 -0.5681 -1.1213 -0.5552
 2102TIP3    H227798   0.694   2.240   5.765 -0.7997  0.0331  1.3828
 2103TIP3   OH227799   5.817   1.798  14.680  0.3707 -0.1574 -0.6268
 2103TIP3    H127800   5.829   1.783  14.587 -1.1218 -0.0887 -0.8435
 2103TIP3    H227801   5.766   1.879  14.685  2.8326  1.4129  0.3493
 2104TIP3   OH227802   0.513   4.988   2.263  0.2231 -0.8521 -0.4474
 2104TIP3    H127803   0.458   5.031   2.329  0.9268 -0.1929 -0.2855
 2104TIP3    H227804   0.520   5.053   2.193  0.6393 -1.0139 -0.5517
 2105TIP3   OH227805   2.278   6.144   3.615  0.4076  0.3795 -0.0198
 2105TIP3    H127806   2.250   6.061   3.653  2.1320 -0.2491 -0.0721
 2105TIP3    H227807   2.369   6.129   3.590  0.6213  2.1751 -0.3699
 2106TIP3   OH227808   4.367   1.776  13.401  0.3305  0.0296  0.2091
 2106TIP3    H127809   4.339   1.777  13.493 -0.2289 -1.5963  0.0709
 2106TIP3    H227810   4.446   1.721  13.401 -0.3069 -0.9052 -0.4464
 2107TIP3   OH227811   3.303   1.598  15.578  0.5888 -0.1469 -0.7203
 2107TIP3    H127812   3.340   1.515  15.606 -1.4176 -1.3904 -1.7014
 2107TIP3    H227813   3.253   1.629  15.654  0.0985 -0.5872 -0.8587
 2108TIP3   OH227814   4.408   3.854   4.215 -0.3160 -0.6691 -0.0373
 2108TIP3    H127815   4.333   3.806   4.180  0.2609 -0.8339 -1.0675
 2108TIP3    H227816   4.482   3.825   4.162  0.2210  0.5664  0.0159
 2109TIP3   OH227817   0.461   4.952  10.559 -0.5275  0.0201  0.3312
 2109TIP3    H127818   0.409   5.031  10.573 -0.4266  0.3150 -0.8904
 2109TIP3    H227819   0.552   4.981  10.562 -0.5131  0.3167 -2.0360
 2110TIP3   OH227820   0.627   4.528  11.990 -0.0559 -0.0682 -0.5434
 2110TIP3    H127821   0.655   4.543  12.080  2.9491 -3.2605 -0.8383
 2110TIP3    H227822   0.666   4.601  11.941  3.1506 -1.3474 -0.0367
 2111TIP3   OH227823   5.927   6.232   2.851 -0.5604 -0.0541  0.0992
 2111TIP3    H127824   5.911   6.165   2.918  0.3490 -0.4994 -0.1269
 2111TIP3    H227825   6.022   6.237   2.844 -0.6452 -0.8957 -2.0414
 2112TIP3   OH227826   3.328   0.246   0.358  0.2209  0.0759 -0.2947
 2112TIP3    H127827   3.280   0.224   0.438  1.6535 -0.7159  0.3687
 2112TIP3    H227828   3.355   0.162   0.322  0.4166  0.4760 -1.1062
 2113TIP3   OH227829   5.913   5.308  12.905  0.1970  0.0744  0.4811
 2113TIP3    H127830   5.964   5.257  12.842  0.5554  0.2019  0.6687
 2113TIP3    H227831   5.975   5.331  12.974 -0.7357 -2.0861  2.1000
 2114TIP3   OH227832   3.896   1.747  12.306  0.2631 -0.5673 -0.5514
 2114TIP3    H127833   3.900   1.664  12.257  0.8784 -0.1367 -1.2402
 2114TIP3    H227834   3.802   1.768  12.309 -0.1846 -2.6381  1.9569
 2115TIP3   OH227835   4.365   0.141   4.513 -0.0483  0.8636  0.3235
 2115TIP3    H127836   4.365   0.062   4.459  0.1037  0.4531  0.9184
 2115TIP3    H227837   4.363   0.213   4.450  0.0791  0.3894 -0.2277
 2116TIP3   OH227838   0.546   2.382   3.638 -0.0850  0.0988  0.0478
 2116TIP3    H127839   0.460   2.404   3.673 -1.1461 -2.6219 -0.7706
 2116TIP3    H227840   0.593   2.345   3.712 -0.7382 -1.3966 -0.2811
 2117TIP3   OH227841   4.015   4.631  14.314 -0.1237 -0.1833 -0.5684
 2117TIP3    H127842   3.936   4.683  14.300 -1.2739 -1.7962 -0.1208
 2117TIP3    H227843   4.049   4.615  14.226 -2.6879 -3.1353 -1.0674
 2118TIP3   OH227844   5.542   6.698  15.146  0.6071  0.4125 -0.0421
 2118TIP3    H127845   5.540   6.638  15.220  0.5969 -0.8018 -1.0068
 2118TIP3    H227846   5.635   6.716  15.132  0.5294  1.9428  1.2760
 2119TIP3   OH227847   4.423   3.557  13.003 -0.5866  0.4008 -0.3877
 2119TIP3    H127848   4.428   3.496  12.929  0.0353 -0.5328  0.4078
 2119TIP3    H227849   4.342   3.605  12.989 -0.6995 -0.0770 -1.4445
 2120TIP3   OH227850   4.638   6.703  13.977 -0.4650 -0.4358  0.0045
 2120TIP3    H127851   4.662   6.730  14.065 -0.6035  0.2861 -0.1681
 2120TIP3    H227852   4.634   6.785  13.927 -0.0710 -0.8612 -0.7451
 2121TIP3   OH227853   4.522   6.204  14.215 -0.1011  0.0053  0.3742
 2121TIP3    H127854   4.573   6.284  14.202  0.7863 -0.7174 -0.6898
 2121TIP3    H227855   4.500   6.205  14.308 -0.1879  1.5396  0.3425
 2122TIP3   OH227856   5.268   0.438   3.091  0.5166  0.2372  0.0794
 2122TIP3    H127857   5.198   0.500   3.113 -0.2320 -0.3914 -0.4999
 2122TIP3    H227858   5.226   0.352   3.094  1.6623 -0.2947  1.3205
 2123TIP3   OH227859   0.822   0.249   3.866 -0.2435 -0.2187 -0.0239
 2123TIP3    H127860   0.729   0.229   3.872 -0.3163 -0.0870 -0.7105
 2123TIP3    H227861   0.865   0.163   3.859 -0.4204 -0.2289 -1.1032
 2124TIP3   OH227862   6.221   5.916  14.193  0.2394  0.6945  0.3572
 2124TIP3    H127863   6.297   5.864  14.219 -0.6090  0.2806  2.0929
 2124TIP3    H227864   6.204   5.973  14.268 -0.8095  1.1903 -0.2394
 2125TIP3   OH227865   6.634   2.487   0.739 -0.0323 -0.0647  0.1154
 2125TIP3    H127866   6.655   2.411   0.686 -0.9733  0.0741 -0.4693
 2125TIP3    H227867   6.717   2.513   0.778  0.9964  0.7844 -2.5359
 2126TIP3   OH227868   6.120   6.068  15.693  0.2444  0.3683 -0.2455
 2126TIP3    H127869   6.075   6.048  15.776  1.2992 -0.7306  0.0673
 2126TIP3    H227870   6.049   6.094  15.634 -0.3520  2.8460  1.4857
 2127TIP3   OH227871   1.391   4.395  15.415  0.0236 -0.2569  0.2386
 2127TIP3    H127872   1.318   4.456  15.419 -0.3633 -0.7230  0.3988
 2127TIP3    H227873   1.368   4.326  15.478  0.5297 -0.4790  0.1831
 2128TIP3   OH227874   6.741   1.495  16.407 -0.5724 -0.2520  0.1902
 2128TIP3    H127875   6.690   1.568  16.372  1.2818  1.4932  1.0479
 2128TIP3    H227876   6.681   1.420  16.404 -2.1700  1.0579 -1.6744
 2129TIP3   OH227877   6.636   6.482   2.161  0.2204 -0.0854  0.5121
 2129TIP3    H127878   6.592   6.548   2.107  1.9451  2.1350  1.7015
 2129TIP3    H227879   6.589   6.483   2.244  0.0807 -0.5527  0.4388
 2130TIP3   OH227880   2.863   1.282   1.607 -0.1900 -0.5720 -0.1705
 2130TIP3    H127881   2.788   1.290   1.665 -0.9726 -0.3062 -1.2017
 2130TIP3    H227882   2.882   1.372   1.581  0.8768 -0.5761  0.5658
 2131TIP3   OH227883   5.236   5.179   0.280  0.3811  0.3394 -0.2680
 2131TIP3    H127884   5.313   5.156   0.333  0.9167  3.2037  0.2827
 2131TIP3    H227885   5.272   5.220   0.202 -0.5580  1.7337  0.0030
 2132TIP3   OH227886   5.523   4.097   3.588 -1.0558 -0.2998  0.3174
 2132TIP3    H127887   5.465   4.118   3.661  0.2446 -0.0987  1.3153
 2132TIP3    H227888   5.513   4.003   3.576 -1.8024 -0.2197  0.2897
 2133TIP3   OH227889   4.464   1.563  16.782 -0.0750 -0.6567 -0.2117
 2133TIP3    H127890   4.388   1.526  16.736 -0.0318 -1.9014  0.6826
 2133TIP3    H227891   4.466   1.515  16.865  0.7788  0.4662  0.4145
 2134TIP3   OH227892   3.072   6.089  12.975 -0.1474 -0.3415 -0.0513
 2134TIP3    H127893   3.098   6.066  12.886  0.4568  0.9390 -0.2148
 2134TIP3    H227894   3.130   6.036  13.031  0.2437 -0.3037 -0.4209
 2135TIP3   OH227895   6.756   1.744  16.680  0.4344 -0.1209  0.2600
 2135TIP3    H127896   6.726   1.681  16.615 -0.0747  1.1387 -0.7528
 2135TIP3    H227897   6.695   1.735  16.753  1.5519 -2.1869  0.9728
 2136TIP3   OH227898   4.753   4.762  14.155 -0.2867 -0.3098 -0.0836
 2136TIP3    H127899   4.796   4.731  14.234  1.2502 -1.7743 -1.4390
 2136TIP3    H227900   4.825   4.788  14.097 -1.3739  0.5245 -1.1006
 2137TIP3   OH227901   4.886   2.662  10.653 -0.3081 -0.4760 -0.8938
 2137TIP3    H127902   4.812   2.638  10.709 -0.5234 -1.7774 -1.7073
 2137TIP3    H227903   4.961   2.619  10.693  0.1725  1.5116  0.3950
 2138TIP3   OH227904   3.346   5.970  12.435  0.6992  0.3231  0.3793
 2138TIP3    H127905   3.414   5.903  12.443 -0.5348 -0.7983  1.9022
 2138TIP3    H227906   3.370   6.020  12.357  2.3699 -1.0629 -0.0291
 2139TIP3   OH227907   3.463   0.035  15.530 -0.0176 -0.0116 -0.0681
 2139TIP3    H127908   3.462   0.119  15.484 -0.6383 -0.0505 -0.1336
 2139TIP3    H227909   3.539  -0.011  15.494  0.1336  0.3923 -0.2691
 2140TIP3   OH227910   3.598   2.763  11.963 -0.6157  0.1989 -0.6053
 2140TIP3    H127911   3.554   2.785  12.045 -0.0247 -1.1313  0.0821
 2140TIP3    H227912   3.538   2.702  11.920  0.8158 -2.1233  0.6308
 2141TIP3   OH227913   6.555   5.555   0.695 -0.4763 -0.0709  0.1724
 2141TIP3    H127914   6.540   5.552   0.789  1.3179  1.3968  0.5376
 2141TIP3    H227915   6.474   5.520   0.657 -2.2674  1.7114  2.1760
 2142TIP3   OH227916   5.406   0.375  15.932  0.6050 -0.2548  0.2196
 2142TIP3    H127917   5.427   0.424  16.011  0.6029 -0.1607  0.1611
 2142TIP3    H227918   5.348   0.305  15.961  0.7192 -0.3054  0.3251
 2143TIP3   OH227919   5.919   6.349  15.616 -0.2613 -0.7160  0.4275
 2143TIP3    H127920   6.012   6.351  15.638  0.1699 -1.9958 -1.1874
 2143TIP3    H227921   5.908   6.417  15.550 -0.9854  1.1295  2.3963
 2144TIP3   OH227922   6.269   1.123   5.863 -1.0958  0.3589  0.0411
 2144TIP3    H127923   6.235   1.209   5.890 -0.7225  0.6438 -0.3975
 2144TIP3    H227924   6.354   1.116   5.907 -0.7084  0.6127 -0.6581
 2145TIP3   OH227925   4.054   5.235   1.415  0.0983  0.6247  0.3219
 2145TIP3    H127926   3.983   5.200   1.469  0.3897  0.6618  0.7313
 2145TIP3    H227927   4.036   5.202   1.327 -0.2242  0.3352  0.4952
 2146TIP3   OH227928   1.954   6.761  15.855 -0.1449 -0.9103 -0.2773
 2146TIP3    H127929   1.941   6.806  15.771  1.6203 -1.2283 -0.7306
 2146TIP3    H227930   2.033   6.708  15.843 -0.2766 -1.5240  1.3577
 2147TIP3   OH227931   0.751   3.138  15.946  0.5395 -1.1359 -0.0514
 2147TIP3    H127932   0.676   3.109  15.998  1.3065 -1.6624  0.7724
 2147TIP3    H227933   0.745   3.234  15.946  1.4107 -1.0418  2.3587
 2148TIP3   OH227934   4.808   3.983   3.078 -0.0618 -0.5819 -0.0591
 2148TIP3    H127935   4.847   4.043   3.142 -0.4682  0.1452 -0.4863
 2148TIP3    H227936   4.725   3.958   3.116 -0.7858  0.6851 -0.7698
 2149TIP3   OH227937   1.613   4.775  10.973  0.2025 -0.5692 -0.3177
 2149TIP3    H127938   1.584   4.686  10.952  1.7069 -1.0529 -0.3865
 2149TIP3    H227939   1.657   4.805  10.894 -0.0186  0.1212 -0.1793
 2150TIP3   OH227940   0.898   3.744   5.787  0.0660 -0.5946  0.6095
 2150TIP3    H127941   0.870   3.673   5.846 -0.0018  0.4536  1.8702
 2150TIP3    H227942   0.979   3.777   5.826  0.4104 -0.3569 -0.2947
 2151TIP3   OH227943   1.821   4.616   4.169 -0.2891 -0.1254 -0.7590
 2151TIP3    H127944   1.820   4.709   4.146 -0.6231 -0.3505 -1.6980
 2151TIP3    H227945   1.740   4.602   4.217  0.5439  0.4128  0.8415
 2152TIP3   OH227946   6.126   5.137  15.066 -0.3989  0.0019 -0.1500
 2152TIP3    H127947   6.182   5.132  15.143  1.6065  2.3191 -1.3836
 2152TIP3    H227948   6.105   5.045  15.046  2.7243 -0.9399  0.5456
 2153TIP3   OH227949   2.280   3.995  12.989  0.3851  0.0658  0.0980
 2153TIP3    H127950   2.305   3.903  12.999  0.0872 -0.1012 -0.6596
 2153TIP3    H227951   2.315   4.020  12.903 -2.1608 -0.2251 -1.0771
 2154TIP3   OH227952   1.583   1.874  14.496 -0.2110 -0.4447  0.6363
 2154TIP3    H127953   1.599   1.849  14.587  0.8904 -1.4938  0.1577
 2154TIP3    H227954   1.585   1.969  14.497  1.2668 -0.4706  1.4529
 2155TIP3   OH227955   3.321   4.901   4.790  0.0934  1.1132  0.3514
 2155TIP3    H127956   3.305   4.807   4.795  0.1880  1.1851  2.6072
 2155TIP3    H227957   3.375   4.919   4.867  2.9396  2.4586 -1.8507
 2156TIP3   OH227958   6.166   6.402  12.873 -0.2078 -0.0754 -0.4931
 2156TIP3    H127959   6.087   6.350  12.882  0.2735 -0.9889 -1.3974
 2156TIP3    H227960   6.237   6.338  12.866  0.5077  0.7124 -0.6243
 2157TIP3   OH227961   6.136   3.297  13.115  0.5188 -0.2236 -0.4847
 2157TIP3    H127962   6.144   3.317  13.021 -2.8165  0.8220 -0.5935
 2157TIP3    H227963   6.114   3.203  13.117  0.3830 -0.1991 -0.7511
 2158TIP3   OH227964   2.261   0.422   4.643  0.1359 -0.0485 -0.6660
 2158TIP3    H127965   2.282   0.417   4.736  0.0425  1.2715 -0.5570
 2158TIP3    H227966   2.339   0.462   4.603 -0.2224  0.3372 -0.9920
 2159TIP3   OH227967   4.919   6.411   3.207  0.7089 -0.7778  0.0734
 2159TIP3    H127968   4.969   6.483   3.247 -0.5042  0.0156  0.1938
 2159TIP3    H227969   4.940   6.417   3.114 -0.5092  0.6846 -0.1390
 2160TIP3   OH227970   0.051   2.420  10.774  0.1339 -0.1171 -0.4042
 2160TIP3    H127971   0.138   2.401  10.739  0.3156 -1.6039  0.7830
 2160TIP3    H227972   0.065   2.493  10.834  0.2039  0.9449 -1.6791
 2161TIP3   OH227973   4.924   3.394  13.363 -0.4734 -0.1358  0.1557
 2161TIP3    H127974   4.843   3.344  13.370 -0.8449  0.2791 -1.0460
 2161TIP3    H227975   4.954   3.380  13.273  0.7521 -0.2275  0.5621
 2162TIP3   OH227976   0.599   6.757   6.115  0.0538 -0.4175  0.1107
 2162TIP3    H127977   0.531   6.790   6.057  0.8687 -0.6809 -1.0073
 2162TIP3    H227978   0.604   6.821   6.186  1.0529  1.4292 -1.6019
 2163TIP3   OH227979   1.817   0.903  15.876 -0.0222  0.5923  0.3886
 2163TIP3    H127980   1.866   0.983  15.890  2.3150 -0.5764 -0.8256
 2163TIP3    H227981   1.850   0.868  15.793 -2.0526 -0.8748  0.1416
 2164TIP3   OH227982   1.376   2.696   3.130  0.2241 -0.1569 -0.0053
 2164TIP3    H127983   1.424   2.614   3.121 -1.7160 -1.4408  1.0338
 2164TIP3    H227984   1.400   2.729   3.217 -1.0031 -0.9637  0.6473
 2165TIP3   OH227985   5.668   6.725  16.627  0.0048  0.2167 -0.4325
 2165TIP3    H127986   5.709   6.639  16.632  0.9191  0.6499 -0.3016
 2165TIP3    H227987   5.738   6.783  16.596  0.0187  1.3186  1.6100
 2166TIP3   OH227988   2.371   2.320   0.753  0.2216  0.1922 -0.4927
 2166TIP3    H127989   2.449   2.333   0.699 -0.3356  2.5210 -0.8142
 2166TIP3    H227990   2.320   2.400   0.740 -1.6795 -0.8059  0.6119
 2167TIP3   OH227991   0.349   2.740   2.236  0.2274 -0.4512 -0.0685
 2167TIP3    H127992   0.398   2.676   2.286 -2.3198 -2.9912 -0.6858
 2167TIP3    H227993   0.280   2.769   2.296 -0.1071 -0.1114 -0.6124
 2168TIP3   OH227994   4.970   0.449  12.641  0.6616  0.4020  0.3870
 2168TIP3    H127995   5.042   0.387  12.643  1.0695  0.8840  2.2971
 2168TIP3    H227996   4.940   0.453  12.732 -2.9618 -1.1653 -0.6404
 2169TIP3   OH227997   0.824   3.660   6.343  0.1512  0.2786  0.5415
 2169TIP3    H127998   0.845   3.599   6.273  1.7282  1.0385  0.3421
 2169TIP3    H227999   0.756   3.717   6.305 -0.2396 -0.3907  0.2285
 2170TIP3   OH228000   1.536   3.726   0.500 -0.3143 -0.7979  0.7025
 2170TIP3    H128001   1.584   3.694   0.577 -0.7261  1.7740  2.0625
 2170TIP3    H228002   1.444   3.707   0.520 -0.7489  2.5587  2.2810
 2171TIP3   OH228003   1.370   5.355   3.978  0.1800 -0.2865 -0.1007
 2171TIP3    H128004   1.412   5.322   4.057 -1.3535  1.9450  1.7157
 2171TIP3    H228005   1.317   5.429   4.008 -1.4235 -0.1689 -3.0244
 2172TIP3   OH228006   0.375   4.513   0.124  0.6901 -0.4254  0.0554
 2172TIP3    H128007   0.331   4.430   0.107  0.2751 -0.3880  0.8955
 2172TIP3    H228008   0.349   4.570   0.052 -1.1473 -0.2067  0.8653
 2173TIP3   OH228009   0.512   5.241  12.334 -0.0156  0.3277 -0.8575
 2173TIP3    H128010   0.553   5.239  12.421  0.2609  0.0300 -0.9913
 2173TIP3    H228011   0.507   5.333  12.311  0.8365  0.3474 -0.9618
 2174TIP3   OH228012   3.326   1.659   3.962 -0.8781  0.4335  0.1806
 2174TIP3    H128013   3.378   1.706   3.897 -0.6935 -0.5435 -0.4006
 2174TIP3    H228014   3.389   1.600   4.005 -1.2120  0.3026  0.4958
 2175TIP3   OH228015   1.916   4.183  14.398  0.1541  0.4289 -0.0414
 2175TIP3    H128016   2.008   4.157  14.405 -0.1673 -0.1026  3.0842
 2175TIP3    H228017   1.909   4.224  14.313  3.2232  0.1665 -0.4787
 2176TIP3   OH228018   2.331   2.317   2.816 -0.3661  0.1404  0.1335
 2176TIP3    H128019   2.413   2.303   2.864  0.1764 -1.7792 -1.3072
 2176TIP3    H228020   2.338   2.406   2.783 -0.8197  1.5957  3.6852
 2177TIP3   OH228021   3.955   6.573  11.075  0.3040  0.3943 -0.4439
 2177TIP3    H128022   3.989   6.619  11.152 -0.8922 -1.7682  1.4443
 2177TIP3    H228023   4.012   6.497  11.065 -0.5742 -0.2453 -0.6477
 2178TIP3   OH228024   6.484   5.019   5.001 -0.0051  0.4075 -0.8623
 2178TIP3    H128025   6.564   4.968   5.018 -1.2777 -1.4423 -0.2159
 2178TIP3    H228026   6.498   5.101   5.047 -0.6610 -1.9777  3.9770
 2179TIP3   OH228027   6.616   4.774   4.876  0.0381 -0.1816  0.5947
 2179TIP3    H128028   6.664   4.772   4.959  0.8731  0.9434  0.1421
 2179TIP3    H228029   6.530   4.810   4.899  0.2995  0.2183  0.9512
 2180TIP3   OH228030   2.787   2.253  14.809  0.2573  0.0457 -0.1918
 2180TIP3    H128031   2.871   2.290  14.836  1.6571 -2.4969 -0.8898
 2180TIP3    H228032   2.807   2.200  14.732 -2.3194  0.8640 -1.4795
 2181TIP3   OH228033   4.300   3.694  11.681  0.0694  0.2729 -0.2464
 2181TIP3    H128034   4.297   3.603  11.651 -1.1303  0.6171 -1.2064
 2181TIP3    H228035   4.250   3.694  11.763  0.5075 -0.0313  0.0197
 2182TIP3   OH228036   0.711   0.082   1.333 -0.9031 -0.2091  0.0758
 2182TIP3    H128037   0.688   0.008   1.278  1.1385 -1.0863  0.3843
 2182TIP3    H228038   0.726   0.044   1.420  1.0827  0.4272  0.0208
 2183TIP3   OH228039   1.185   1.706   3.656  0.0916 -1.0206  0.4484
 2183TIP3    H128040   1.209   1.781   3.710  1.1146 -2.0520  1.4306
 2183TIP3    H228041   1.266   1.682   3.611 -0.5271 -0.7692 -0.8241
 2184TIP3   OH228042   4.614   2.652   6.058  0.3785 -0.3993  0.2435
 2184TIP3    H128043   4.593   2.719   6.123  2.4917  0.9041 -0.3885
 2184TIP3    H228044   4.530   2.608   6.042 -0.5645  0.5174  2.4051
 2185TIP3   OH228045   1.085   1.167  16.076  0.5606  0.3201 -0.3526
 2185TIP3    H128046   1.076   1.179  15.981  0.1146  0.3335 -0.3077
 2185TIP3    H228047   1.131   1.083  16.084 -1.5247 -0.8955 -0.5464
 2186TIP3   OH228048   4.163   6.391  13.013 -0.2497 -0.0016 -0.3633
 2186TIP3    H128049   4.093   6.342  12.968 -2.9705  3.0206  0.3773
 2186TIP3    H228050   4.198   6.449  12.945  0.3457 -0.2896 -0.2997
 2187TIP3   OH228051   6.538   4.489   4.733  0.3770 -0.3631 -0.2316
 2187TIP3    H128052   6.543   4.584   4.744  0.6519 -0.3383 -0.5703
 2187TIP3    H228053   6.530   4.455   4.822 -1.1610  0.0587 -0.1943
 2188TIP3   OH228054   3.921   4.294   3.586 -0.4805 -0.1470  0.3448
 2188TIP3    H128055   3.873   4.219   3.551 -0.1687  0.8796 -2.3891
 2188TIP3    H228056   4.002   4.298   3.534 -1.4857  3.3710 -1.1057
 2189TIP3   OH228057   0.946   0.656   3.097 -0.1011 -0.4900 -0.0043
 2189TIP3    H128058   0.879   0.723   3.082 -1.5952 -2.0446 -0.5406
 2189TIP3    H228059   0.939   0.635   3.190 -1.1351 -1.4036 -0.2698
 2190TIP3   OH228060   4.248   4.939  12.392 -0.6481  0.0170 -0.2102
 2190TIP3    H128061   4.222   4.849  12.373 -2.0864  0.3254  0.2312
 2190TIP3    H228062   4.191   4.966  12.464  0.5031  0.9294  0.3675
 2191TIP3   OH228063   2.550   0.222  15.973  0.1282  1.0550 -0.2937
 2191TIP3    H128064   2.490   0.185  16.038  1.0872  0.7355  0.4093
 2191TIP3    H228065   2.509   0.304  15.946 -1.9388 -0.3831 -1.7225
 2192TIP3   OH228066   1.763   2.653   0.556  0.3542 -0.0304  0.0548
 2192TIP3    H128067   1.749   2.673   0.464  2.8147  1.4936 -0.0319
 2192TIP3    H228068   1.680   2.677   0.599  0.0939  1.7473 -1.3962
 2193TIP3   OH228069   0.378   2.268   4.056  0.1070  0.1285  0.4735
 2193TIP3    H128070   0.354   2.343   4.000  1.4245  0.2186  0.0104
 2193TIP3    H228071   0.443   2.220   4.004  0.4099 -0.4861  1.4185
 2194TIP3   OH228072   5.408   6.054  13.490  0.5477  0.2094 -0.5319
 2194TIP3    H128073   5.479   6.082  13.549  0.1495  2.0352 -0.8865
 2194TIP3    H228074   5.443   6.070  13.402  0.1272  0.0206 -0.7326
 2195TIP3   OH228075   1.063   1.296   0.140 -0.5423  0.0599  0.1572
 2195TIP3    H128076   1.102   1.257   0.218 -2.1813  1.2277  1.6091
 2195TIP3    H228077   0.985   1.242   0.123 -0.6032  0.2652 -0.2083
 2196TIP3   OH228078   0.890   3.824   4.295 -0.4652 -0.5928  0.1399
 2196TIP3    H128079   0.844   3.744   4.270  0.9772 -0.6911 -2.3938
 2196TIP3    H228080   0.820   3.886   4.315 -1.6293 -1.8593  0.0980
 2197TIP3   OH228081   0.007   4.074  17.142 -0.2475 -0.4507  0.3976
 2197TIP3    H128082  -0.027   3.986  17.155  1.4920 -1.3678 -0.9271
 2197TIP3    H228083  -0.026   4.100  17.056 -1.2905  0.4676  1.0647
 2198TIP3   OH228084   2.357   0.781   6.157 -0.2292 -0.9184 -0.3867
 2198TIP3    H128085   2.391   0.692   6.168 -2.0729 -1.5401  0.6388
 2198TIP3    H228086   2.325   0.805   6.244 -2.0293 -0.2501 -1.1994
 2199TIP3   OH228087   2.547   1.334  16.549  0.3187  1.0199 -0.0347
 2199TIP3    H128088   2.559   1.389  16.626 -1.5123  0.1518  0.8741
 2199TIP3    H228089   2.518   1.395  16.481 -0.9060  1.3300  0.7525
 2200TIP3   OH228090   0.775   3.104   2.007  0.0269 -0.4659  0.1035
 2200TIP3    H128091   0.780   3.171   2.076 -1.0290  0.5459 -0.7791
 2200TIP3    H228092   0.823   3.029   2.043 -0.9478 -0.1474  2.1542
 2201TIP3   OH228093   2.793   0.901   2.198 -0.1210  0.2393  0.0189
 2201TIP3    H128094   2.877   0.926   2.238  0.4039 -0.8575 -0.3522
 2201TIP3    H228095   2.728   0.922   2.264  0.6776 -0.9691  1.2136
 2202TIP3   OH228096   3.713   6.749  16.520 -0.0927 -0.8108 -0.1949
 2202TIP3    H128097   3.651   6.807  16.475  0.0412 -0.1240  0.5007
 2202TIP3    H228098   3.799   6.779  16.491 -0.0584 -1.4441 -0.7694
 2203TIP3   OH228099   5.611   5.323   5.042 -0.1370 -0.5143 -0.2660
 2203TIP3    H128100   5.609   5.256   5.109 -1.7003 -1.1395 -0.9102
 2203TIP3    H228101   5.523   5.361   5.043  1.0013  2.2843  0.8291
 2204TIP3   OH228102   3.633   2.814  16.540 -0.2924  0.3052  0.0871
 2204TIP3    H128103   3.648   2.905  16.565 -2.2453  0.6004  0.3016
 2204TIP3    H228104   3.553   2.817  16.486 -0.0152 -1.1957 -0.4350
 2205TIP3   OH228105   3.782   5.890   5.336 -0.6853  0.4091  0.5768
 2205TIP3    H128106   3.831   5.818   5.376  0.2305  2.6672  3.6741
 2205TIP3    H228107   3.849   5.953   5.310 -1.6290  1.1347 -0.1569
 2206TIP3   OH228108   1.658   0.176   5.834  0.0232  0.4154  0.0575
 2206TIP3    H128109   1.643   0.127   5.753 -1.0260  0.5737  0.1420
 2206TIP3    H228110   1.727   0.127   5.879 -0.6794 -0.7451 -0.0807
 2207TIP3   OH228111   5.561   4.241  15.068  0.6530  0.2691  0.8911
 2207TIP3    H128112   5.522   4.189  15.138  0.6976  1.9961  2.2301
 2207TIP3    H228113   5.501   4.314  15.057  1.8780  1.2723  0.7705
 2208TIP3   OH228114   0.358   2.320   4.335  0.2111  0.3546 -0.6750
 2208TIP3    H128115   0.356   2.311   4.240  0.1770  1.0904 -0.7457
 2208TIP3    H228116   0.280   2.370   4.357 -1.2666 -2.1427  0.0260
 2209TIP3   OH228117   5.456   1.520   5.223  0.1329 -0.5466 -0.8445
 2209TIP3    H128118   5.517   1.537   5.296 -1.9660  0.7336  0.6482
 2209TIP3    H228119   5.418   1.434   5.244 -1.2930  0.3175  0.1882
 2210TIP3   OH228120   4.474   0.894   2.204  0.1227 -0.0438  0.0106
 2210TIP3    H128121   4.426   0.899   2.287  0.6375  2.0341  0.2109
 2210TIP3    H228122   4.559   0.856   2.227 -0.4361 -1.2549  0.1017
 2211TIP3   OH228123   1.968   6.083  13.889  0.4668 -0.6800  0.0086
 2211TIP3    H128124   2.002   6.134  13.816 -0.0922 -0.3618 -0.0272
 2211TIP3    H228125   1.919   6.145  13.942 -2.2786 -1.6204 -1.3295
 2212TIP3   OH228126   2.767   0.942   5.574 -0.3588 -0.2830  0.3902
 2212TIP3    H128127   2.791   0.977   5.659  0.0029 -0.3772  0.3258
 2212TIP3    H228128   2.839   0.884   5.549 -0.2549  0.0870 -0.1852
 2213TIP3   OH228129   1.440   0.960  12.353 -0.4933 -0.1663  0.3924
 2213TIP3    H128130   1.425   0.902  12.279  1.8641  0.6263 -0.7577
 2213TIP3    H228131   1.443   1.048  12.316 -0.1842  0.3346  1.5614
 2214TIP3   OH228132   0.399   5.050  13.198  0.6600  0.0364 -0.0536
 2214TIP3    H128133   0.455   5.046  13.276  2.7268  0.4276 -1.5050
 2214TIP3    H228134   0.313   5.075  13.233  1.8465  1.4594  1.9697
 2215TIP3   OH228135   3.241   4.473   5.351  0.4287  0.5722 -0.4363
 2215TIP3    H128136   3.155   4.509   5.328  0.0370 -0.7325 -1.0960
 2215TIP3    H228137   3.221   4.409   5.420  0.8988  0.4710 -0.3949
 2216TIP3   OH228138   5.887   1.210  17.278 -0.4428  0.5053 -0.2242
 2216TIP3    H128139   5.940   1.188  17.202 -2.1756  2.2775 -2.0327
 2216TIP3    H228140   5.872   1.126  17.323  1.9531 -0.3143 -0.8974
 2217TIP3   OH228141   2.293   2.204  13.398 -0.0714 -0.1580  0.4228
 2217TIP3    H128142   2.281   2.240  13.486 -1.1822  1.0307 -0.2079
 2217TIP3    H228143   2.370   2.249  13.363 -1.1497  1.2603 -0.1693
 2218TIP3   OH228144   5.058   1.126  11.890 -0.0777  0.4867 -0.1016
 2218TIP3    H128145   5.072   1.033  11.905 -1.1872  0.2507 -0.4715
 2218TIP3    H228146   4.980   1.147  11.942 -0.1702  1.0710 -0.4727
 2219TIP3   OH228147   3.006   6.342  12.681 -0.8272  0.1832 -0.0681
 2219TIP3    H128148   2.979   6.413  12.623 -1.4758 -0.0469 -0.0537
 2219TIP3    H228149   3.001   6.263  12.626 -0.0228  0.1522 -0.1112
 2220TIP3   OH228150   3.910   3.423  16.470  0.0259  0.5694 -0.1941
 2220TIP3    H128151   3.849   3.355  16.499  1.9266 -0.5734  1.3323
 2220TIP3    H228152   3.991   3.404  16.519  1.0345  3.0935 -0.8102
 2221TIP3   OH228153   1.239   3.872   3.436  0.3404  0.2629 -0.1650
 2221TIP3    H128154   1.207   3.959   3.410  0.5525  0.3724 -0.0667
 2221TIP3    H228155   1.210   3.862   3.526  0.2989  0.2221 -0.1825
 2222TIP3   OH228156   3.356   1.793   0.372  0.7382  0.3793 -0.6075
 2222TIP3    H128157   3.353   1.701   0.399 -1.7006 -0.0617 -2.2239
 2222TIP3    H228158   3.398   1.791   0.286  2.8035  1.0745  0.3552
 2223TIP3   OH228159   0.353   2.603  11.860 -0.2485 -0.2606  0.0156
 2223TIP3    H128160   0.351   2.527  11.918 -0.5986  1.0900  1.8355
 2223TIP3    H228161   0.295   2.666  11.902  1.8305  1.8763 -0.2306
 2224TIP3   OH228162   6.557   3.515   2.989  0.1490  0.8787  0.0698
 2224TIP3    H128163   6.597   3.431   2.968 -1.2393  0.2781 -0.2504
 2224TIP3    H228164   6.617   3.580   2.952  1.3863  0.0511  0.5950
 2225TIP3   OH228165   6.540   4.656  14.776  0.2029  0.3863 -0.5066
 2225TIP3    H128166   6.505   4.727  14.829 -0.1933  0.5558 -1.0023
 2225TIP3    H228167   6.624   4.689  14.744  0.0560  0.5960 -0.6727
 2226TIP3   OH228168   5.091   6.114  16.225 -0.1420 -0.0211 -0.6091
 2226TIP3    H128169   5.124   6.049  16.163 -0.3494  0.2585 -1.0190
 2226TIP3    H228170   5.154   6.186  16.220 -0.0042 -0.1170 -0.2828
 2227TIP3   OH228171   4.480   4.701   1.709 -0.1295  0.5212 -0.0889
 2227TIP3    H128172   4.461   4.609   1.726  0.8989  0.1365 -0.9791
 2227TIP3    H228173   4.497   4.738   1.796 -2.5325  0.3507  0.4898
 2228TIP3   OH228174   4.746   3.226   0.950  0.1531 -0.1466 -0.0340
 2228TIP3    H128175   4.810   3.297   0.950  2.3844 -2.1083 -0.7518
 2228TIP3    H228176   4.756   3.186   1.036  0.5747 -1.0361 -0.4908
 2229TIP3   OH228177   4.857   0.958  13.048  0.0157  0.1846 -0.4764
 2229TIP3    H128178   4.767   0.938  13.025 -0.4569 -0.4480  1.8146
 2229TIP3    H228179   4.871   1.047  13.015 -1.3908  0.2414 -0.9486
 2230TIP3   OH228180   6.296   2.429   2.720 -0.0044  0.1198  0.3434
 2230TIP3    H128181   6.216   2.482   2.723 -0.7622 -0.9500 -0.4746
 2230TIP3    H228182   6.290   2.373   2.797 -0.3219 -0.3445 -0.0155
 2231TIP3   OH228183   1.035   1.555   5.918 -0.3583 -0.0109 -0.5694
 2231TIP3    H128184   1.062   1.567   6.009 -1.3788 -0.2741 -0.2212
 2231TIP3    H228185   0.944   1.586   5.916 -0.6685 -0.9476 -1.2688
 2232TIP3   OH228186   1.708   4.225  17.270 -0.5971 -0.4497 -0.1435
 2232TIP3    H128187   1.635   4.280  17.242  0.9549  0.7605 -1.9542
 2232TIP3    H228188   1.747   4.272  17.344  0.2437  0.5350 -1.1887
 2233TIP3   OH228189   0.125   2.880   5.711  0.0924 -0.0674 -0.8127
 2233TIP3    H128190   0.044   2.845   5.747  0.5095  0.1117  0.3269
 2233TIP3    H228191   0.186   2.879   5.785  0.7867  0.8820 -1.3675
 2234TIP3   OH228192   0.174   1.459   2.150  0.3799  0.6672  0.2560
 2234TIP3    H128193   0.116   1.533   2.171  1.9270  1.5731  1.3884
 2234TIP3    H228194   0.262   1.492   2.166  1.1534 -1.0838 -0.3060
 2235TIP3   OH228195   5.247   5.845   0.558 -0.1020 -0.2629  0.0251
 2235TIP3    H128196   5.178   5.810   0.502  1.2944  0.1057 -1.9761
 2235TIP3    H228197   5.226   5.939   0.565 -0.2171 -0.2906  0.0648
 2236TIP3   OH228198   5.204   1.340  16.390 -0.1521  0.1750 -0.4163
 2236TIP3    H128199   5.114   1.332  16.419 -0.4617  0.3111 -1.3146
 2236TIP3    H228200   5.231   1.251  16.366 -0.4864  0.3285 -1.3957
 2237TIP3   OH228201   2.827   3.508  11.996  0.0638 -0.2013 -0.2876
 2237TIP3    H128202   2.897   3.488  11.933  0.4744 -0.4404  0.2451
 2237TIP3    H228203   2.864   3.577  12.051  0.3872 -1.2793  0.8607
 2238TIP3   OH228204   0.256   3.529   5.087 -0.5151 -1.2209 -0.3359
 2238TIP3    H128205   0.194   3.502   5.019 -1.0396  0.3782 -0.5208
 2238TIP3    H228206   0.225   3.616   5.114  0.2115 -1.4633  1.3131
 2239TIP3   OH228207   2.209   2.374   6.657  0.4240 -0.1145  0.5341
 2239TIP3    H128208   2.200   2.411   6.570  1.4124 -0.9247  0.0745
 2239TIP3    H228209   2.125   2.390   6.699 -0.8006 -1.5689 -1.2963
 2240TIP3   OH228210   4.235   5.324   2.023  0.5050 -0.1618 -0.1487
 2240TIP3    H128211   4.235   5.280   2.108  1.3784 -4.1803 -2.1055
 2240TIP3    H228212   4.142   5.335   2.001  0.2727 -1.1267  0.3347
 2241TIP3   OH228213   0.695   4.706  15.504 -0.0903  0.0776  0.0501
 2241TIP3    H128214   0.619   4.760  15.482  0.0463 -0.1601 -1.0349
 2241TIP3    H228215   0.662   4.616  15.501  0.4598 -0.1011 -1.4987
 2242TIP3   OH228216   4.217   6.077  12.328 -0.7558  0.1123  0.2527
 2242TIP3    H128217   4.152   6.121  12.274 -1.8161  0.6101  1.8963
 2242TIP3    H228218   4.280   6.042  12.266 -2.8416 -0.7884 -1.4313
 2243TIP3   OH228219   1.514   1.226  13.244  0.4968 -0.2966 -0.2765
 2243TIP3    H128220   1.523   1.272  13.327 -0.4071  3.2230 -2.0053
 2243TIP3    H228221   1.604   1.202  13.220  1.1529  1.7134  0.0991
 2244TIP3   OH228222   0.914   4.812  14.802 -0.7506 -0.7259 -0.2806
 2244TIP3    H128223   0.848   4.873  14.769 -0.2500 -0.2412 -0.3939
 2244TIP3    H228224   0.864   4.742  14.843 -1.3097  0.7157  1.5556
 2245TIP3   OH228225   2.030   5.502   3.968  0.4129  0.2912  0.4547
 2245TIP3    H128226   1.949   5.534   4.008 -0.1939  1.0699 -1.3537
 2245TIP3    H228227   2.019   5.407   3.962 -0.5129  0.4295 -0.0946
 2246TIP3   OH228228   1.238   6.785   1.825  0.8717 -0.1420 -0.2642
 2246TIP3    H128229   1.178   6.739   1.766 -0.7543  1.1086  0.3731
 2246TIP3    H228230   1.265   6.863   1.776 -0.5604  0.9502  0.6620
 2247TIP3   OH228231   3.024   2.168   1.408  0.4217 -0.6736 -0.1973
 2247TIP3    H128232   2.967   2.095   1.433  1.3100 -1.4143 -0.3227
 2247TIP3    H228233   3.097   2.164   1.469 -0.2837  1.0784  0.8162
 2248TIP3   OH228234   6.547   0.457   6.922  0.0235  0.0023 -0.1866
 2248TIP3    H128235   6.617   0.522   6.930  0.6367 -0.7531  0.7718
 2248TIP3    H228236   6.479   0.501   6.872  0.7146  1.1467 -0.1415
 2249TIP3   OH228237   0.610   0.504   0.977 -0.3286 -0.3278  0.1744
 2249TIP3    H128238   0.683   0.495   0.916 -2.0441 -1.0024 -1.8443
 2249TIP3    H228239   0.610   0.422   1.027  0.3737 -0.2587  0.2955
 2250TIP3   OH228240   0.911   3.757  14.538 -0.4039  0.4666  0.5266
 2250TIP3    H128241   0.941   3.821  14.603  2.2655  0.5830 -0.7651
 2250TIP3    H228242   0.917   3.804  14.454  2.7262 -1.8219 -0.5809
 2251TIP3   OH228243   2.838   0.714  13.690 -0.1482  0.1338  0.7399
 2251TIP3    H128244   2.915   0.671  13.653  0.5151  0.8413  1.2958
 2251TIP3    H228245   2.801   0.763  13.617 -0.0969 -0.2288  0.4671
 2252TIP3   OH228246   3.021   4.272   0.841  0.2498  0.5455  0.9150
 2252TIP3    H128247   3.025   4.177   0.825  1.9574  0.6563  0.5722
 2252TIP3    H228248   2.931   4.287   0.870  0.2414 -1.3504  2.0090
 2253TIP3   OH228249   1.248   1.255  11.651  0.1920 -0.5356  0.3977
 2253TIP3    H128250   1.252   1.289  11.741  0.2183  0.0295  0.1865
 2253TIP3    H228251   1.154   1.249  11.633  0.1890  0.7596 -0.0587
 2254TIP3   OH228252   1.111   3.934  15.452  0.1861 -0.4570 -0.0274
 2254TIP3    H128253   1.166   3.969  15.521  1.2082 -0.3707 -0.8684
 2254TIP3    H228254   1.162   3.863  15.413 -0.8767 -1.3018  0.0924
 2255TIP3   OH228255   3.360   6.811   0.121 -0.9587  0.3204  0.1499
 2255TIP3    H128256   3.371   6.741   0.057  0.0869  1.0142 -0.4298
 2255TIP3    H228257   3.277   6.852   0.097 -0.5516  0.6030 -0.7896
 2256TIP3   OH228258   0.404   1.942  12.933  0.4575  0.2808 -0.0839
 2256TIP3    H128259   0.438   2.023  12.896 -0.0638  0.8790  0.7429
 2256TIP3    H228260   0.310   1.947  12.918  0.2450  0.5212  1.3059
 2257TIP3   OH228261   5.156   0.579   4.417 -0.0672 -0.4472 -0.1209
 2257TIP3    H128262   5.078   0.604   4.466 -1.3108 -0.3542 -2.0740
 2257TIP3    H228263   5.203   0.661   4.404 -0.6439 -0.1896 -0.6100
 2258TIP3   OH228264   3.041   6.195   2.737 -0.0694  0.6162  0.1395
 2258TIP3    H128265   2.991   6.119   2.767 -1.6190  0.3419 -2.8916
 2258TIP3    H228266   2.986   6.235   2.670  1.8511  2.9304 -0.1289
 2259TIP3   OH228267   3.882   6.222   1.228  0.1713  0.8058  0.7458
 2259TIP3    H128268   3.971   6.258   1.225  0.3890  0.2990  0.9526
 2259TIP3    H228269   3.851   6.242   1.317  0.4778  0.0607  1.0265
 2260TIP3   OH228270   6.375   2.657  11.023 -0.2034 -0.1784 -0.1518
 2260TIP3    H128271   6.467   2.679  11.035 -0.4812  0.7758  0.2607
 2260TIP3    H228272   6.359   2.673  10.930  0.0346 -0.3256 -0.2205
 2261TIP3   OH228273   2.355   5.914   3.796 -0.1724  0.0908 -0.2881
 2261TIP3    H128274   2.340   5.820   3.805  1.0212  0.0025  1.0244
 2261TIP3    H228275   2.379   5.927   3.704  1.3298 -1.1418 -0.0835
 2262TIP3   OH228276   2.407   2.849  13.658 -0.3882 -0.2000  0.1573
 2262TIP3    H128277   2.495   2.886  13.653 -0.5536  0.5250  2.3837
 2262TIP3    H228278   2.421   2.754  13.651  0.3592  0.0222 -1.6526
 2263TIP3   OH228279   3.801   5.258   4.113 -0.5670  0.9389 -0.0914
 2263TIP3    H128280   3.832   5.237   4.025 -1.1296 -1.1076  0.1671
 2263TIP3    H228281   3.725   5.202   4.126 -1.3673  2.2720  1.1667
 2264TIP3   OH228282   1.529   4.474  12.375 -0.5081 -0.4127  0.2962
 2264TIP3    H128283   1.544   4.501  12.465  1.3234 -1.6446  0.3849
 2264TIP3    H228284   1.439   4.441  12.373 -0.7944  0.2959  1.4858
 2265TIP3   OH228285   5.683   3.987   5.286  0.1201  0.0926 -0.3281
 2265TIP3    H128286   5.774   3.990   5.317  0.6075 -0.9028 -1.5742
 2265TIP3    H228287   5.652   4.077   5.294  0.2084 -0.1096  2.9717
 2266TIP3   OH228288   4.375   4.021  16.525  0.1887  0.3487  0.2840
 2266TIP3    H128289   4.459   4.043  16.485  0.1090  0.8167  0.3600
 2266TIP3    H228290   4.332   4.106  16.538 -1.7719 -0.0555 -2.9602
 2267TIP3   OH228291   6.205   1.128  11.755 -0.0019 -0.0071 -0.4520
 2267TIP3    H128292   6.214   1.183  11.833 -0.2830 -0.5261 -0.0479
 2267TIP3    H228293   6.238   1.042  11.783  1.9463  0.3616 -1.5389
 2268TIP3   OH228294   5.358   0.961  16.484  0.2345  0.2549  0.0144
 2268TIP3    H128295   5.302   1.017  16.431 -0.8968  3.5060  4.4046
 2268TIP3    H228296   5.436   1.013  16.502  1.2266 -1.3198  0.4447
 2269TIP3   OH228297   3.383   4.299   0.201 -0.1010  0.0525  0.5420
 2269TIP3    H128298   3.353   4.350   0.277  1.5115 -1.1176  1.9976
 2269TIP3    H228299   3.473   4.330   0.186  0.2909 -1.1250  0.3872
 2270TIP3   OH228300   6.394   4.806   3.923  0.0879  0.0413  0.0583
 2270TIP3    H128301   6.344   4.750   3.864  1.2425 -0.3148 -0.5796
 2270TIP3    H228302   6.375   4.895   3.893 -0.2008 -0.0915 -0.1518
 2271TIP3   OH228303   1.550   3.861   6.560 -0.9174  0.2425 -0.1625
 2271TIP3    H128304   1.588   3.897   6.480  1.1129 -0.8134  0.2831
 2271TIP3    H228305   1.502   3.934   6.599  1.6232  2.0107 -0.1768
 2272TIP3   OH228306   6.794   6.151  16.845 -0.4824 -0.1220  0.0238
 2272TIP3    H128307   6.804   6.237  16.804 -3.7682  0.5225  0.4773
 2272TIP3    H228308   6.756   6.096  16.776 -2.0596 -0.1443  0.8849
 2273TIP3   OH228309   5.903   6.170  10.974  0.1227  0.1364 -0.6734
 2273TIP3    H128310   5.904   6.212  10.888  0.6893 -0.2989 -0.8821
 2273TIP3    H228311   5.991   6.184  11.009 -0.2618  0.7398  0.0441
 2274TIP3   OH228312   6.757   6.662  13.519 -0.0826  0.0057  0.1381
 2274TIP3    H128313   6.741   6.576  13.479  0.4833  0.0733 -0.2473
 2274TIP3    H228314   6.793   6.642  13.605 -1.2411 -0.1428  0.5883
 2275TIP3   OH228315   3.575   1.152   1.255  0.3042  0.9390 -0.1123
 2275TIP3    H128316   3.594   1.180   1.344  2.1880 -1.1157  0.1864
 2275TIP3    H228317   3.576   1.232   1.203  2.1648  1.8172  1.2418
 2276TIP3   OH228318   4.529   4.535  16.304  0.6550  0.2542 -0.2625
 2276TIP3    H128319   4.599   4.530  16.369  0.4857 -0.1015 -0.1073
 2276TIP3    H228320   4.510   4.444  16.282 -1.2677  0.2331  1.3411
 2277TIP3   OH228321   6.259   4.374   0.254  0.6328  0.0639  0.2183
 2277TIP3    H128322   6.196   4.414   0.314 -1.5027 -0.6691 -1.4918
 2277TIP3    H228323   6.281   4.443   0.192 -2.6913 -1.1336 -2.4459
 2278TIP3   OH228324   3.535   6.312  14.279 -0.5614  0.6779 -0.3171
 2278TIP3    H128325   3.480   6.238  14.302 -0.9958  1.1787  0.2698
 2278TIP3    H228326   3.485   6.389  14.309  0.3462  1.1444  0.0072
 2279TIP3   OH228327   0.160   2.802   0.232  0.0960  0.6389 -0.2546
 2279TIP3    H128328   0.130   2.893   0.234  1.1485  0.9622  1.3828
 2279TIP3    H228329   0.171   2.783   0.139 -0.1164  2.1797 -0.6124
 2280TIP3   OH228330   2.593   3.890   5.888 -0.1957 -0.1674 -0.3984
 2280TIP3    H128331   2.671   3.865   5.939  0.0386  0.6734 -0.3357
 2280TIP3    H228332   2.563   3.971   5.929 -1.1862 -0.5552 -0.3462
 2281TIP3   OH228333   5.420   0.387  17.103  0.4718  0.2424 -0.3193
 2281TIP3    H128334   5.427   0.321  17.033 -0.1846  0.5515 -0.6834
 2281TIP3    H228335   5.493   0.368  17.161  0.0070 -1.1246 -0.1615
 2282TIP3   OH228336   2.713   0.383   3.573  0.1473 -0.1399 -0.3751
 2282TIP3    H128337   2.783   0.380   3.638  1.5913  1.6869 -1.7617
 2282TIP3    H228338   2.680   0.473   3.577 -1.8301 -0.8480 -0.0796
 2283TIP3   OH228339   5.573   0.653   2.567  0.0450  0.7540 -0.0204
 2283TIP3    H128340   5.489   0.620   2.600  0.0039  0.0923 -0.7778
 2283TIP3    H228341   5.637   0.587   2.593 -0.1367 -0.2960 -2.1128
 2284TIP3   OH228342   0.750   3.684   4.746 -0.2940 -0.4215 -0.0797
 2284TIP3    H128343   0.683   3.627   4.784 -1.1172  0.1035 -0.7291
 2284TIP3    H228344   0.714   3.711   4.661  0.6377  0.0537 -0.3395
 2285TIP3   OH228345   6.412   5.218  13.785  0.4273 -0.1034 -0.8446
 2285TIP3    H128346   6.473   5.249  13.851  1.0676 -0.3959 -1.2923
 2285TIP3    H228347   6.329   5.260  13.807  0.5640 -0.4451  0.3237
 2286TIP3   OH228348   0.448   6.463  15.167  1.0526 -0.6155 -0.1323
 2286TIP3    H128349   0.407   6.453  15.081  2.5353 -0.2076 -0.9014
 2286TIP3    H228350   0.480   6.376  15.189  2.5841 -0.2652 -0.9770
 2287TIP3   OH228351   3.908   1.660   0.195  0.0345  0.6188  0.4215
 2287TIP3    H128352   3.850   1.733   0.214 -0.6456  0.6951 -1.7969
 2287TIP3    H228353   3.986   1.677   0.247 -0.3411  2.6480  0.3586
 2288TIP3   OH228354   1.444   4.001   0.837 -0.2586  0.2627  0.6035
 2288TIP3    H128355   1.438   4.078   0.894 -1.8230 -0.8007  1.9363
 2288TIP3    H228356   1.442   3.927   0.897  1.0285 -0.8353 -0.6776
 2289TIP3   OH228357   1.561   0.943   5.827 -0.0984  0.6966  0.3434
 2289TIP3    H128358   1.626   0.882   5.791  0.4496  1.5081 -0.0457
 2289TIP3    H228359   1.518   0.980   5.751 -0.7351  0.4818  0.5931
 2290TIP3   OH228360   1.613   2.543   4.486  0.5949 -0.1731  0.7112
 2290TIP3    H128361   1.575   2.460   4.513 -1.7941  0.5598 -0.3143
 2290TIP3    H228362   1.658   2.523   4.403 -0.8781 -0.2479 -0.0890
 2291TIP3   OH228363   6.003   0.725  16.457  0.5146 -0.4496 -0.1667
 2291TIP3    H128364   6.083   0.690  16.417  1.8374  0.5957  1.4829
 2291TIP3    H228365   6.022   0.818  16.470 -1.0584 -0.1490  0.0430
 2292TIP3   OH228366   6.692   6.684  17.168  0.9282 -0.3105 -0.6149
 2292TIP3    H128367   6.783   6.672  17.142  1.6527  1.8378  0.8274
 2292TIP3    H228368   6.690   6.663  17.261  0.4066  1.7184 -0.1463
 2293TIP3   OH228369   1.002   5.025  14.173  0.1213 -0.6184 -0.0401
 2293TIP3    H128370   0.977   5.111  14.207  0.4669 -0.1923 -0.8370
 2293TIP3    H228371   0.949   5.015  14.094 -0.2451 -1.3335  0.2989
 2294TIP3   OH228372   1.981   6.510  15.097 -0.4826  0.0193 -0.3086
 2294TIP3    H128373   2.063   6.462  15.084  0.0682  0.5804  1.0522
 2294TIP3    H228374   1.917   6.442  15.118 -0.0282 -0.2739  0.1503
 2295TIP3   OH228375   2.689   0.318  14.213  0.0947 -0.2125  0.5745
 2295TIP3    H128376   2.626   0.274  14.155 -1.0915  2.1098  0.0205
 2295TIP3    H228377   2.737   0.247  14.255 -1.5197 -2.0102 -0.5362
 2296TIP3   OH228378   4.193   3.453  12.402  0.0566  0.5839  0.0178
 2296TIP3    H128379   4.131   3.417  12.466 -1.2666  1.9193 -0.4985
 2296TIP3    H228380   4.235   3.526  12.447 -0.7098  1.3808 -0.5514
 2297TIP3   OH228381   4.061   6.026   5.859  0.0367  0.1411 -0.0443
 2297TIP3    H128382   4.119   6.046   5.786 -0.6983  0.7900 -0.4582
 2297TIP3    H228383   3.974   6.050   5.827 -0.2184  0.9775  1.2538
 2298TIP3   OH228384   5.327   5.758  11.557  0.1576 -0.5038 -0.1839
 2298TIP3    H128385   5.317   5.730  11.466 -0.0593  2.0318 -0.9891
 2298TIP3    H228386   5.386   5.833  11.552  1.1829 -1.1169  1.9418
 2299TIP3   OH228387   5.719   2.550   5.864 -0.1341  0.3832  0.2665
 2299TIP3    H128388   5.777   2.534   5.790  0.5666 -2.2739  1.3548
 2299TIP3    H228389   5.750   2.633   5.901  2.4566 -0.5924  0.3641
 2300TIP3   OH228390   2.150   5.119   1.634 -0.3229 -0.3393 -0.1683
 2300TIP3    H128391   2.089   5.047   1.621 -1.3396  0.4428  0.1849
 2300TIP3    H228392   2.119   5.188   1.575 -0.7603  0.6514  1.2023
 2301TIP3   OH228393   6.318   0.747   3.627 -0.1825  0.1333  0.3172
 2301TIP3    H128394   6.350   0.734   3.538  0.5592 -0.2175  0.6305
 2301TIP3    H228395   6.398   0.761   3.679 -0.6785  1.5168  0.7252
 2302TIP3   OH228396   5.337   2.818   5.920 -0.6298  0.1071 -0.2430
 2302TIP3    H128397   5.271   2.865   5.869 -0.2723  0.1230 -0.6954
 2302TIP3    H228398   5.289   2.782   5.994 -0.8375  1.4738  0.2851
 2303TIP3   OH228399   2.069   2.477   0.955 -0.2186 -0.0004  0.1394
 2303TIP3    H128400   2.052   2.466   1.048 -0.9622  0.8461  0.1114
 2303TIP3    H228401   2.144   2.536   0.950  0.8323 -1.3149  0.2195
 2304TIP3   OH228402   4.466   0.785  15.850  0.0090 -0.0318 -0.0008
 2304TIP3    H128403   4.446   0.766  15.942  0.5848 -3.0090 -0.4495
 2304TIP3    H228404   4.384   0.771  15.804 -0.3468  1.7238  0.0585
 2305TIP3   OH228405   5.923   4.774   4.015  0.7679  0.2754  0.0158
 2305TIP3    H128406   5.943   4.844   3.952 -1.2893  1.2076  0.3448
 2305TIP3    H228407   5.932   4.815   4.101  2.1694 -0.6044  0.2934
 2306TIP3   OH228408   3.437   3.524  11.990 -0.4122 -0.2238 -0.0388
 2306TIP3    H128409   3.487   3.579  11.928  2.0182 -0.6558  1.4702
 2306TIP3    H228410   3.381   3.470  11.934  0.8188  0.2873 -1.8039
 2307TIP3   OH228411   0.404   6.611  14.620  0.0933 -0.5505 -0.5149
 2307TIP3    H128412   0.352   6.545  14.667  0.2684 -0.0885  0.3290
 2307TIP3    H228413   0.422   6.678  14.685  2.7339 -1.2523 -0.4765
 2308TIP3   OH228414   2.287   6.313   1.771  0.3926  0.0717 -0.8723
 2308TIP3    H128415   2.271   6.345   1.860  0.4770  0.0803 -0.8606
 2308TIP3    H228416   2.378   6.334   1.753  1.6689 -3.7753  0.6637
 2309TIP3   OH228417   4.722   1.021   6.009 -0.0633  0.2826  0.0095
 2309TIP3    H128418   4.724   1.113   5.984 -0.5669  0.7819  1.7031
 2309TIP3    H228419   4.652   1.016   6.075 -0.0710 -1.3168 -0.0927
 2310TIP3   OH228420   1.377   0.525   5.634  0.6372 -0.3917  0.7193
 2310TIP3    H128421   1.361   0.494   5.545  1.7779 -1.6609  0.9435
 2310TIP3    H228422   1.337   0.459   5.691  1.3957 -0.4752  1.1698
 2311TIP3   OH228423   3.136   0.388  12.650 -0.0298  0.1103  0.2651
 2311TIP3    H128424   3.055   0.439  12.649 -0.4391 -0.5312  0.5617
 2311TIP3    H228425   3.111   0.303  12.685  0.5206 -0.5129 -0.8007
 2312TIP3   OH228426   6.774   4.116   5.350  0.6049  0.2680 -0.1208
 2312TIP3    H128427   6.780   4.212   5.351 -0.9028  0.3895  0.9180
 2312TIP3    H228428   6.685   4.099   5.382  1.1299 -1.4928  0.4056
 2313TIP3   OH228429   1.859   1.172  11.726  0.3021 -0.6579 -0.4583
 2313TIP3    H128430   1.935   1.221  11.756 -1.7844  1.9050  0.8712
 2313TIP3    H228431   1.845   1.106  11.794 -0.8776  1.3195  1.2790
 2314TIP3   OH228432   5.301   5.726   4.931 -0.5554  0.8012  0.0834
 2314TIP3    H128433   5.321   5.802   4.877 -0.6764  1.1225  0.4829
 2314TIP3    H228434   5.318   5.755   5.021  1.0884 -0.1834  0.1251
 2315TIP3   OH228435   0.807   2.305   6.121 -0.7367  0.2829 -0.3329
 2315TIP3    H128436   0.795   2.385   6.173  0.2753 -0.1547  0.5783
 2315TIP3    H228437   0.834   2.239   6.184  1.3566 -0.0531 -1.5368
 2316TIP3   OH228438   4.577   2.670  14.915  0.1101 -0.7950 -0.0755
 2316TIP3    H128439   4.664   2.710  14.912 -0.2303  0.0684  1.4703
 2316TIP3    H228440   4.517   2.743  14.899 -0.4438 -0.9415  1.3250
 2317TIP3   OH228441   4.628   5.039   3.059 -0.1805 -0.4265 -1.0470
 2317TIP3    H128442   4.599   5.107   2.999  0.6479  0.5293 -0.3765
 2317TIP3    H228443   4.605   5.072   3.146  0.3042 -0.9496 -0.7122
 2318TIP3   OH228444   3.143   2.543  15.586  0.7859  0.7877 -0.1866
 2318TIP3    H128445   3.194   2.577  15.513  1.0859  0.3751 -0.1719
 2318TIP3    H228446   3.088   2.616  15.613  3.4390  2.1782  1.6942
 2319TIP3   OH228447   0.250   3.387  12.218  0.2599 -0.8035  0.0521
 2319TIP3    H128448   0.157   3.402  12.204  0.2400  0.2102  1.1724
 2319TIP3    H228449   0.293   3.464  12.181  0.5769 -0.7385  0.5464
 2320TIP3   OH228450   1.731   3.550  15.256 -0.1056  0.3383 -0.0033
 2320TIP3    H128451   1.723   3.596  15.173  0.1948  0.7115  0.1743
 2320TIP3    H228452   1.781   3.470  15.235 -0.4735  0.1773 -0.2760
 2321TIP3   OH228453   4.861   2.326   3.359  0.1179 -0.1291 -0.3050
 2321TIP3    H128454   4.835   2.241   3.394  0.8980  0.6170  2.1504
 2321TIP3    H228455   4.836   2.389   3.427 -0.3730  1.6074 -2.0560
 2322TIP3   OH228456   6.704   0.149   1.415 -0.7371 -0.3206 -0.0387
 2322TIP3    H128457   6.633   0.192   1.369 -0.1212  0.6518 -0.0916
 2322TIP3    H228458   6.677   0.148   1.507 -1.1524 -0.6379 -0.1627
 2323TIP3   OH228459   3.866   6.470  14.179  0.3754 -0.2181  0.0539
 2323TIP3    H128460   3.804   6.406  14.213 -1.0713  0.0362 -2.0546
 2323TIP3    H228461   3.951   6.440  14.211 -0.3093 -3.0440 -0.6871
 2324TIP3   OH228462   0.518   0.728  17.160 -0.1527  0.2389  0.1343
 2324TIP3    H128463   0.593   0.788  17.158  0.5629 -0.6681 -0.6115
 2324TIP3    H228464   0.442   0.785  17.168  0.5208  1.2465 -0.4929
 2325TIP3   OH228465   4.962   4.788   0.910  0.1962  0.2445  1.1594
 2325TIP3    H128466   4.991   4.757   0.824  1.5067  1.9630  0.9653
 2325TIP3    H228467   4.903   4.719   0.941  2.0053 -1.8212  0.1641
 2326TIP3   OH228468   3.486   6.214   0.639 -0.0285 -0.0765 -0.1853
 2326TIP3    H128469   3.444   6.296   0.664 -0.7194  0.1180 -1.9232
 2326TIP3    H228470   3.541   6.191   0.714 -0.8819  1.2594  0.8595
 2327TIP3   OH228471   1.071   6.109  11.431 -0.3258 -0.3034  0.3462
 2327TIP3    H128472   0.981   6.080  11.412 -0.8548  2.2263 -1.2393
 2327TIP3    H228473   1.060   6.197  11.465  1.6627  0.5753 -1.2331
 2328TIP3   OH228474   3.146   6.597   4.290  0.1458 -0.6059  0.0991
 2328TIP3    H128475   3.210   6.651   4.243 -0.3206  0.1614  0.3373
 2328TIP3    H228476   3.181   6.590   4.379 -0.9382  1.2448  0.6967
 2329TIP3   OH228477   5.586   5.030   3.353  0.0902  0.2378 -0.4791
 2329TIP3    H128478   5.681   5.037   3.365  0.1567  0.2822 -1.0342
 2329TIP3    H228479   5.568   5.079   3.273 -0.3878  0.1248 -0.4438
 2330TIP3   OH228480   6.602   4.954   3.362  0.5928 -0.0376  0.0535
 2330TIP3    H128481   6.618   4.921   3.273 -1.0846 -2.6949  0.6809
 2330TIP3    H228482   6.677   4.923   3.412  0.6728 -0.0611 -0.0784
 2331TIP3   OH228483   2.390   4.160  17.071  0.0460 -0.7161  0.0338
 2331TIP3    H128484   2.436   4.242  17.049  0.5755 -1.1817 -0.6252
 2331TIP3    H228485   2.311   4.163  17.017 -0.6209  0.0107  1.0477
 2332TIP3   OH228486   0.838   1.794   5.096 -0.0156 -0.2962  0.8483
 2332TIP3    H128487   0.753   1.788   5.140 -0.6324  0.8374 -0.1228
 2332TIP3    H228488   0.823   1.752   5.011 -0.3318  2.0454 -0.3009
 2333TIP3   OH228489   2.996   5.862  12.099  0.6258 -0.4235 -0.2490
 2333TIP3    H128490   2.965   5.771  12.090 -0.2217 -0.0456 -1.2413
 2333TIP3    H228491   2.932   5.914  12.050  0.7297  0.7950  0.8812
 2334TIP3   OH228492   4.209   6.483  13.619  0.2292 -0.1101 -0.5727
 2334TIP3    H128493   4.217   6.536  13.540 -0.3439  0.5401 -0.1867
 2334TIP3    H228494   4.156   6.408  13.592 -0.3245  0.3269 -0.6821
 2335TIP3   OH228495   6.259   5.072  15.338  0.1066  1.0717  0.2281
 2335TIP3    H128496   6.205   5.052  15.415 -0.8811 -0.2698 -0.7904
 2335TIP3    H228497   6.348   5.047  15.364 -0.6434 -2.0764  0.0135
 2336TIP3   OH228498   4.720   1.020  15.973 -0.6512  0.1708 -0.1260
 2336TIP3    H128499   4.724   0.976  15.888 -0.4827  0.9246 -0.5067
 2336TIP3    H228500   4.627   1.038  15.986 -0.5874  0.7945 -0.5286
 2337TIP3   OH228501   1.943   1.809   1.277  0.4022  0.0766  0.4627
 2337TIP3    H128502   1.897   1.770   1.204  0.9906  0.2871 -0.0253
 2337TIP3    H228503   1.877   1.820   1.345 -0.5154  1.4433 -0.6387
 2338TIP3   OH228504   1.729   0.639  13.000 -0.3501  0.2887  0.0691
 2338TIP3    H128505   1.779   0.663  12.922 -2.6327  0.9409 -1.2565
 2338TIP3    H228506   1.725   0.720  13.051  1.5975 -0.2747  1.1513
 2339TIP3   OH228507   2.748   6.334  11.555 -0.2510 -0.4218 -0.3877
 2339TIP3    H128508   2.672   6.351  11.611 -0.4919  0.3455 -0.9596
 2339TIP3    H228509   2.729   6.379  11.473  1.5009  1.0697 -0.0094
 2340TIP3   OH228510   6.267   2.781   0.002  0.5669 -0.4329 -0.5716
 2340TIP3    H128511   6.286   2.699   0.048 -0.6954 -0.0736  0.6167
 2340TIP3    H228512   6.239   2.841   0.071 -0.5235  0.3766 -1.7022
 2341TIP3   OH228513   5.610   0.913   1.421  0.5666 -0.7271 -0.6106
 2341TIP3    H128514   5.670   0.875   1.356  1.0394  0.6105 -0.9620
 2341TIP3    H228515   5.641   1.003   1.432 -0.9714 -0.2332 -0.2982
 2342TIP3   OH228516   6.133   4.089   6.774 -0.1419 -0.6175 -0.4220
 2342TIP3    H128517   6.194   4.025   6.738 -2.2242 -1.8042 -2.0056
 2342TIP3    H228518   6.153   4.171   6.728  1.2940 -0.5869  0.2524
 2343TIP3   OH228519   6.177   2.042   2.906  0.1776  0.1914  0.2038
 2343TIP3    H128520   6.088   2.056   2.875 -0.2596 -1.1217  0.8133
 2343TIP3    H228521   6.179   2.083   2.993  0.0733 -0.0641  0.3264
 2344TIP3   OH228522   4.093   5.717  12.242  0.1798 -0.1557  0.1874
 2344TIP3    H128523   4.141   5.645  12.282  1.6509  0.9499  0.4331
 2344TIP3    H228524   4.004   5.708  12.276  0.1717 -2.2473 -0.3208
 2345TIP3   OH228525   4.555   1.744   0.782 -0.3026 -0.2919 -0.3957
 2345TIP3    H128526   4.551   1.825   0.731 -0.0626 -0.6474 -0.9837
 2345TIP3    H228527   4.645   1.713   0.772  0.5503  1.0754  2.5017
 2346TIP3   OH228528   6.124   5.278   5.027 -0.3003  0.0870  0.2539
 2346TIP3    H128529   6.218   5.294   5.026 -0.1947 -0.4681 -1.6018
 2346TIP3    H228530   6.085   5.366   5.027  0.2124  0.3175  1.1192
 2347TIP3   OH228531   1.445   1.416  16.474 -0.0043  0.4284  0.6570
 2347TIP3    H128532   1.442   1.337  16.528 -0.4104 -0.8266 -1.1659
 2347TIP3    H228533   1.516   1.400  16.412 -1.1806  0.7640 -0.8031
 2348TIP3   OH228534   2.926   6.253  11.037  0.4063 -0.0253  0.2597
 2348TIP3    H128535   2.989   6.272  11.107  1.0429 -1.9020  0.2341
 2348TIP3    H228536   2.865   6.191  11.077  0.1139 -0.2310 -0.5120
 2349TIP3   OH228537   1.360   0.803  11.867  0.2540  0.5928 -0.2265
 2349TIP3    H128538   1.278   0.784  11.821  0.9963 -0.1832 -1.2516
 2349TIP3    H228539   1.398   0.876  11.818  0.4663  0.5586 -0.1136
 2350TIP3   OH228540   0.052   6.044  17.071 -0.0059  0.2685 -0.8785
 2350TIP3    H128541   0.012   6.079  16.991 -0.7588  0.8606 -0.2466
 2350TIP3    H228542   0.144   6.029  17.047  0.0008  1.3693 -1.5607
 2351TIP3   OH228543   2.509   3.539  16.194  0.1916  0.2371  0.1515
 2351TIP3    H128544   2.425   3.506  16.228 -0.3479  0.1762 -1.1937
 2351TIP3    H228545   2.568   3.535  16.269 -0.7899 -0.5148  0.9115
 2352TIP3   OH228546   4.063   1.776  12.507 -0.5144  0.1366  0.1510
 2352TIP3    H128547   4.023   1.726  12.578 -0.8602 -0.6468 -0.5927
 2352TIP3    H228548   4.004   1.764  12.433  0.7698 -0.5064 -0.7705
 2353TIP3   OH228549   0.162   1.073   2.359  0.3899 -0.3875 -0.7181
 2353TIP3    H128550   0.163   1.019   2.280  2.1924 -0.4274 -0.6943
 2353TIP3    H228551   0.118   1.154   2.332 -0.3798 -1.0029 -1.3360
 2354TIP3   OH228552   1.255   3.732  15.364  0.1449 -0.3940  0.7182
 2354TIP3    H128553   1.238   3.650  15.317 -2.2401 -0.3552  1.4594
 2354TIP3    H228554   1.325   3.710  15.426  0.6646 -1.4282 -0.2189
 2355TIP3   OH228555   3.029   5.310  16.905  0.1467 -0.3256 -0.3229
 2355TIP3    H128556   2.957   5.252  16.881  1.4704 -2.6821  1.1441
 2355TIP3    H228557   3.074   5.328  16.823 -0.8746 -0.5913 -0.9378
 2356TIP3   OH228558   6.174   0.623   1.911 -0.1145 -0.3893  0.3711
 2356TIP3    H128559   6.190   0.561   1.839 -2.4506 -1.2677  0.5499
 2356TIP3    H228560   6.088   0.598   1.945  0.0237  1.3734  2.1105
 2357TIP3   OH228561   4.032   4.812  10.926  0.2224 -0.0536 -0.3826
 2357TIP3    H128562   3.961   4.875  10.915 -1.2245 -1.7670 -0.9248
 2357TIP3    H228563   3.992   4.727  10.912  1.5322 -1.3452  3.0818
 2358TIP3   OH228564   3.568   4.511   0.980  0.2404 -0.1795  0.1910
 2358TIP3    H128565   3.557   4.583   1.041  0.5581  0.4950 -0.5354
 2358TIP3    H228566   3.546   4.433   1.030 -2.3086  0.6121  0.3640
 2359TIP3   OH228567   4.929   2.850  16.802  0.8209  0.1412 -0.0193
 2359TIP3    H128568   4.931   2.809  16.889 -0.9919 -0.4788 -0.2340
 2359TIP3    H228569   4.921   2.943  16.820  3.6441  0.3226  0.4728
 2360TIP3   OH228570   6.556   3.380  11.476  0.4445 -0.3854 -0.0670
 2360TIP3    H128571   6.622   3.317  11.446  0.4392 -0.2835 -0.2881
 2360TIP3    H228572   6.520   3.417  11.396  0.8358  0.3023  0.0695
 2361TIP3   OH228573   1.796   5.515   1.881 -0.5757 -0.1324  0.6142
 2361TIP3    H128574   1.737   5.579   1.843 -0.4309 -1.4896 -2.0287
 2361TIP3    H228575   1.871   5.514   1.822 -0.0037 -1.8007  1.3348
 2362TIP3   OH228576   4.225   4.877   4.220 -0.1735 -0.1004 -0.0911
 2362TIP3    H128577   4.265   4.905   4.137 -2.4723  0.7526 -0.9328
 2362TIP3    H228578   4.186   4.957   4.256  0.5688 -0.5232  1.7198
 2363TIP3   OH228579   3.332   0.935   5.967  0.1924 -0.3618 -0.3406
 2363TIP3    H128580   3.391   0.960   6.038  0.0762 -0.9583 -0.0303
 2363TIP3    H228581   3.265   0.880   6.010 -1.0627  1.0017 -0.5336
 2364TIP3   OH228582   3.476   1.998   0.163  0.3071 -0.0117  0.1039
 2364TIP3    H128583   3.483   1.996   0.068 -1.7847 -0.1552 -0.0723
 2364TIP3    H228584   3.432   2.081   0.182 -1.2569 -0.9723  0.7817
 2365TIP3   OH228585   6.221   0.189   3.170 -0.3983  0.1975  0.2147
 2365TIP3    H128586   6.222   0.240   3.088 -1.1811 -1.3093 -0.7437
 2365TIP3    H228587   6.177   0.247   3.233 -0.8806  0.8937 -0.7399
 2366TIP3   OH228588   5.172   3.247  10.748  0.7136 -0.7475  0.6091
 2366TIP3    H128589   5.118   3.325  10.760 -0.0170 -0.8335 -1.8388
 2366TIP3    H228590   5.261   3.278  10.759  0.5956  0.9992 -2.6337
 2367TIP3   OH228591   3.797   4.668   1.067 -0.0987  0.3850 -0.5232
 2367TIP3    H128592   3.802   4.574   1.082  0.6309  0.1227 -2.3529
 2367TIP3    H228593   3.834   4.707   1.147  0.5442 -0.8814 -0.1868
 2368TIP3   OH228594   0.748   2.940   4.924 -0.0513  0.5832 -0.8145
 2368TIP3    H128595   0.788   2.907   4.843 -0.8384 -0.8481 -0.6213
 2368TIP3    H228596   0.815   2.927   4.991 -0.0708  0.0873 -0.8889
 2369TIP3   OH228597   0.369   1.393   5.103 -0.2514 -0.1450 -0.1878
 2369TIP3    H128598   0.277   1.409   5.125 -0.2990 -0.4577 -0.1557
 2369TIP3    H228599   0.415   1.469   5.138 -0.3937 -0.3847  0.5295
 2370TIP3   OH228600   3.609   2.839  13.983 -0.8900 -0.0962  0.9691
 2370TIP3    H128601   3.593   2.812  13.893 -1.6210 -0.4637  1.1977
 2370TIP3    H228602   3.645   2.927  13.976 -0.0170 -0.5029  0.2780
 2371TIP3   OH228603   4.482   5.578   1.045  0.2109  0.0506 -0.7088
 2371TIP3    H128604   4.478   5.519   1.121  2.4396 -0.4192 -0.9173
 2371TIP3    H228605   4.558   5.634   1.062 -0.6516  1.4861 -1.5125
 2372TIP3   OH228606   5.287   1.489   4.127  0.2471 -0.3122  0.7958
 2372TIP3    H128607   5.262   1.581   4.123 -0.8546 -0.6208  0.4407
 2372TIP3    H228608   5.266   1.462   4.216 -1.3246 -0.7393  0.3116
 2373TIP3   OH228609   2.695   4.086  12.426  0.4176  0.5902 -0.0613
 2373TIP3    H128610   2.625   4.023  12.411 -0.3459  0.9415  1.8363
 2373TIP3    H228611   2.714   4.122  12.340 -0.9092 -0.3834 -0.7757
 2374TIP3   OH228612   2.618   0.036  13.673  0.0196 -0.2908  0.2462
 2374TIP3    H128613   2.540  -0.019  13.666 -0.1149  0.0658 -1.2304
 2374TIP3    H228614   2.643   0.053  13.582 -0.4765  2.8209  0.6441
 2375TIP3   OH228615   3.164   0.420  16.363 -0.0678 -0.2574  0.1406
 2375TIP3    H128616   3.256   0.446  16.367 -0.1211  0.2765 -1.6679
 2375TIP3    H228617   3.160   0.359  16.290 -1.1749 -0.2394  0.1869
 2376TIP3   OH228618   1.472   4.036  13.364 -0.2980  0.8173 -0.2047
 2376TIP3    H128619   1.473   4.007  13.273 -0.1780 -0.6930  0.2630
 2376TIP3    H228620   1.552   4.088  13.374 -0.8057  1.8085 -1.2059
 2377TIP3   OH228621   3.993   5.590  17.240 -0.1728 -0.3186  0.4184
 2377TIP3    H128622   4.012   5.510  17.191  0.9846 -1.0314  1.9722
 2377TIP3    H228623   4.037   5.660  17.190 -1.5520 -0.5689 -1.1747
 2378TIP3   OH228624   5.439   5.533  13.097  0.4103  0.0940  0.1963
 2378TIP3    H128625   5.395   5.525  13.182 -0.3071  1.4507 -0.0389
 2378TIP3    H228626   5.470   5.623  13.094  1.0754 -0.1580 -0.6799
 2379TIP3   OH228627   0.290   3.429  17.007 -0.5456  0.1201  0.7801
 2379TIP3    H128628   0.365   3.485  16.992  1.0847 -2.0249  0.6181
 2379TIP3    H228629   0.214   3.483  16.985  0.9960  1.9837 -0.0828
 2380TIP3   OH228630   4.893   3.066  14.473  0.0325 -0.5892 -0.4593
 2380TIP3    H128631   4.920   3.106  14.391 -0.2226  0.1957 -0.1659
 2380TIP3    H228632   4.830   2.998  14.448  0.2642 -0.6245 -0.9393
 2381TIP3   OH228633   4.654   3.542   0.678  0.4259  0.5064  0.0848
 2381TIP3    H128634   4.743   3.523   0.646  0.7855  0.0879  1.3182
 2381TIP3    H228635   4.621   3.458   0.709  0.4749  1.0975  1.7675
 2382TIP3   OH228636   1.906   5.267   2.763 -0.3129 -0.2063 -0.2425
 2382TIP3    H128637   1.913   5.263   2.667  2.5311  1.0522 -0.1556
 2382TIP3    H228638   1.883   5.358   2.781 -0.5509 -0.3702  0.2907
 2383TIP3   OH228639   4.243   0.750  14.915 -0.1449 -0.0559 -0.3108
 2383TIP3    H128640   4.154   0.761  14.882  0.1895 -0.8996 -1.5269
 2383TIP3    H228641   4.296   0.731  14.837  0.9784 -0.2181  0.4763
 2384TIP3   OH228642   2.023   2.874  13.355 -0.1151 -0.5027  0.1839
 2384TIP3    H128643   2.026   2.833  13.441 -2.1387  0.0842  0.5545
 2384TIP3    H228644   2.031   2.801  13.293 -2.4905 -1.3604  0.8464
 2385TIP3   OH228645   4.376   0.212   3.064  0.2125  0.0997  0.0604
 2385TIP3    H128646   4.461   0.172   3.085 -0.1557  0.1736  1.7849
 2385TIP3    H228647   4.385   0.303   3.093  0.2298  0.6716 -1.6578
 2386TIP3   OH228648   4.460   1.971  14.124  0.3255  0.1876 -0.1613
 2386TIP3    H128649   4.379   1.929  14.151 -0.7055  1.1613 -1.6866
 2386TIP3    H228650   4.484   2.027  14.198 -1.5756  1.5690 -0.5727
 2387TIP3   OH228651   5.273   4.999  11.275  0.1461  0.1579 -0.4608
 2387TIP3    H128652   5.278   4.906  11.252 -1.4190  0.2104 -1.0606
 2387TIP3    H228653   5.277   5.045  11.191 -1.6645  0.5130 -0.3702
 2388TIP3   OH228654   3.689   6.505  17.125  0.0260  0.5924  0.8066
 2388TIP3    H128655   3.701   6.534  17.034  0.0988  0.4106  0.7572
 2388TIP3    H228656   3.776   6.480  17.154 -0.5261 -2.7622 -0.2532
 2389TIP3   OH228657   6.574   2.842   0.176 -0.3588 -0.5237 -0.6546
 2389TIP3    H128658   6.592   2.775   0.110 -0.3046 -0.9079 -0.2521
 2389TIP3    H228659   6.660   2.876   0.200 -0.2235 -1.6615  0.5413
 2390TIP3   OH228660   3.961   0.688  10.737  0.6295 -0.4123 -0.6285
 2390TIP3    H128661   4.024   0.676  10.666  0.4373  0.7442 -1.0143
 2390TIP3    H228662   3.907   0.610  10.735  2.0649 -1.4362 -0.2768
 2391TIP3   OH228663   3.872   0.528   2.674  0.5953 -0.0352  0.2433
 2391TIP3    H128664   3.948   0.580   2.649  0.4131  0.5447  0.8939
 2391TIP3    H228665   3.874   0.452   2.615  3.3127 -1.5278  2.1429
 2392TIP3   OH228666   4.535   2.660  13.325  0.3372  0.3223 -0.3133
 2392TIP3    H128667   4.545   2.566  13.308 -1.4327  0.1222 -0.3041
 2392TIP3    H228668   4.617   2.698  13.293  1.6320 -1.3643  0.8588
 2393TIP3   OH228669   4.992   4.833   1.658 -0.5387  0.7368  0.3010
 2393TIP3    H128670   5.072   4.788   1.630 -1.1965  0.4146 -1.0891
 2393TIP3    H228671   4.988   4.817   1.752  0.7621  0.3208  0.3026
 2394TIP3   OH228672   2.200   2.835   0.726 -0.1407  0.3475  0.2312
 2394TIP3    H128673   2.172   2.761   0.673  0.6921  0.9843 -1.1146
 2394TIP3    H228674   2.220   2.904   0.663 -0.9545  1.7527  1.4599
 2395TIP3   OH228675   2.620   6.040   3.985  0.0835  0.4781  0.1423
 2395TIP3    H128676   2.684   5.970   3.997  0.7865  0.8169 -1.5230
 2395TIP3    H228677   2.657   6.096   3.917 -2.9749 -0.5793 -2.5738
 2396TIP3   OH228678   5.982   3.199  12.604  0.1661  0.4520 -0.3630
 2396TIP3    H128679   6.077   3.212  12.601  0.4109 -1.3491 -1.0130
 2396TIP3    H228680   5.957   3.182  12.513 -0.6011 -0.2251 -0.0312
 2397TIP3   OH228681   6.282   0.881  16.723 -0.5507  0.3691 -0.2873
 2397TIP3    H128682   6.300   0.888  16.817 -0.5359  0.0982 -0.2699
 2397TIP3    H228683   6.311   0.793  16.699 -1.3924  0.0969 -0.3546
 2398TIP3   OH228684   0.066   3.233  15.973 -0.4341  0.4705  0.3351
 2398TIP3    H128685   0.087   3.288  15.899 -1.4203  0.1120 -0.2280
 2398TIP3    H228686   0.150   3.199  16.004 -0.0738  0.1405 -0.9976
 2399TIP3   OH228687   3.342   3.029   2.214  0.4420 -0.5319 -0.1778
 2399TIP3    H128688   3.422   3.070   2.180  0.5652 -1.4364 -1.0196
 2399TIP3    H228689   3.275   3.096   2.207  0.9019 -0.0992 -0.4471
 2400TIP3   OH228690   1.132   0.556   3.359 -0.0191 -0.2976  0.2274
 2400TIP3    H128691   1.128   0.576   3.452  1.0966  0.6874  0.0735
 2400TIP3    H228692   1.217   0.589   3.331  0.2484 -1.8357 -0.8523
 2401TIP3   OH228693   6.072   4.538   4.961 -0.4936  0.0921  0.3240
 2401TIP3    H128694   6.119   4.591   4.896 -0.4741  0.2049  0.4307
 2401TIP3    H228695   6.086   4.447   4.933  0.4267  0.0798  0.7715
 2402TIP3   OH228696   1.201   2.153   2.253 -0.3367 -0.1850  0.4072
 2402TIP3    H128697   1.175   2.223   2.314 -0.9842  0.3696 -0.4853
 2402TIP3    H228698   1.292   2.174   2.230  0.9973 -2.1732  3.5979
 2403TIP3   OH228699   6.603   1.448   1.501  0.0832 -0.2121 -0.4542
 2403TIP3    H128700   6.605   1.538   1.534  1.1595  0.3720 -2.0957
 2403TIP3    H228701   6.550   1.453   1.422 -0.0855 -1.0767 -0.3951
 2404TIP3   OH228702   5.527   4.839   0.618  0.7034  0.3363 -0.0125
 2404TIP3    H128703   5.542   4.755   0.574 -0.0892  0.3005 -0.2259
 2404TIP3    H228704   5.476   4.816   0.696  1.9572  0.4174  0.8442
 2405TIP3   OH228705   1.215   1.907   3.003 -0.3180  0.2121 -0.1202
 2405TIP3    H128706   1.265   1.979   3.043 -0.3809  0.3878 -0.3574
 2405TIP3    H228707   1.272   1.831   3.010 -0.5957  0.0885  0.9325
 2406TIP3   OH228708   1.789   6.423  12.434  0.0576 -0.6483  0.0492
 2406TIP3    H128709   1.728   6.478  12.385  0.0646  0.1281  0.8977
 2406TIP3    H228710   1.867   6.477  12.445  0.3260 -1.0817  0.2910
 2407TIP3   OH228711   0.654   5.296  12.953 -0.1406  0.0223 -0.5007
 2407TIP3    H128712   0.632   5.373  13.005  1.3972 -0.0764  0.3363
 2407TIP3    H228713   0.580   5.237  12.964 -0.0500  0.2100  1.1988
 2408TIP3   OH228714   3.399   1.420  16.742  0.0051  0.0777  0.4149
 2408TIP3    H128715   3.389   1.479  16.816 -3.6800 -0.1935  0.2083
 2408TIP3    H228716   3.372   1.471  16.666  0.4141 -0.7336 -0.2919
 2409TIP3   OH228717   1.656   5.982   4.668  0.1617 -0.3361  0.5475
 2409TIP3    H128718   1.628   5.998   4.577  1.7450 -1.3471 -0.1405
 2409TIP3    H228719   1.576   5.955   4.713 -0.7060  0.4876 -0.4640
 2410TIP3   OH228720   0.262   6.788  13.454  0.3912  0.9642  0.0050
 2410TIP3    H128721   0.180   6.827  13.484  0.2762  0.2795  0.5969
 2410TIP3    H228722   0.318   6.789  13.532 -0.0348 -1.1662  0.3741
 2411TIP3   OH228723   2.856   3.255   1.218  0.1003  0.0399  0.4255
 2411TIP3    H128724   2.844   3.194   1.291 -0.1460 -0.3586  0.0503
 2411TIP3    H228725   2.771   3.256   1.173 -0.2387  1.4961  1.0765
 2412TIP3   OH228726   3.352   3.565  13.201 -0.0532  0.0685  0.8730
 2412TIP3    H128727   3.426   3.507  13.185 -1.2981 -1.2733 -0.2269
 2412TIP3    H228728   3.299   3.518  13.266  0.7760  1.6850  2.7551
 2413TIP3   OH228729   3.907   0.813   2.805  0.6304  0.3642 -0.5869
 2413TIP3    H128730   3.998   0.817   2.835 -0.1925  0.8915  1.9997
 2413TIP3    H228731   3.910   0.764   2.723  3.0993 -0.7350  0.1238
 2414TIP3   OH228732   0.973   3.835  12.077 -0.0517 -0.3607 -0.8644
 2414TIP3    H128733   0.893   3.805  12.034 -0.6128 -0.4522  0.2170
 2414TIP3    H228734   1.006   3.906  12.022 -0.5183 -0.7587 -1.6606
 2415TIP3   OH228735   4.196   3.203   2.684  0.1718 -0.0027 -0.3417
 2415TIP3    H128736   4.264   3.150   2.725  0.5543  0.2367 -0.6657
 2415TIP3    H228737   4.170   3.152   2.607  0.8179  0.4672 -0.8717
 2416TIP3   OH228738   1.581   0.145   5.385 -0.2647  0.0459 -0.4434
 2416TIP3    H128739   1.666   0.164   5.345  0.8522  0.0626  1.8470
 2416TIP3    H228740   1.546   0.231   5.410 -1.0356  0.0511 -1.5135
 2417TIP3   OH228741   6.262   1.079   4.224  0.3148  0.0432  0.0713
 2417TIP3    H128742   6.168   1.071   4.241  0.3457 -0.5835 -0.0209
 2417TIP3    H228743   6.296   1.132   4.295 -0.3423  1.4512 -0.6427
 2418TIP3   OH228744   5.019   5.713  12.058 -0.0122  0.2517 -0.4312
 2418TIP3    H128745   4.956   5.784  12.063  0.3215  0.5339 -0.1083
 2418TIP3    H228746   5.061   5.723  11.972  1.0294  1.3187  0.1785
 2419TIP3   OH228747   2.699   1.951   1.488 -0.4438 -0.3002  0.4678
 2419TIP3    H128748   2.792   1.944   1.510  0.3624 -0.1539 -2.6545
 2419TIP3    H228749   2.676   1.867   1.450 -1.7304 -0.4853  1.6009
 2420TIP3   OH228750   2.095   1.546   1.680  0.3282 -0.1587 -0.0865
 2420TIP3    H128751   2.101   1.642   1.673  0.4825 -0.2035 -0.5645
 2420TIP3    H228752   2.047   1.520   1.602 -1.0166 -0.3390  0.7873
 2421TIP3   OH228753   4.264   0.763  12.599 -0.0128  0.3199  0.1786
 2421TIP3    H128754   4.291   0.672  12.614 -2.2050 -0.3065  0.5373
 2421TIP3    H228755   4.203   0.758  12.525  1.6952  1.8370 -1.3776
 2422TIP3   OH228756   2.730   4.649   2.538  0.4511  0.0798  0.0124
 2422TIP3    H128757   2.825   4.655   2.529  0.3973  0.3713 -0.3864
 2422TIP3    H228758   2.699   4.628   2.450  0.2061 -0.8160  0.3074
 2423TIP3   OH228759   0.556   4.420   4.398 -1.0089 -0.0257 -0.6315
 2423TIP3    H128760   0.524   4.340   4.441 -0.1206 -1.0418 -1.8298
 2423TIP3    H228761   0.483   4.449   4.344 -1.6512  0.4866  0.4996
 2424TIP3   OH228762   4.992   2.282  10.935 -0.0824 -0.3171  0.2263
 2424TIP3    H128763   4.940   2.209  10.970  0.6506 -0.9911 -0.0822
 2424TIP3    H228764   5.004   2.260  10.843 -1.2227  0.9962 -0.2634
 2425TIP3   OH228765   5.392   6.082   0.333 -0.2791 -0.8156  0.0506
 2425TIP3    H128766   5.453   6.137   0.284 -0.1425 -0.5727  0.4872
 2425TIP3    H228767   5.448   6.025   0.386 -0.4139  0.4449  1.6035
 2426TIP3   OH228768   3.298   4.630  13.138 -0.2474  0.8988  0.1649
 2426TIP3    H128769   3.204   4.613  13.145 -0.1839 -0.6166 -1.9181
 2426TIP3    H228770   3.314   4.638  13.044  1.7906  0.5657  0.4464
 2427TIP3   OH228771   1.545   2.264   2.855 -0.2450  0.0700 -0.6323
 2427TIP3    H128772   1.467   2.308   2.888 -1.7207 -2.8843  0.0249
 2427TIP3    H228773   1.547   2.286   2.762 -2.6744 -0.9162 -0.9585
 2428TIP3   OH228774   4.171   3.887  10.846  0.0361  0.7150  0.2171
 2428TIP3    H128775   4.262   3.897  10.817  0.4577 -0.3627  1.1803
 2428TIP3    H228776   4.130   3.969  10.820  0.6146  0.1433 -2.6724
 2429TIP3   OH228777   5.527   1.551  16.720  0.0316  0.1032  0.4821
 2429TIP3    H128778   5.563   1.613  16.658 -3.1909  1.4947 -0.1248
 2429TIP3    H228779   5.492   1.480  16.666 -4.3292  2.1260  0.3898
 2430TIP3   OH228780   1.016   4.542   1.859 -0.2201  0.1723  0.0151
 2430TIP3    H128781   1.030   4.636   1.848  0.8961  0.0340  0.1613
 2430TIP3    H228782   0.995   4.511   1.771  0.7333  0.3512 -0.2853
 2431TIP3   OH228783   5.176   5.948  16.020 -0.7455 -0.7220  0.3961
 2431TIP3    H128784   5.120   5.890  15.969  1.2744  0.2631 -3.1371
 2431TIP3    H228785   5.231   5.889  16.072 -1.9708 -1.7878  0.5148
 2432TIP3   OH228786   1.259   1.636  16.494  0.3253  0.7087 -0.1634
 2432TIP3    H128787   1.188   1.607  16.552  1.6203  0.6005  1.4196
 2432TIP3    H228788   1.314   1.558  16.484  0.2619  0.8149 -1.3173
 2433TIP3   OH228789   4.737   5.636   0.202  0.3075  0.4273 -0.6336
 2433TIP3    H128790   4.760   5.689   0.278  2.0114  1.1958 -1.6535
 2433TIP3    H228791   4.660   5.586   0.230 -0.0354  1.8464  1.0618
 2434TIP3   OH228792   6.218   3.494   0.470 -0.2337  0.5376  0.5654
 2434TIP3    H128793   6.246   3.416   0.518 -0.7805 -0.8059 -1.2285
 2434TIP3    H228794   6.294   3.517   0.416 -0.9438 -0.3069 -0.8174
 2435TIP3   OH228795   3.294   3.329   1.601  0.9789  0.0357  0.1559
 2435TIP3    H128796   3.315   3.326   1.694 -0.5150  0.1662  0.5135
 2435TIP3    H228797   3.300   3.239   1.571  1.3512 -0.0198  0.3961
 2436TIP3   OH228798   0.771   4.476  12.913 -0.4736 -0.2592 -0.0448
 2436TIP3    H128799   0.718   4.546  12.949  0.2651  1.2047 -1.7609
 2436TIP3    H228800   0.751   4.476  12.820  0.6487 -1.3606 -0.2962
 2437TIP3   OH228801   1.516   1.596  14.693 -0.2068 -0.4347  0.0789
 2437TIP3    H128802   1.578   1.646  14.746  1.1028 -1.1078 -0.7923
 2437TIP3    H228803   1.471   1.540  14.756  0.1729 -0.0440  0.7081
 2438TIP3   OH228804   1.706   4.047  16.127  0.1005  0.5814  0.1361
 2438TIP3    H128805   1.661   4.106  16.066  1.3368  1.0813 -0.3080
 2438TIP3    H228806   1.699   4.091  16.212 -0.3897  0.5819  0.0924
 2439TIP3   OH228807   3.769   5.416  14.268  0.3920  0.1759 -0.2026
 2439TIP3    H128808   3.863   5.433  14.266  0.4202  0.2034  0.9042
 2439TIP3    H228809   3.743   5.412  14.176  1.5105 -0.0322 -0.5132
 2440TIP3   OH228810   4.487   2.224  15.510  0.1494  0.3709  0.7197
 2440TIP3    H128811   4.549   2.283  15.553  2.1678  0.3913 -2.0950
 2440TIP3    H228812   4.542   2.153  15.476 -1.1768  0.9885 -2.8518
 2441TIP3   OH228813   4.791   0.033  14.899 -0.2978  0.0643 -0.0052
 2441TIP3    H128814   4.790   0.124  14.871 -0.3009 -0.0773 -0.4546
 2441TIP3    H228815   4.811  -0.017  14.820  2.2456 -0.1425  0.7251
 2442TIP3   OH228816   2.739   3.949  16.793  0.0926 -0.2128  0.2812
 2442TIP3    H128817   2.791   4.029  16.792  0.3458 -0.3665  0.8550
 2442TIP3    H228818   2.648   3.980  16.797  0.1610  0.0491 -0.1458
 2443TIP3   OH228819   3.517   3.125  15.391 -0.3660 -0.3313 -0.2763
 2443TIP3    H128820   3.550   3.207  15.354  0.5512  0.5266  2.3867
 2443TIP3    H228821   3.495   3.072  15.314  0.0084  1.9906 -2.0469
 2444TIP3   OH228822   3.950   6.277   2.875  0.2193 -0.6174  0.2097
 2444TIP3    H128823   4.022   6.225   2.911  1.1130 -1.5103 -2.6828
 2444TIP3    H228824   3.974   6.291   2.784 -2.9841 -0.4019 -0.6720
 2445TIP3   OH228825   6.508   5.271   0.307 -1.1222 -0.1491  0.0449
 2445TIP3    H128826   6.548   5.353   0.334 -1.4131 -0.0846  0.2666
 2445TIP3    H228827   6.559   5.244   0.230 -1.8181  0.8634 -0.7788
 2446TIP3   OH228828   5.028   3.835   0.758 -0.0529 -0.4320 -0.2754
 2446TIP3    H128829   5.049   3.900   0.824  0.0144 -0.1332 -0.5878
 2446TIP3    H228830   5.035   3.751   0.803  1.8239 -0.3517 -0.3627
 2447TIP3   OH228831   1.905   1.033  14.728 -0.2778  0.1976  0.5108
 2447TIP3    H128832   2.000   1.021  14.733 -0.3081 -0.2304  0.0777
 2447TIP3    H228833   1.869   0.958  14.775 -0.4041  0.2903  0.5621
 2448TIP3   OH228834   0.414   4.853  13.001  0.9125  0.6633  0.4393
 2448TIP3    H128835   0.415   4.901  13.084 -0.4674  0.9175  0.3335
 2448TIP3    H228836   0.398   4.762  13.026  1.1925  0.6317  0.5006
 2449TIP3   OH228837   3.932   0.968  15.694 -0.4685 -0.8517  0.0129
 2449TIP3    H128838   3.923   0.912  15.617  0.2878 -1.0955  0.0963
 2449TIP3    H228839   3.868   0.934  15.756 -0.2675 -1.3937 -0.0727
 2450TIP3   OH228840   0.738   5.719  17.215 -0.7743 -0.0906  0.0006
 2450TIP3    H128841   0.816   5.748  17.262 -0.7223  1.0686 -0.7985
 2450TIP3    H228842   0.673   5.705  17.284 -0.5053  0.9913  0.4779
 2451TIP3   OH228843   2.464   5.787  16.011  0.2824 -0.2491 -0.4070
 2451TIP3    H128844   2.547   5.830  15.990 -0.3569  0.0687 -2.4212
 2451TIP3    H228845   2.406   5.858  16.038  0.3283 -0.3277 -0.0990
 2452TIP3   OH228846   0.337   2.161  14.262  0.3830 -0.0933 -0.1489
 2452TIP3    H128847   0.277   2.211  14.206  0.4471  0.7920  0.5615
 2452TIP3    H228848   0.350   2.216  14.339 -1.5475 -2.3068  1.8456
 2453TIP3   OH228849   0.165   4.707  15.029 -0.0592 -0.4496  0.2810
 2453TIP3    H128850   0.150   4.793  14.989 -2.4615 -1.2871 -0.7409
 2453TIP3    H228851   0.224   4.663  14.967 -2.1308 -0.9973 -1.3692
 2454TIP3   OH228852   0.779   5.145   2.599  0.2442 -0.2118  0.0776
 2454TIP3    H128853   0.850   5.156   2.536 -0.3859 -0.5813 -0.7080
 2454TIP3    H228854   0.744   5.058   2.582  0.6109 -0.6575  1.5139
 2455TIP3   OH228855   0.432   4.993  11.361  0.2379 -0.7108 -0.2677
 2455TIP3    H128856   0.394   5.013  11.447  0.7524 -0.0786 -0.1820
 2455TIP3    H228857   0.358   4.999  11.300 -0.1332 -1.1845  0.1317
 2456TIP3   OH228858   0.022   1.412  13.386 -0.3098  0.2466 -0.4253
 2456TIP3    H128859  -0.016   1.347  13.326  0.7367 -1.3362  0.5956
 2456TIP3    H228860   0.052   1.361  13.461 -0.7623  2.0997  1.0529
 2457TIP3   OH228861   0.796   0.002   1.583 -0.3758  0.2361  0.0361
 2457TIP3    H128862   0.746   0.026   1.662 -2.9009 -2.0079 -0.8097
 2457TIP3    H228863   0.794  -0.094   1.582  0.2821  0.2342 -2.3492
 2458TIP3   OH228864   5.099   0.046  14.824 -0.7079 -0.2324  0.4962
 2458TIP3    H128865   5.165   0.037  14.756 -2.7537 -1.1020 -1.4531
 2458TIP3    H228866   5.095   0.140  14.841  0.0002 -0.0214 -0.4511
 2459TIP3   OH228867   5.543   2.437   1.892 -0.0707 -0.1616  0.0867
 2459TIP3    H128868   5.521   2.408   1.981 -0.2850  1.5686  0.6091
 2459TIP3    H228869   5.574   2.527   1.903 -0.7715  0.3082 -1.6780
 2460TIP3   OH228870   4.003   3.699  15.150 -0.1966  0.1138  0.0131
 2460TIP3    H128871   4.073   3.634  15.150  0.6797  1.0091 -1.9421
 2460TIP3    H228872   4.028   3.761  15.219 -0.0236 -0.5570  0.5586
 2461TIP3   OH228873   6.204   3.577  13.077  0.1738  0.1745 -0.1976
 2461TIP3    H128874   6.202   3.627  13.158  0.8443  0.3038 -0.2554
 2461TIP3    H228875   6.149   3.502  13.093 -1.0446  1.0582 -0.1899
 2462TIP3   OH228876   3.782   0.933   3.189  0.2608  0.3002 -0.9161
 2462TIP3    H128877   3.863   0.946   3.139  0.7543 -1.3277 -0.5742
 2462TIP3    H228878   3.742   0.856   3.149 -0.8891  0.8316 -0.7821
 2463TIP3   OH228879   3.444   1.358  15.098 -0.1995 -0.2517  0.1676
 2463TIP3    H128880   3.392   1.278  15.089 -2.3064  1.0187  0.7632
 2463TIP3    H228881   3.448   1.374  15.192 -0.0187  0.4962  0.0371
 2464TIP3   OH228882   4.365   1.766  12.251  0.0174  0.1855 -0.7037
 2464TIP3    H128883   4.348   1.693  12.310 -0.0061  0.1195 -0.7932
 2464TIP3    H228884   4.440   1.737  12.198 -1.2871 -0.6121 -2.1518
 2465TIP3   OH228885   4.028   1.051   0.900 -0.3540 -0.2175 -0.1142
 2465TIP3    H128886   4.000   1.120   0.960 -1.3098 -0.0679 -0.7264
 2465TIP3    H228887   4.061   1.098   0.823  1.5500 -0.3910  0.5668
 2466TIP3   OH228888   5.916   1.177  13.352  0.2530 -0.8629 -0.2214
 2466TIP3    H128889   5.895   1.169  13.259  0.8600  1.4601 -0.5826
 2466TIP3    H228890   5.834   1.202  13.393  0.6250  1.0155 -0.5805
 2467TIP3   OH228891   0.283   4.282  11.406  0.1269  0.5369 -0.2964
 2467TIP3    H128892   0.326   4.295  11.322 -0.2320  0.0039 -0.5649
 2467TIP3    H228893   0.281   4.369  11.446  0.7361  0.7042 -0.6256
 2468TIP3   OH228894   3.484   2.105  14.990 -0.0090 -0.5083 -0.4333
 2468TIP3    H128895   3.425   2.166  15.035  1.5453  0.6084  0.1483
 2468TIP3    H228896   3.427   2.054  14.933 -1.7534 -0.5801  1.3168
 2469TIP3   OH228897   0.086   3.605  17.231 -0.1669 -0.4649 -0.0996
 2469TIP3    H128898   0.167   3.655  17.235 -0.5253  0.1321 -0.1404
 2469TIP3    H228899   0.049   3.612  17.319  0.6752 -2.1949  0.4040
 2470TIP3   OH228900   4.127   1.790  15.759  0.1340  0.1715 -0.2585
 2470TIP3    H128901   4.165   1.714  15.803  1.3861  0.9335  0.0083
 2470TIP3    H228902   4.183   1.804  15.682 -0.2270  0.6866 -0.4324
 2471TIP3   OH228903   0.977   0.968   4.695 -0.3483 -0.2935 -0.2238
 2471TIP3    H128904   0.981   0.932   4.783 -1.3090  1.2222  0.4640
 2471TIP3    H228905   0.920   1.045   4.703 -0.2262  0.0225 -2.1027
 2472TIP3   OH228906   1.969   3.499   1.340  0.3664 -0.0011 -0.3297
 2472TIP3    H128907   1.963   3.456   1.255 -0.2264 -0.5468 -0.0155
 2472TIP3    H228908   1.878   3.523   1.361  0.6079  0.7816 -0.1919
 2473TIP3   OH228909   0.089   6.120   6.865 -0.1403 -0.4111 -0.6045
 2473TIP3    H128910   0.068   6.202   6.911 -1.0505 -1.1691  0.3628
 2473TIP3    H228911   0.004   6.076   6.857  0.2982 -1.1048 -1.4293
 2474TIP3   OH228912   1.557   4.770  13.366  0.0955 -0.1608  0.5461
 2474TIP3    H128913   1.511   4.829  13.306 -0.8026  1.2278  2.5287
 2474TIP3    H228914   1.626   4.823  13.404 -0.2415 -0.5951  1.7978
 2475TIP3   OH228915   6.695   0.839   2.616 -0.0550 -0.2702 -0.6292
 2475TIP3    H128916   6.790   0.845   2.602 -0.2247  0.6808 -1.5201
 2475TIP3    H228917   6.674   0.747   2.602  0.7278 -0.4642 -0.5468
 2476TIP3   OH228918   3.167   5.738   4.531  0.4919  0.4174 -0.0803
 2476TIP3    H128919   3.073   5.719   4.537  0.4290  1.3802  2.8718
 2476TIP3    H228920   3.182   5.805   4.598  3.2074  0.6526 -0.8670
 2477TIP3   OH228921   5.824   0.566   0.154  0.3866 -0.6417  0.2886
 2477TIP3    H128922   5.813   0.543   0.246 -0.9142 -0.2899  0.2395
 2477TIP3    H228923   5.881   0.644   0.156 -0.0216 -0.3498  0.8314
 2478TIP3   OH228924   5.594   4.159   0.722 -0.0982 -0.5895  0.3487
 2478TIP3    H128925   5.568   4.245   0.755 -0.2667 -0.1549 -0.9024
 2478TIP3    H228926   5.572   4.161   0.629  4.6168 -0.1094 -0.8499
 2479TIP3   OH228927   5.234   4.765  12.490  0.6333 -0.5156  0.1432
 2479TIP3    H128928   5.160   4.710  12.517  0.4024 -0.5032 -0.4675
 2479TIP3    H228929   5.311   4.710  12.506  0.6343  0.1266  2.4916
 2480TIP3   OH228930   0.019   3.117  15.459 -0.2296 -0.3274  0.0130
 2480TIP3    H128931   0.037   3.199  15.413  0.0209 -0.1211  0.4718
 2480TIP3    H228932  -0.057   3.136  15.514 -1.7856 -1.1619 -1.8127
 2481TIP3   OH228933   3.861   0.036   0.883 -0.7449  0.0231 -0.0110
 2481TIP3    H128934   3.786  -0.023   0.895 -0.4865 -0.1272  0.9266
 2481TIP3    H228935   3.931  -0.022   0.851 -0.8951  0.0800 -0.4462
 2482TIP3   OH228936   2.902   1.283  13.127 -0.4291  0.0880 -0.1452
 2482TIP3    H128937   2.975   1.322  13.078 -1.0358  0.7850 -0.5038
 2482TIP3    H228938   2.943   1.216  13.181  0.3415 -0.2136 -1.0956
 2483TIP3   OH228939   0.360   1.486  12.687  0.2663  0.4498 -0.7975
 2483TIP3    H128940   0.269   1.484  12.718  0.6747  1.1473  0.4854
 2483TIP3    H228941   0.401   1.556  12.737  1.3636  0.5633 -1.8267
 2484TIP3   OH228942   5.691   1.743  13.496  0.2700 -0.5549 -0.1227
 2484TIP3    H128943   5.632   1.815  13.472  0.2084 -0.8410 -0.8490
 2484TIP3    H228944   5.656   1.709  13.578  0.3594  0.3170  0.2778
 2485TIP3   OH228945   2.073   3.526   0.473 -0.5940  0.0342 -0.0814
 2485TIP3    H128946   2.114   3.466   0.535  0.9111  2.3985  1.3150
 2485TIP3    H228947   1.987   3.488   0.456 -1.3028 -0.4449  3.9256
 2486TIP3   OH228948   4.089   1.526  12.898 -0.0759  0.0206 -0.2605
 2486TIP3    H128949   4.062   1.617  12.906  0.2768  0.1054  0.0003
 2486TIP3    H228950   4.183   1.527  12.917 -0.8608 -1.0018  4.1180
 2487TIP3   OH228951   0.799   4.385   2.002 -0.2028  0.1676 -0.2763
 2487TIP3    H128952   0.830   4.475   2.009 -0.9956  0.4446 -0.3334
 2487TIP3    H228953   0.846   4.338   2.071  0.0335  0.6752 -0.0909
 2488TIP3   OH228954   4.874   3.747   2.919 -0.5789 -0.3006 -0.0988
 2488TIP3    H128955   4.864   3.835   2.957 -0.9071 -0.9529  1.3713
 2488TIP3    H228956   4.805   3.695   2.961  0.6206 -1.6468  0.2315
 2489TIP3   OH228957   5.635   0.822  15.060 -0.7164  0.1664  0.2004
 2489TIP3    H128958   5.557   0.766  15.066  0.5717 -1.9478 -1.9223
 2489TIP3    H228959   5.701   0.778  15.114 -0.5171  1.1528  0.7784
 2490TIP3   OH228960   1.404   3.685   5.832 -0.1891  0.2287 -0.0398
 2490TIP3    H128961   1.332   3.743   5.808  1.3455  2.1245 -0.1392
 2490TIP3    H228962   1.458   3.736   5.893  0.0048 -1.8804  1.6433
 2491TIP3   OH228963   1.311   6.313  14.105 -0.4614 -0.0149  0.0063
 2491TIP3    H128964   1.239   6.262  14.142 -0.4715 -0.8570 -1.1641
 2491TIP3    H228965   1.274   6.400  14.088 -0.5212  0.3149  1.7403
 2492TIP3   OH228966   0.140   3.575   2.387  0.0796  0.7738  0.0399
 2492TIP3    H128967   0.172   3.665   2.395 -1.2656  1.2997 -0.3274
 2492TIP3    H228968   0.154   3.537   2.474  1.8580  0.9199 -0.1639
 2493TIP3   OH228969   5.018   4.707   4.737 -0.5572  0.0780 -0.4006
 2493TIP3    H128970   5.069   4.745   4.665  1.9459 -0.2171  1.1550
 2493TIP3    H228971   5.069   4.631   4.765 -1.1205  0.5842  2.1160
 2494TIP3   OH228972   3.836   0.350   0.465  0.2625 -0.5792 -0.6936
 2494TIP3    H128973   3.825   0.277   0.527 -0.9339  2.2667  2.5980
 2494TIP3    H228974   3.746   0.372   0.439  0.4884  0.8688 -0.2650
 2495TIP3   OH228975   4.161   1.361   1.898 -0.2686 -1.1589 -0.5911
 2495TIP3    H128976   4.123   1.310   1.826  0.2453 -1.5876 -0.5644
 2495TIP3    H228977   4.189   1.295   1.962 -1.5605 -0.7553  0.4388
 2496TIP3   OH228978   2.425   5.098  15.174 -0.0064  0.0084 -0.8901
 2496TIP3    H128979   2.507   5.101  15.125  0.0982  2.1961 -0.6109
 2496TIP3    H228980   2.391   5.187  15.169 -1.4631 -0.4538  0.5400
 2497TIP3   OH228981   0.269   1.909   0.190  0.4953 -0.2909  0.2477
 2497TIP3    H128982   0.303   1.831   0.234  0.4372 -1.1869 -1.2685
 2497TIP3    H228983   0.333   1.926   0.121  0.7007  1.2355  0.7901
 2498TIP3   OH228984   0.519   3.153  11.285  0.3620 -0.3626 -0.2240
 2498TIP3    H128985   0.444   3.210  11.268 -1.4227 -2.3473  0.8065
 2498TIP3    H228986   0.543   3.119  11.198  0.0744  0.2854 -0.5586
 2499TIP3   OH228987   4.557   2.604  13.659 -0.2873  0.0285 -0.2721
 2499TIP3    H128988   4.493   2.559  13.604  1.0648 -1.5772 -0.5859
 2499TIP3    H228989   4.524   2.596  13.748 -1.8033  1.4466 -0.6929
 2500TIP3   OH228990   2.291   2.665   2.304 -0.1769  0.1538 -0.1483
 2500TIP3    H128991   2.200   2.662   2.335  0.1016  0.1621  0.6688
 2500TIP3    H228992   2.324   2.577   2.317  0.0748  0.2679 -0.0152
 2501TIP3   OH228993   2.828   4.247  14.111 -0.2699 -0.7134  0.2822
 2501TIP3    H128994   2.898   4.312  14.123 -0.7254 -0.0825 -0.3794
 2501TIP3    H228995   2.873   4.167  14.084  0.3511 -0.8412  1.6816
 2502TIP3   OH228996   1.450   6.612   2.292 -0.5023 -0.1119 -0.2961
 2502TIP3    H128997   1.435   6.654   2.207  1.0543  0.6945 -0.1922
 2502TIP3    H228998   1.368   6.624   2.340 -0.6158  1.4278 -0.8612
 2503TIP3   OH228999   1.003   4.326  12.346 -0.0561  0.5326  0.0621
 2503TIP3    H129000   0.945   4.396  12.378 -1.4236 -0.8596  0.7042
 2503TIP3    H229001   0.943   4.257  12.318  1.2775 -0.2833 -0.8198
 2504TIP3   OH229002   1.867   3.096   6.348 -0.3912  0.3318 -0.0625
 2504TIP3    H129003   1.784   3.051   6.362  0.4195 -0.6095  1.9347
 2504TIP3    H229004   1.878   3.150   6.426  1.9538 -1.3326  0.8357
 2505TIP3   OH229005   1.132   2.274   1.636  0.5067 -0.2287  0.1703
 2505TIP3    H129006   1.209   2.294   1.582  1.2755 -2.2265  0.4595
 2505TIP3    H229007   1.167   2.259   1.724 -0.1165 -1.6088  0.2066
 2506TIP3   OH229008   1.737   1.602  11.155  0.5420  0.1120 -0.3509
 2506TIP3    H129009   1.733   1.589  11.250 -0.7728 -1.2353 -0.5685
 2506TIP3    H229010   1.831   1.605  11.135  0.8648 -2.0406  0.6859
 2507TIP3   OH229011   5.990   5.269  11.183  0.3766  0.0603 -0.1356
 2507TIP3    H129012   6.055   5.297  11.118  0.9926 -0.1902  0.3664
 2507TIP3    H229013   5.933   5.210  11.135  2.1381 -1.8668  0.0839
 2508TIP3   OH229014   6.286   6.728  14.603  0.3709  0.2309 -0.5305
 2508TIP3    H129015   6.232   6.714  14.526 -1.4136  1.3137  0.4867
 2508TIP3    H229016   6.286   6.823  14.616 -1.0222 -0.0515  1.9215
 2509TIP3   OH229017   2.852   5.482  13.962 -0.0355  0.5435  0.4352
 2509TIP3    H129018   2.894   5.411  13.914  0.7248  0.2298  1.5387
 2509TIP3    H229019   2.762   5.483  13.930  0.0016 -0.7996  0.2660
 2510TIP3   OH229020   3.605   4.714   2.526 -0.0945 -0.4507 -1.0096
 2510TIP3    H129021   3.669   4.698   2.595  0.7683 -0.3078 -1.7711
 2510TIP3    H229022   3.636   4.793   2.482 -2.5040  1.4832  0.5946
 2511TIP3   OH229023   0.772   2.708   0.061  0.4443  0.4251  0.4063
 2511TIP3    H129024   0.694   2.659   0.088  0.7767  0.8010  2.1502
 2511TIP3    H229025   0.838   2.641   0.044 -0.4725  0.0672 -1.8400
 2512TIP3   OH229026   6.380   5.015   5.955  0.2234 -0.7341 -0.1944
 2512TIP3    H129027   6.333   5.084   5.908  0.3691 -0.3042  0.2841
 2512TIP3    H229028   6.324   4.995   6.029  0.9179 -0.0152  0.5407
 2513TIP3   OH229029   4.133   2.268  15.797 -0.9669 -0.1255 -0.0311
 2513TIP3    H129030   4.195   2.341  15.788 -1.5718  0.4861  0.7021
 2513TIP3    H229031   4.167   2.200  15.738 -0.7107  0.9472 -1.1308
 2514TIP3   OH229032   4.731   3.291  16.395 -0.0496 -0.4395 -0.3199
 2514TIP3    H129033   4.798   3.227  16.417  2.7966  3.1679  2.1239
 2514TIP3    H229034   4.683   3.305  16.477  0.2706  1.5099 -0.4384
 2515TIP3   OH229035   3.541   3.930  14.459 -0.6767 -0.1073  0.9393
 2515TIP3    H129036   3.482   3.970  14.522 -0.0867  0.1216  1.3452
 2515TIP3    H229037   3.593   3.868  14.510 -0.6900 -0.4457  0.5514
 2516TIP3   OH229038   0.731   1.582   3.676  0.0179 -0.0719  0.2386
 2516TIP3    H129039   0.744   1.651   3.741  1.3459 -0.9034  0.8817
 2516TIP3    H229040   0.641   1.592   3.647 -0.1592  1.1774  1.2072
 2517TIP3   OH229041   3.458   0.783   2.873  0.6706  0.2234 -0.5355
 2517TIP3    H129042   3.370   0.746   2.880 -0.1245  2.0778 -0.2872
 2517TIP3    H229043   3.507   0.743   2.944 -0.6364  0.8770  0.7818
 2518TIP3   OH229044   4.138   5.925   2.434  0.2307  0.0236 -0.1678
 2518TIP3    H129045   4.179   6.006   2.402  1.5960 -0.3218  0.6750
 2518TIP3    H229046   4.047   5.932   2.407  0.4009  1.7294 -0.3364
 2519TIP3   OH229047   2.822   0.857   0.312  0.0171  0.2204  0.2316
 2519TIP3    H129048   2.827   0.791   0.381 -0.4901 -0.2081 -0.1296
 2519TIP3    H229049   2.893   0.834   0.252 -2.6598 -2.5537 -2.0629
 2520TIP3   OH229050   6.072   6.015   2.497 -0.8297  0.5345  0.5882
 2520TIP3    H129051   6.080   6.093   2.441 -0.1825 -0.6673 -1.0652
 2520TIP3    H229052   6.162   5.983   2.505 -0.9861  0.4274  1.9657
 2521TIP3   OH229053   3.310   3.903  15.974  0.4464  0.8129  0.1750
 2521TIP3    H129054   3.334   3.923  16.065 -1.4333  1.2341  0.5975
 2521TIP3    H229055   3.214   3.898  15.975  0.3912  1.1639 -1.8606
 2522TIP3   OH229056   4.658   3.249   5.167 -0.1815 -0.0861 -0.2803
 2522TIP3    H129057   4.575   3.256   5.118  0.1337 -1.2391 -0.9941
 2522TIP3    H229058   4.631   3.237   5.258 -0.7854  0.7403 -0.3393
 2523TIP3   OH229059   2.662   0.292   3.964  0.2523  0.5310  0.2383
 2523TIP3    H129060   2.742   0.239   3.960  0.2597  0.5502  0.1295
 2523TIP3    H229061   2.694   0.382   3.967  0.2788  0.4809  1.8867
 2524TIP3   OH229062   1.972   2.789   0.381  0.4037 -0.5547  0.0323
 2524TIP3    H129063   2.054   2.755   0.419  0.1012  0.7433  1.9092
 2524TIP3    H229064   1.903   2.753   0.437 -0.3524 -1.7301 -1.6068
 2525TIP3   OH229065   5.517   2.522   5.006 -0.5334  0.1278 -0.4269
 2525TIP3    H129066   5.572   2.562   4.939  0.7506 -0.6814  0.1333
 2525TIP3    H229067   5.509   2.589   5.074  1.3333 -0.4141  0.3552
 2526TIP3   OH229068   5.664   1.530  15.559 -0.2808 -0.0728  0.0644
 2526TIP3    H129069   5.689   1.622  15.569  0.0962 -0.2903  1.2108
 2526TIP3    H229070   5.715   1.499  15.484  2.6328 -0.3988  2.0801
 2527TIP3   OH229071   2.273   1.606  16.366 -0.0179 -0.3209  0.2863
 2527TIP3    H129072   2.276   1.518  16.328  2.0539 -1.0142  1.9446
 2527TIP3    H229073   2.197   1.605  16.425  0.1900 -1.1124  0.5435
 2528TIP3   OH229074   2.638   2.578  13.466  0.4512  0.2213  0.4170
 2528TIP3    H129075   2.718   2.575  13.519  0.7752  0.9386 -0.0368
 2528TIP3    H229076   2.658   2.637  13.394  0.7216 -2.3892 -1.7234
 2529TIP3   OH229077   1.550   2.947   5.685 -0.5082  0.3287  0.2601
 2529TIP3    H129078   1.548   2.852   5.699  2.0841  0.1054 -0.6255
 2529TIP3    H229079   1.477   2.980   5.738 -2.2286 -2.2514 -0.3644
 2530TIP3   OH229080   3.699   0.817  12.764  0.0273  0.3387 -0.5505
 2530TIP3    H129081   3.732   0.727  12.766 -1.5342 -0.2490 -0.2105
 2530TIP3    H229082   3.681   0.835  12.672 -0.7557 -0.1161 -0.4887
 2531TIP3   OH229083   4.094   3.792  16.582  0.2557  0.5127  0.3457
 2531TIP3    H129084   4.122   3.705  16.612 -0.5811  0.0200 -0.2662
 2531TIP3    H229085   4.173   3.830  16.543  0.0781 -0.8993 -1.4503
 2532TIP3   OH229086   4.696   0.770   0.602 -0.1665  0.8943 -0.0365
 2532TIP3    H129087   4.671   0.680   0.623 -0.4895  0.7515 -0.9787
 2532TIP3    H229088   4.612   0.815   0.589  0.0090  0.8975 -1.2751
 2533TIP3   OH229089   5.494   6.034   1.740  0.1161 -0.2357  1.0022
 2533TIP3    H129090   5.420   5.978   1.718 -1.3864  1.9333  0.3753
 2533TIP3    H229091   5.517   6.077   1.658  1.7300 -0.4627  1.3101
 2534TIP3   OH229092   6.539   2.557   4.925  0.5075 -0.6838  0.0119
 2534TIP3    H129093   6.566   2.530   4.837  0.7918  0.4596 -0.2601
 2534TIP3    H229094   6.601   2.514   4.984 -0.0476 -1.9409 -0.2975
 2535TIP3   OH229095   6.617   2.575  15.864 -0.3904 -0.1098 -0.0575
 2535TIP3    H129096   6.601   2.625  15.944 -0.7753  0.2013 -0.3236
 2535TIP3    H229097   6.610   2.640  15.793  0.3628 -0.2995 -0.3130
 2536TIP3   OH229098   1.766   5.341  12.505  0.8552 -0.2886 -0.4689
 2536TIP3    H129099   1.750   5.311  12.594  1.5573 -1.7476 -0.8250
 2536TIP3    H229100   1.729   5.273  12.449  0.7742  0.4234 -1.3008
 2537TIP3   OH229101   1.081   1.644  11.193  0.5937 -0.1687  1.0452
 2537TIP3    H129102   0.997   1.685  11.216  1.2401  1.3736  0.7571
 2537TIP3    H229103   1.122   1.706  11.132  0.6877 -2.2700 -1.1029
 2538TIP3   OH229104   1.831   3.524   4.207 -0.3072  0.5426 -0.2801
 2538TIP3    H129105   1.818   3.485   4.293 -1.7718 -0.1213 -0.7838
 2538TIP3    H229106   1.744   3.557   4.182  0.0380  0.4669 -1.6145
 2539TIP3   OH229107   2.082   4.064   3.317 -0.0354  0.1392 -0.2226
 2539TIP3    H129108   2.088   4.125   3.391  0.9817 -0.1679 -0.0489
 2539TIP3    H229109   2.173   4.041   3.297 -0.4112 -1.3598 -0.2657
 2540TIP3   OH229110   3.140   5.121  10.564  0.2277 -0.2803 -0.4496
 2540TIP3    H129111   3.074   5.072  10.614 -0.0354 -0.1108 -0.6311
 2540TIP3    H229112   3.177   5.058  10.503  0.5938 -0.5074 -0.0008
 2541TIP3   OH229113   2.775   4.228   6.075 -0.2689  0.4645 -0.2473
 2541TIP3    H129114   2.869   4.244   6.079 -0.0839 -0.5620 -0.2278
 2541TIP3    H229115   2.738   4.289   6.139  0.5409 -0.2328  0.9047
 2542TIP3   OH229116   3.112   0.811   6.086 -0.5572 -0.3180  0.2682
 2542TIP3    H129117   3.050   0.873   6.049 -1.3079 -1.5173 -0.5251
 2542TIP3    H229118   3.110   0.829   6.180 -0.8212  0.7903  0.0608
 2543TIP3   OH229119   0.278   3.693   0.954  0.1556  0.4540 -0.2070
 2543TIP3    H129120   0.192   3.651   0.956  0.4609 -0.1510  2.2936
 2543TIP3    H229121   0.338   3.623   0.931 -0.1772  1.2520 -3.6754
 2544TIP3   OH229122   2.717   2.388   2.062 -0.0878 -0.6196  0.1422
 2544TIP3    H129123   2.790   2.349   2.015 -0.7113  0.2803 -1.6506
 2544TIP3    H229124   2.754   2.465   2.104 -0.1576  0.3282 -1.4850
 2545TIP3   OH229125   6.369   0.888  11.358  0.7013  0.5059 -0.3269
 2545TIP3    H129126   6.303   0.956  11.343  1.5411  1.1715 -1.0369
 2545TIP3    H229127   6.330   0.809  11.322 -0.8193  0.3224  1.6560
 2546TIP3   OH229128   5.493   2.277   0.438  0.0307  0.0956 -0.1761
 2546TIP3    H129129   5.470   2.299   0.528  1.3609 -1.5075  0.5854
 2546TIP3    H229130   5.556   2.344   0.412 -0.6046  0.7530 -0.0410
 2547TIP3   OH229131   1.126   6.278   3.620 -0.0734 -0.3001  0.1274
 2547TIP3    H129132   1.096   6.213   3.556  0.3018  0.5939 -0.9696
 2547TIP3    H229133   1.161   6.226   3.693 -2.8444 -1.3527  0.7713
 2548TIP3   OH229134   0.451   0.787   0.661 -0.0977  0.6486 -0.3592
 2548TIP3    H129135   0.428   0.760   0.749  0.8211 -0.1594 -0.3607
 2548TIP3    H229136   0.546   0.782   0.658 -0.1909 -0.8784 -1.8750
 2549TIP3   OH229137   4.352   1.856  15.532 -0.6624  0.3845  0.0132
 2549TIP3    H129138   4.287   1.837  15.465  0.2831 -0.6935 -0.6207
 2549TIP3    H229139   4.435   1.862  15.484 -0.3090  2.0011  0.7577
 2550TIP3   OH229140   0.533   4.972   5.268  0.1556 -0.5475 -0.0462
 2550TIP3    H129141   0.589   5.050   5.269 -0.4137 -0.1268 -0.8719
 2550TIP3    H229142   0.587   4.904   5.308  1.1223 -0.0482 -0.4755
 2551TIP3   OH229143   0.145   5.753   5.748 -0.1533 -0.0588 -0.0214
 2551TIP3    H129144   0.064   5.778   5.703  0.5489  1.5581 -0.4104
 2551TIP3    H229145   0.214   5.769   5.684  0.5085 -1.0616  0.4460
 2552TIP3   OH229146   2.953   1.793  12.181  0.7202  0.4441  0.1022
 2552TIP3    H129147   2.898   1.864  12.215  0.8160  0.8362 -0.5374
 2552TIP3    H229148   3.026   1.839  12.139  0.0786  0.0061 -1.5243
 2553TIP3   OH229149   2.807   4.619  15.672  0.3936  0.5090 -0.0768
 2553TIP3    H129150   2.889   4.582  15.704 -1.4146 -3.5041  0.3019
 2553TIP3    H229151   2.775   4.674  15.743  2.3134  1.4238  0.1015
 2554TIP3   OH229152   3.779   1.109  17.098 -0.2731  0.1606  0.0285
 2554TIP3    H129153   3.833   1.075  17.027 -1.1854 -1.0523 -0.0812
 2554TIP3    H229154   3.812   1.065  17.177 -0.5493  0.0479  0.0799
 2555TIP3   OH229155   2.682   3.518  15.178 -0.5188 -0.3473 -0.6125
 2555TIP3    H129156   2.755   3.564  15.218  0.6962 -1.1318 -1.8954
 2555TIP3    H229157   2.690   3.536  15.084 -1.8409 -0.6254 -0.8028
 2556TIP3   OH229158   0.965   6.772   3.228  0.0274  0.2360 -0.2231
 2556TIP3    H129159   0.992   6.756   3.137  0.1461  0.8555 -0.2953
 2556TIP3    H229160   0.873   6.743   3.230 -0.3053  1.2262 -0.8196
 2557TIP3   OH229161   5.710   3.118   1.346 -0.2563 -0.3001  0.1573
 2557TIP3    H129162   5.655   3.088   1.273 -0.8200 -0.2444  0.5544
 2557TIP3    H229163   5.797   3.129   1.308 -0.7886  0.7799 -0.7592
 2558TIP3   OH229164   0.034   6.584   1.369 -0.0126 -0.1993  0.6203
 2558TIP3    H129165   0.079   6.664   1.341 -3.1136  1.8517  1.1856
 2558TIP3    H229166   0.005   6.543   1.288  0.2920  0.0301  0.3934
 2559TIP3   OH229167   5.143   1.899   2.094  0.5694 -0.3616 -0.1039
 2559TIP3    H129168   5.180   1.810   2.090  0.4214 -0.3747 -1.0523
 2559TIP3    H229169   5.053   1.886   2.124  0.4432 -0.5572 -0.5698
 2560TIP3   OH229170   2.802   4.745   0.222 -0.5809 -0.1967  0.0538
 2560TIP3    H129171   2.815   4.655   0.192 -0.0068  0.4022 -1.5404
 2560TIP3    H229172   2.885   4.768   0.264 -0.3627 -0.0643 -0.4479
 2561TIP3   OH229173   3.332   2.489  11.442 -0.0942  0.2660  0.9266
 2561TIP3    H129174   3.409   2.451  11.484 -0.3178 -0.3842  0.7430
 2561TIP3    H229175   3.364   2.572  11.406  1.0499 -0.9388 -0.9366
 2562TIP3   OH229176   5.182   6.495  13.510  0.6994 -0.2668  0.3120
 2562TIP3    H129177   5.128   6.565  13.545  2.4792  0.6227  1.3676
 2562TIP3    H229178   5.185   6.511  13.415 -2.0804 -1.2159  0.0368
 2563TIP3   OH229179   4.170   3.897   0.335 -0.2784  0.4278  0.0256
 2563TIP3    H129180   4.082   3.935   0.327  0.2039  1.3896 -0.8450
 2563TIP3    H229181   4.178   3.841   0.258  0.1527  0.9407 -0.3085
 2564TIP3   OH229182   5.822   6.215  17.133 -0.2433  0.2063 -0.3031
 2564TIP3    H129183   5.839   6.216  17.038  3.2964 -0.7298  0.2761
 2564TIP3    H229184   5.857   6.298  17.164 -2.1635  0.8847  0.1052
 2565TIP3   OH229185   2.952   3.463  16.742 -0.1123 -0.1916 -0.2774
 2565TIP3    H129186   2.908   3.545  16.763  0.1466 -0.3223  0.7641
 2565TIP3    H229187   2.990   3.433  16.824 -1.3028 -2.0351 -0.3610
 2566TIP3   OH229188   1.084   5.862   4.585  0.0977  0.1786  0.9299
 2566TIP3    H129189   1.109   5.787   4.640  0.4951  0.0236  0.5412
 2566TIP3    H229190   1.070   5.825   4.498 -1.4544  0.2761  1.1258
 2567TIP3   OH229191   4.746   1.724   1.780  0.7358  0.0104  0.4063
 2567TIP3    H129192   4.688   1.678   1.841  0.1885 -0.9482 -0.8162
 2567TIP3    H229193   4.733   1.679   1.696  2.7789  0.1909 -0.0353
 2568TIP3   OH229194   5.093   2.443  15.003  0.2801 -0.1204  0.2916
 2568TIP3    H129195   5.075   2.460  14.910  1.2546 -1.3437 -0.1366
 2568TIP3    H229196   5.035   2.370  15.025  0.2012  0.0328  0.6006
 2569TIP3   OH229197   4.452   4.802  13.011  0.3216 -0.7511  0.2001
 2569TIP3    H129198   4.450   4.888  13.052  2.0809 -0.5540 -0.1075
 2569TIP3    H229199   4.542   4.791  12.982 -0.0986 -2.3251 -0.5654
 2570TIP3   OH229200   0.567   5.167  15.650  0.4651  0.3363 -0.3354
 2570TIP3    H129201   0.522   5.206  15.575  1.9637 -0.2249 -1.5585
 2570TIP3    H229202   0.498   5.149  15.714 -1.0604 -0.7221 -2.2392
 2571TIP3   OH229203   6.497   5.064   4.672 -0.7450 -0.2712 -0.6488
 2571TIP3    H129204   6.467   4.974   4.685 -1.1430  0.3793  3.2143
 2571TIP3    H229205   6.448   5.095   4.596 -1.5428 -2.8831 -1.2374
 2572TIP3   OH229206   2.757   5.117   2.048 -0.4713  0.8705  0.3927
 2572TIP3    H129207   2.820   5.185   2.072 -0.5665  1.6773 -1.5123
 2572TIP3    H229208   2.799   5.035   2.074  0.2235  1.5806  1.5119
 2573TIP3   OH229209   2.268   1.603  12.172  0.0288 -0.8301  0.1867
 2573TIP3    H129210   2.304   1.651  12.097 -0.3215  0.5273  0.8716
 2573TIP3    H229211   2.201   1.661  12.208 -1.8698 -2.7155 -0.1850
 2574TIP3   OH229212   5.768   3.913  12.418  0.5028  0.0643 -0.3577
 2574TIP3    H129213   5.738   3.948  12.334 -1.0406 -0.0663  0.1234
 2574TIP3    H229214   5.729   3.970  12.484 -0.3294 -1.2845  0.3479
 2575TIP3   OH229215   2.778   0.916   3.109 -0.0996 -0.4843 -0.0694
 2575TIP3    H129216   2.845   0.965   3.157 -0.4808 -0.4557  0.4449
 2575TIP3    H229217   2.730   0.982   3.060  0.1483 -0.4848 -0.3100
 2576TIP3   OH229218   5.451   6.249  16.179  0.5232  0.3615  0.9884
 2576TIP3    H129219   5.479   6.272  16.090  0.5551 -0.9620  0.6459
 2576TIP3    H229220   5.531   6.251  16.231  0.7518 -0.3023  0.6703
 2577TIP3   OH229221   0.514   1.986   1.270  0.6352  1.0392 -0.4198
 2577TIP3    H129222   0.455   1.939   1.329  2.8595 -2.7691 -1.0889
 2577TIP3    H229223   0.457   2.047   1.223 -2.7974 -2.3206 -0.8916
 2578TIP3   OH229224   2.864   3.386   1.792  0.8075  0.1953  0.9038
 2578TIP3    H129225   2.915   3.347   1.720  0.0626 -1.9370  1.4792
 2578TIP3    H229226   2.901   3.473   1.803  1.0214  0.5153 -1.9737
 2579TIP3   OH229227   0.081   3.386  15.064 -0.3629 -0.1274 -0.3298
 2579TIP3    H129228   0.035   3.458  15.021  0.0125 -0.1833 -0.8333
 2579TIP3    H229229   0.011   3.329  15.095 -0.6519  0.2207 -0.3361
 2580TIP3   OH229230   2.136   2.467  16.822 -0.0335  0.7370  0.2697
 2580TIP3    H129231   2.112   2.543  16.874  2.6984  1.7683  0.1313
 2580TIP3    H229232   2.214   2.432  16.867  0.2885 -0.4056 -1.1464
 2581TIP3   OH229233   6.805   3.746   5.630 -0.3185  0.0655  0.0609
 2581TIP3    H129234   6.726   3.795   5.654  0.7873  1.4979  0.8836
 2581TIP3    H229235   6.872   3.814   5.620  0.6892 -1.1019 -1.0884
 2582TIP3   OH229236   1.434   5.497   2.437  0.0522 -0.3504  0.2529
 2582TIP3    H129237   1.436   5.433   2.366 -0.2453  0.9261 -0.9340
 2582TIP3    H229238   1.525   5.523   2.449  0.4216 -2.3550  2.0226
 2583TIP3   OH229239   3.606   0.618  13.000  0.0501 -0.2166  0.0818
 2583TIP3    H129240   3.631   0.707  13.024 -1.0139  0.3406 -0.7945
 2583TIP3    H229241   3.649   0.603  12.915  1.5033 -1.1240  0.9665
 2584TIP3   OH229242   6.070   4.002  15.046 -0.1107  0.4035  0.5403
 2584TIP3    H129243   6.062   4.016  15.141  0.1030 -1.2332  0.8258
 2584TIP3    H229244   6.010   3.930  15.028  0.4201  0.2060 -0.4468
 2585TIP3   OH229245   3.639   4.794   0.833  0.0740 -0.1614 -0.2484
 2585TIP3    H129246   3.664   4.802   0.741  0.5728 -1.8187 -0.2685
 2585TIP3    H229247   3.669   4.707   0.859 -1.0601 -0.1466  1.1761
 2586TIP3   OH229248   2.757   2.128  11.171  0.2221  0.0484 -0.2578
 2586TIP3    H129249   2.839   2.179  11.170 -0.0607  0.5063 -1.9433
 2586TIP3    H229250   2.780   2.047  11.217  1.5456  0.2878 -0.4663
 2587TIP3   OH229251   5.573   2.687   0.136 -0.1082  0.0082  0.6601
 2587TIP3    H129252   5.544   2.748   0.068 -3.4258 -1.9672  0.2259
 2587TIP3    H229253   5.563   2.737   0.217  2.5069  1.8771 -0.0759
 2588TIP3   OH229254   4.413   4.614   6.204 -0.2893 -0.3372 -0.4014
 2588TIP3    H129255   4.380   4.524   6.216  0.3385 -0.3518  1.3651
 2588TIP3    H229256   4.384   4.660   6.282 -2.2302  1.5389 -2.1563
 2589TIP3   OH229257   6.372   0.927   0.894 -1.4695 -0.8057  0.1558
 2589TIP3    H129258   6.335   1.014   0.910  0.0570  0.0567 -0.8853
 2589TIP3    H229259   6.436   0.915   0.964 -2.9546 -1.8626  1.3520
 2590TIP3   OH229260   4.870   2.670  12.704  0.2348  0.3366  0.1917
 2590TIP3    H129261   4.846   2.591  12.657  2.0120 -0.5827  0.7910
 2590TIP3    H229262   4.962   2.658  12.727  0.5849  2.6204  0.1836
 2591TIP3   OH229263   0.759   0.802   3.609  0.7028  0.0885  0.0556
 2591TIP3    H129264   0.675   0.803   3.655  0.1855  0.2499 -0.8704
 2591TIP3    H229265   0.794   0.890   3.621  0.2783  0.3225 -0.3582
 2592TIP3   OH229266   3.397   5.738   4.800 -0.8467  0.5870 -0.1600
 2592TIP3    H129267   3.361   5.663   4.752 -2.3260 -1.2133  3.5080
 2592TIP3    H229268   3.328   5.804   4.797 -0.5468  0.8523 -1.2934
 2593TIP3   OH229269   6.129   3.276   2.249  0.5178  0.0729 -0.0960
 2593TIP3    H129270   6.173   3.263   2.165  0.5108 -0.5329 -0.0082
 2593TIP3    H229271   6.036   3.272   2.229  0.5107 -2.0086  0.2199
 2594TIP3   OH229272   5.153   4.744   0.666 -0.1594  0.5600  0.6969
 2594TIP3    H129273   5.233   4.716   0.711  0.3352  0.5601 -0.1667
 2594TIP3    H229274   5.164   4.838   0.653 -0.1885  0.5199  0.3654
 2595TIP3   OH229275   1.324   0.842   5.909 -0.0158 -0.3650 -0.3786
 2595TIP3    H129276   1.282   0.772   5.859  0.2369 -1.2045  0.5633
 2595TIP3    H229277   1.410   0.854   5.867  0.5470 -1.6665  0.3755
 2596TIP3   OH229278   3.752   0.391   0.071 -0.5695  0.3844 -0.4204
 2596TIP3    H129279   3.684   0.334   0.109 -0.2063  0.0018 -0.3381
 2596TIP3    H229280   3.801   0.333   0.013 -0.1252  0.5904 -0.2512
 2597TIP3   OH229281   5.332   5.525  11.926 -0.0743 -0.2905  0.5233
 2597TIP3    H129282   5.288   5.442  11.909 -0.1256 -0.3399  0.8798
 2597TIP3    H229283   5.367   5.516  12.015 -0.6013  0.2860  0.8019
 2598TIP3   OH229284   4.331   2.857  13.264  0.0930 -0.6071 -0.4155
 2598TIP3    H129285   4.406   2.903  13.225  0.0036  0.3688  0.5508
 2598TIP3    H229286   4.357   2.765  13.264  0.7267 -0.4408 -1.3598
 2599TIP3   OH229287   2.318   6.677   2.775 -0.3989 -0.3528 -0.0129
 2599TIP3    H129288   2.264   6.755   2.762  0.4267  0.3338  0.6197
 2599TIP3    H229289   2.267   6.606   2.735 -1.4898  0.3771  0.0376
 2600TIP3   OH229290   3.948   1.066  14.047 -0.8529  0.1687  0.3622
 2600TIP3    H129291   3.975   0.982  14.011 -2.8811  0.4894 -2.0216
 2600TIP3    H229292   4.026   1.098  14.093 -0.3525 -3.4153  2.1839
 2601TIP3   OH229293   5.930   3.377   3.349 -0.1895  0.5504  0.2128
 2601TIP3    H129294   5.863   3.365   3.416 -1.1043  0.5286 -0.6936
 2601TIP3    H229295   5.887   3.427   3.280  1.5175  2.9508  0.8083
 2602TIP3   OH229296   1.112   1.568   0.791  0.8068  0.5980  0.4865
 2602TIP3    H129297   1.060   1.525   0.723  0.1288  1.1383  0.6528
 2602TIP3    H229298   1.201   1.567   0.757  0.7723 -0.7618  0.4029
 2603TIP3   OH229299   4.510   0.942   3.048  0.1149  0.2810  0.2868
 2603TIP3    H129300   4.472   0.979   3.128 -2.3136  0.9091 -1.1137
 2603TIP3    H229301   4.579   1.004   3.023 -0.2888  0.9893  0.9197
 2604TIP3   OH229302   1.685   6.347   3.954 -0.1267 -0.3664 -0.8604
 2604TIP3    H129303   1.639   6.403   3.891 -1.0991  0.5422  0.6329
 2604TIP3    H229304   1.773   6.339   3.918 -0.6844  0.0546 -2.3873
 2605TIP3   OH229305   5.466   2.704  10.944 -0.3373 -0.3600  0.2898
 2605TIP3    H129306   5.426   2.788  10.923  1.3918  0.1422 -1.1335
 2605TIP3    H229307   5.538   2.726  11.003 -0.3277 -0.9037  0.4781
 2606TIP3   OH229308   4.945   1.331  14.739 -0.1807 -0.0075  0.3290
 2606TIP3    H129309   5.025   1.320  14.689 -0.4357  1.7654 -0.5114
 2606TIP3    H229310   4.875   1.309  14.678 -0.3463 -2.5268  1.3436
 2607TIP3   OH229311   4.842   3.905  13.523  0.1253 -0.0136 -0.3154
 2607TIP3    H129312   4.854   3.810  13.517  2.7425  0.1864  1.0778
 2607TIP3    H229313   4.770   3.916  13.585  1.0279 -1.0680  0.9580
 2608TIP3   OH229314   3.358   0.743  16.264  0.3998  0.3287  0.6154
 2608TIP3    H129315   3.390   0.732  16.353 -1.5881  1.7733  1.5304
 2608TIP3    H229316   3.299   0.818  16.268 -0.3340 -0.0694 -1.7520
 2609TIP3   OH229317   2.664   6.497   3.017 -0.2066 -0.5037  0.0085
 2609TIP3    H129318   2.585   6.502   3.071  0.1861 -0.8952  0.6082
 2609TIP3    H229319   2.688   6.405   3.017 -1.1831 -0.8074 -2.2370
 2610TIP3   OH229320   1.147   1.346   4.546 -0.0921 -0.5330 -0.0344
 2610TIP3    H129321   1.195   1.399   4.609  0.3050 -0.5587 -0.3104
 2610TIP3    H229322   1.109   1.409   4.485  2.1571 -0.6344 -1.6227
 2611TIP3   OH229323   3.603   1.799  13.731 -0.1628  0.1544 -0.6206
 2611TIP3    H129324   3.545   1.749  13.788  0.5550  1.2045  1.0612
 2611TIP3    H229325   3.634   1.871  13.785 -0.3911  1.8718 -2.6990
 2612TIP3   OH229326   4.427   5.850   4.037 -0.0438 -0.1031 -0.1214
 2612TIP3    H129327   4.518   5.876   4.022  0.2222 -2.3516 -2.7075
 2612TIP3    H229328   4.391   5.921   4.090  2.8788  1.4085 -0.0253
 2613TIP3   OH229329   4.299   5.266   5.735  0.6425 -0.0300 -0.3202
 2613TIP3    H129330   4.345   5.238   5.814 -0.0471  0.1577  0.1572
 2613TIP3    H229331   4.346   5.345   5.706  1.3838 -0.5548 -0.5561
 2614TIP3   OH229332   0.128   2.351   1.150 -0.3582  0.3090  0.1918
 2614TIP3    H129333   0.153   2.383   1.236  0.8303  0.0613 -0.0592
 2614TIP3    H229334   0.032   2.353   1.151 -0.3393  1.6018  1.0224
 2615TIP3   OH229335   1.084   5.346   5.636  0.6741  0.3152 -0.3686
 2615TIP3    H129336   1.129   5.272   5.595  0.8223  0.5813 -0.6948
 2615TIP3    H229337   1.102   5.336   5.729 -0.2396 -0.6855 -0.2861
 2616TIP3   OH229338   3.383   4.457  12.686  0.2175  0.3015  0.1661
 2616TIP3    H129339   3.308   4.415  12.729 -0.0258 -0.4801 -1.0122
 2616TIP3    H229340   3.459   4.410  12.721 -0.0065 -0.6368 -0.5768
 2617TIP3   OH229341   0.670   2.742  15.468 -0.1980 -0.6385 -0.2340
 2617TIP3    H129342   0.608   2.771  15.535 -1.4899  1.5913 -2.2944
 2617TIP3    H229343   0.738   2.696  15.517 -1.2521  0.6338  2.5732
 2618TIP3   OH229344   5.533   4.619   3.033 -0.4081  0.3616  0.1279
 2618TIP3    H129345   5.476   4.623   3.109 -1.7865  2.0184 -0.9748
 2618TIP3    H229346   5.477   4.642   2.959  1.4692  1.1278 -1.0939
 2619TIP3   OH229347   1.690   5.472  15.393  0.1618 -0.1610  0.0794
 2619TIP3    H129348   1.747   5.473  15.317  2.9628 -1.2381  2.1062
 2619TIP3    H229349   1.650   5.385  15.392  0.3565 -0.2496 -0.0513
 2620TIP3   OH229350   5.548   0.593   4.258  0.1597 -0.3694  0.2072
 2620TIP3    H129351   5.494   0.665   4.225  1.0791  0.8605  1.2878
 2620TIP3    H229352   5.556   0.532   4.185 -1.8057 -0.0648 -0.2886
 2621TIP3   OH229353   4.550   3.375  15.061 -0.0927 -0.3289 -0.3621
 2621TIP3    H129354   4.460   3.349  15.040 -0.2085 -1.4007  1.4016
 2621TIP3    H229355   4.603   3.298  15.038  0.2204 -0.1818 -0.1317
 2622TIP3   OH229356   3.468   5.833   0.419  0.6809 -0.3337 -0.0694
 2622TIP3    H129357   3.507   5.746   0.428 -0.4716 -0.8601 -0.0227
 2622TIP3    H229358   3.441   5.838   0.327 -2.1606 -1.3050  0.6697
 2623TIP3   OH229359   0.385   6.486   1.350  0.2133 -0.1390 -0.0875
 2623TIP3    H129360   0.351   6.509   1.436 -2.2631 -0.4692 -0.9445
 2623TIP3    H229361   0.411   6.394   1.359  1.9585  0.4304  0.8829
 2624TIP3   OH229362   3.520   3.203  12.185 -0.5066  0.0870 -0.3947
 2624TIP3    H129363   3.580   3.129  12.190  1.2951  1.5210 -0.0613
 2624TIP3    H229364   3.496   3.208  12.093  1.7405  0.8644 -0.9859
 2625TIP3   OH229365   0.563   3.314  13.098  0.2222  0.2979 -0.4580
 2625TIP3    H129366   0.607   3.322  13.013 -0.1654  0.5456 -0.6392
 2625TIP3    H229367   0.561   3.404  13.132 -0.9069  0.4231 -0.8408
 2626TIP3   OH229368   5.910   6.122   4.623  0.0998 -0.6077 -0.2289
 2626TIP3    H129369   5.992   6.079   4.647  0.4348 -0.1761 -0.5709
 2626TIP3    H229370   5.907   6.200   4.678  0.2608 -0.2632 -0.7056
 2627TIP3   OH229371   1.568   6.415   0.545  0.3486  0.0260 -0.2601
 2627TIP3    H129372   1.476   6.389   0.550 -0.1986  1.5655 -1.8104
 2627TIP3    H229373   1.577   6.482   0.613  0.3102 -0.0960 -0.1350
 2628TIP3   OH229374   6.750   2.072  15.078 -0.2028  0.2821  0.0535
 2628TIP3    H129375   6.714   2.156  15.049  0.5604  0.4757 -0.3317
 2628TIP3    H229376   6.682   2.008  15.054 -0.7038  0.7673  0.1842
 2629TIP3   OH229377   0.433   2.270   2.676  0.4693 -0.0978  0.3150
 2629TIP3    H129378   0.476   2.278   2.591  2.1840  0.4250  1.2126
 2629TIP3    H229379   0.415   2.177   2.685  1.5002 -0.3424 -0.0399
 2630TIP3   OH229380   1.518   5.217  13.514  0.2415 -0.2763 -0.5586
 2630TIP3    H129381   1.510   5.179  13.602  0.5831  1.3718  0.2064
 2630TIP3    H229382   1.597   5.177  13.478  0.7029 -0.1504  0.3106
 2631TIP3   OH229383   1.007   2.404   2.382 -0.3076  0.2693 -0.0761
 2631TIP3    H129384   0.947   2.329   2.376 -1.0624  0.8438  0.1594
 2631TIP3    H229385   0.969   2.470   2.324  1.0291  0.0313 -1.2522
 2632TIP3   OH229386   2.209   0.508  13.667 -0.1358  0.3345 -0.0252
 2632TIP3    H129387   2.225   0.458  13.747  0.1097  2.0313  1.0209
 2632TIP3    H229388   2.221   0.445  13.596  1.6900 -0.7354  1.1741
 2633TIP3   OH229389   2.608   1.174  15.940  0.3869  0.4302 -0.3469
 2633TIP3    H129390   2.572   1.206  16.022  2.0759  0.8349  0.2495
 2633TIP3    H229391   2.700   1.156  15.959  0.7238  0.2292 -2.0636
 2634TIP3   OH229392   0.367   5.356  11.576 -0.6964  0.4196  0.0753
 2634TIP3    H129393   0.405   5.304  11.504  0.4356  1.0492  0.1960
 2634TIP3    H229394   0.275   5.330  11.579 -1.1463  1.5420 -2.6433
 2635TIP3   OH229395   5.687   6.756   4.811  0.2766 -0.2691 -0.8030
 2635TIP3    H129396   5.744   6.829   4.833  0.4703 -0.4977 -0.5395
 2635TIP3    H229397   5.680   6.760   4.715 -0.7484  0.8467 -0.6847
 2636TIP3   OH229398   1.812   1.273  16.707  0.5106 -0.2727 -0.0470
 2636TIP3    H129399   1.859   1.332  16.649  2.0583  0.0775  1.5082
 2636TIP3    H229400   1.759   1.330  16.763 -1.1892 -0.6221 -1.2491
 2637TIP3   OH229401   5.170   1.141   0.026 -0.0478  0.0550  0.2584
 2637TIP3    H129402   5.154   1.186   0.109  0.5104 -0.4870  0.6654
 2637TIP3    H229403   5.258   1.169   0.001 -0.7964  1.4184 -0.9333
 2638TIP3   OH229404   2.758   1.315  14.525 -0.2357  0.3142  0.0325
 2638TIP3    H129405   2.803   1.294  14.444 -2.2980  0.6081 -1.2058
 2638TIP3    H229406   2.782   1.407  14.542  0.9525 -0.0319  0.2812
 2639TIP3   OH229407   3.625   6.161   3.552  0.1784 -0.4326 -0.0208
 2639TIP3    H129408   3.532   6.170   3.531 -0.1422 -1.0442  1.1348
 2639TIP3    H229409   3.649   6.074   3.519 -0.3314 -1.4059  2.0823
 2640TIP3   OH229410   3.637   6.302  14.572  0.3680  0.2346  0.1567
 2640TIP3    H129411   3.655   6.218  14.529  1.7432  0.0922  0.9953
 2640TIP3    H229412   3.599   6.356  14.503  1.9734 -0.1985 -1.0851
 2641TIP3   OH229413   2.118   5.717  11.298  0.3161  0.9304 -0.1289
 2641TIP3    H129414   2.080   5.712  11.210  2.4395 -0.0731 -1.0327
 2641TIP3    H229415   2.053   5.764  11.350 -2.3269 -1.0357 -1.5111
 2642TIP3   OH229416   1.015   6.315   2.264 -0.6858  0.5197  0.0416
 2642TIP3    H129417   0.935   6.299   2.215  0.5944  0.7662 -2.1770
 2642TIP3    H229418   1.082   6.264   2.219  0.4956  0.6219  1.6251
 2643TIP3   OH229419   2.458   1.956   3.295  0.2722 -0.0107  0.4153
 2643TIP3    H129420   2.527   1.982   3.356  2.4171 -1.6201 -1.2556
 2643TIP3    H229421   2.410   1.888   3.342 -0.8662  1.7790  1.9638
 2644TIP3   OH229422   2.749   3.196  13.935  0.1301  0.0934  0.1989
 2644TIP3    H129423   2.663   3.182  13.974  0.0049 -0.8881 -0.4180
 2644TIP3    H229424   2.804   3.127  13.972  0.1301 -0.5482 -0.9526
 2645TIP3   OH229425   1.975   6.339  13.263  0.6978  0.2415  0.4553
 2645TIP3    H129426   2.004   6.293  13.342  0.4734 -1.5195 -0.4545
 2645TIP3    H229427   2.056   6.359  13.216  0.6950 -1.2635 -0.2293
 2646TIP3   OH229428   2.655   1.727  12.429  0.5685 -0.4395  0.1039
 2646TIP3    H129429   2.589   1.733  12.498 -0.6097  1.3174 -1.1441
 2646TIP3    H229430   2.635   1.799  12.370  1.3111 -2.1577 -2.3326
 2647TIP3   OH229431   4.016   0.121  14.153  0.7135 -0.2911  0.4344
 2647TIP3    H129432   4.009   0.057  14.224  2.2281 -2.4957 -1.3382
 2647TIP3    H229433   4.108   0.120  14.128  0.2214  0.5224 -1.5272
 2648TIP3   OH229434   4.643   4.169   3.707 -0.0609  0.6426  0.4521
 2648TIP3    H129435   4.655   4.182   3.613  0.7441  1.1733  0.6295
 2648TIP3    H229436   4.690   4.088   3.727  1.3933  1.5400  0.7383
 2649TIP3   OH229437   0.777   3.468  14.831 -0.0157 -0.3403  0.0282
 2649TIP3    H129438   0.709   3.524  14.793  0.2059 -0.1856 -0.1385
 2649TIP3    H229439   0.750   3.456  14.922  0.5550  1.0080  0.3894
 2650TIP3   OH229440   3.629   5.214   4.855  0.1914  0.1698 -0.2861
 2650TIP3    H129441   3.672   5.135   4.821 -0.4331  0.2389 -1.2735
 2650TIP3    H229442   3.543   5.184   4.884  0.8525  0.0479  1.6211
 2651TIP3   OH229443   2.602   2.996   4.762 -0.2054 -0.0841 -0.1618
 2651TIP3    H129444   2.665   3.019   4.831 -0.6502 -1.8215  0.8535
 2651TIP3    H229445   2.647   2.929   4.710 -0.6571 -0.2756 -0.3095
 2652TIP3   OH229446   0.056   4.646   0.586  0.5886  0.7124 -0.3599
 2652TIP3    H129447   0.142   4.633   0.626 -0.2068 -0.9118  0.9449
 2652TIP3    H229448  -0.003   4.655   0.661 -0.5622  0.3081 -1.2045
 2653TIP3   OH229449   2.682   0.357  13.164 -0.0000 -0.0881 -0.0489
 2653TIP3    H129450   2.650   0.428  13.109 -1.6014 -0.1708  0.7374
 2653TIP3    H229451   2.721   0.400  13.240 -0.1719 -0.0230  0.0037
 2654TIP3   OH229452   5.013   0.204   5.079 -0.8644  0.0236  0.3581
 2654TIP3    H129453   5.091   0.148   5.088  0.2612  1.8729  2.5083
 2654TIP3    H229454   5.021   0.240   4.990 -0.2753 -1.2438 -0.1301
 2655TIP3   OH229455   4.382   0.173  12.083 -0.1263  0.4567 -0.3374
 2655TIP3    H129456   4.296   0.210  12.059  0.1773  2.0928  0.9749
 2655TIP3    H229457   4.429   0.167  12.001 -1.5943 -0.6888 -1.1129
 2656TIP3   OH229458   2.717   2.014  16.608  0.0126 -0.2174  0.1955
 2656TIP3    H129459   2.674   2.080  16.663 -1.7164 -0.6831 -0.5467
 2656TIP3    H229460   2.688   1.930  16.646  0.7906 -0.5409  0.0730
 2657TIP3   OH229461   2.872   1.937  13.479 -0.1838  0.1610 -0.3221
 2657TIP3    H129462   2.888   1.868  13.542 -0.9242 -0.3077 -0.6425
 2657TIP3    H229463   2.782   1.965  13.495 -0.1198  0.5695 -0.6482
 2658TIP3   OH229464   3.473   3.420  15.524  0.4211 -0.0694  0.2254
 2658TIP3    H129465   3.547   3.470  15.558 -1.3107  2.1752  0.7853
 2658TIP3    H229466   3.483   3.422  15.429 -0.8057  3.3386  0.0844
 2659TIP3   OH229467   1.758   5.639  17.118 -0.2126  0.1504 -0.6368
 2659TIP3    H129468   1.813   5.715  17.100  1.8282 -0.5839  2.2103
 2659TIP3    H229469   1.678   5.676  17.157 -0.0264  0.9572 -1.0140
 2660TIP3   OH229470   2.600   0.781  12.077  0.3775  0.1080  0.2521
 2660TIP3    H129471   2.538   0.782  12.004  0.7452 -0.7471 -0.0854
 2660TIP3    H229472   2.632   0.691  12.079  1.6480  0.5636  0.3951
 2661TIP3   OH229473   4.101   4.968   1.973  0.0414 -0.2011 -0.5942
 2661TIP3    H129474   4.075   4.877   1.984  1.2784 -0.6965 -1.5701
 2661TIP3    H229475   4.098   4.982   1.878  0.1345  0.6747 -0.4696
 2662TIP3   OH229476   5.374   0.883  13.653  0.0930 -0.7614 -0.1983
 2662TIP3    H129477   5.409   0.933  13.726  1.6331 -0.8775 -0.8428
 2662TIP3    H229478   5.336   0.949  13.595  0.8293 -0.4709 -0.3500
 2663TIP3   OH229479   0.088   4.518  12.333  0.6693  0.1196 -0.0655
 2663TIP3    H129480   0.116   4.572  12.259  2.4674  1.8949  1.8606
 2663TIP3    H229481   0.050   4.580  12.395 -0.4652 -1.3061  0.7080
 2664TIP3   OH229482   3.689   0.920  11.363 -0.2901 -0.0258 -0.0463
 2664TIP3    H129483   3.743   0.843  11.346  0.3898  0.6121 -0.7920
 2664TIP3    H229484   3.620   0.916  11.297 -1.0740 -0.7504  0.8008
 2665TIP3   OH229485   0.163   2.977  15.106  0.0770 -0.8725  0.0318
 2665TIP3    H129486   0.233   3.042  15.113  0.1334 -0.9255 -0.0469
 2665TIP3    H229487   0.196   2.901  15.154 -0.6687 -0.2560  1.5550
 2666TIP3   OH229488   3.335   2.803  13.130 -0.5123  0.4111 -0.6036
 2666TIP3    H129489   3.413   2.852  13.105  1.7606 -2.2495  0.9353
 2666TIP3    H229490   3.334   2.728  13.070  0.7327 -1.9724  2.2298
 2667TIP3   OH229491   4.606   5.608  12.642 -0.1532  0.4067  0.0303
 2667TIP3    H129492   4.666   5.680  12.623  1.8152 -1.4653 -1.0627
 2667TIP3    H229493   4.656   5.549  12.697 -1.5006 -0.5091  0.3051
 2668TIP3   OH229494   2.357   0.877  16.874  0.3416  0.6777 -0.0195
 2668TIP3    H129495   2.288   0.813  16.856 -0.6752  2.0319 -0.9975
 2668TIP3    H229496   2.396   0.895  16.789  0.9890  0.9454  0.3291
 2669TIP3   OH229497   6.706   2.292   4.578 -0.4044 -0.0754  0.0776
 2669TIP3    H129498   6.721   2.230   4.506 -2.0146  1.1106 -1.3370
 2669TIP3    H229499   6.785   2.286   4.632  2.2248  1.0562 -3.3610
 2670TIP3   OH229500   1.821   1.272   0.450  0.2859 -0.0084  0.2803
 2670TIP3    H129501   1.857   1.324   0.521  0.0485 -0.4978  0.7684
 2670TIP3    H229502   1.727   1.288   0.453  0.3867  0.8242 -0.6285
 2671TIP3   OH229503   1.244   1.704   4.970 -0.5742  0.2325  0.7776
 2671TIP3    H129504   1.204   1.757   5.038  0.1226  1.3289  0.3460
 2671TIP3    H229505   1.317   1.757   4.938 -1.2612  0.0100 -1.2460
 2672TIP3   OH229506   6.403   4.964   3.551 -0.7084 -0.4807 -0.4158
 2672TIP3    H129507   6.492   4.969   3.517 -0.3236  0.4876  0.7185
 2672TIP3    H229508   6.384   4.870   3.553  1.4026 -0.9101  2.1510
 2673TIP3   OH229509   3.317   4.798   3.031  0.0645 -0.0355  0.1953
 2673TIP3    H129510   3.356   4.872   2.984 -1.5926 -0.2102 -1.5472
 2673TIP3    H229511   3.378   4.726   3.018 -0.1734  0.0263 -1.3953
 2674TIP3   OH229512   5.574   6.754  16.355  0.5787 -0.2507  0.2696
 2674TIP3    H129513   5.593   6.709  16.437  0.0464 -0.6219  0.1912
 2674TIP3    H229514   5.494   6.712  16.322 -0.1896  1.0387  0.4305
 2675TIP3   OH229515   1.161   4.341  16.489  0.0766 -0.1510  0.8160
 2675TIP3    H129516   1.120   4.356  16.574 -1.7418  1.6524 -0.3548
 2675TIP3    H229517   1.089   4.316  16.431  0.9925  0.6153 -0.6813
 2676TIP3   OH229518   6.032   4.353  13.084 -0.1202 -0.3902 -0.0766
 2676TIP3    H129519   6.071   4.280  13.132  2.1363  2.4192  2.5496
 2676TIP3    H229520   6.089   4.365  13.008 -0.5473 -1.3519 -0.5654
 2677TIP3   OH229521   4.831   3.372  13.787 -0.3185 -0.0704 -0.5487
 2677TIP3    H129522   4.879   3.292  13.812 -0.3309 -0.1798 -0.8747
 2677TIP3    H229523   4.900   3.436  13.770 -0.2943 -0.1365 -0.7042
 2678TIP3   OH229524   2.567   1.338  13.537  0.1221 -0.1148 -0.0774
 2678TIP3    H129525   2.585   1.245  13.526  1.3587  0.2934 -1.6020
 2678TIP3    H229526   2.552   1.349  13.631  2.0590 -1.4737  0.3996
 2679TIP3   OH229527   1.050   1.103  14.159 -0.3005 -1.1012  0.2449
 2679TIP3    H129528   0.998   1.028  14.188  0.0766 -0.5144  2.5002
 2679TIP3    H229529   1.018   1.177  14.211  1.5782 -0.3620  0.3849
 2680TIP3   OH229530   4.917   4.481  17.056 -0.0462 -0.5104 -0.8409
 2680TIP3    H129531   4.950   4.460  17.143  0.7171 -1.4319 -1.3529
 2680TIP3    H229532   4.958   4.417  16.998 -1.7396 -0.8737 -1.6684
 2681TIP3   OH229533   5.248   5.064  16.919 -0.5295 -0.6237 -0.1175
 2681TIP3    H129534   5.272   5.098  17.005  1.3878 -1.9388 -0.1098
 2681TIP3    H229535   5.232   5.142  16.866  0.3184  0.2209  0.8585
 2682TIP3   OH229536   0.791   0.647  11.776 -0.2240 -0.1140  0.3174
 2682TIP3    H129537   0.778   0.720  11.715 -1.3936 -2.1824 -1.9839
 2682TIP3    H229538   0.706   0.636  11.819 -0.8274 -1.6709 -1.1818
 2683TIP3   OH229539   4.728   0.522   2.063  0.1157  0.2879 -0.0579
 2683TIP3    H129540   4.807   0.572   2.085  0.8060 -0.1512 -1.4692
 2683TIP3    H229541   4.700   0.484   2.146  0.7814  1.3122  0.6482
 2684TIP3   OH229542   4.055   4.448   1.279  0.5989 -0.6265 -0.1087
 2684TIP3    H129543   4.014   4.418   1.198  1.4265 -1.0007 -0.3995
 2684TIP3    H229544   3.982   4.460   1.340  0.1421 -2.2181 -0.3136
 2685TIP3   OH229545   2.881   0.350  11.823 -0.5379  0.4617  0.0178
 2685TIP3    H129546   2.880   0.255  11.816  0.5978  0.4165  0.4016
 2685TIP3    H229547   2.844   0.380  11.739 -0.0461 -0.2935 -0.4765
 2686TIP3   OH229548   1.305   3.065  13.643 -0.6581 -0.0915 -0.9030
 2686TIP3    H129549   1.226   3.011  13.648 -0.9734  0.4583  0.2527
 2686TIP3    H229550   1.282   3.145  13.690  0.9734 -0.4090  0.5275
 2687TIP3   OH229551   5.366   2.988   4.135 -0.0357  0.5183 -0.3102
 2687TIP3    H129552   5.374   3.053   4.205  0.3923 -0.9677  1.0433
 2687TIP3    H229553   5.278   3.001   4.100 -0.4497  0.9122  0.8699
 2688TIP3   OH229554   0.259   2.364   1.433  0.0490  0.4801  0.1684
 2688TIP3    H129555   0.329   2.402   1.380 -1.6326  0.5666 -2.0388
 2688TIP3    H229556   0.270   2.404   1.520  3.6465 -0.6493  0.3436
 2689TIP3   OH229557   4.303   2.691  16.054  0.0532  0.1780  0.8358
 2689TIP3    H129558   4.234   2.655  16.109  1.0495 -0.2017  1.8602
 2689TIP3    H229559   4.378   2.633  16.069  1.3190  1.9583  1.5599
 2690TIP3   OH229560   6.373   4.316   1.918  0.0273  0.0531  0.7466
 2690TIP3    H129561   6.312   4.384   1.946  0.7933  1.7721 -1.5448
 2690TIP3    H229562   6.421   4.292   1.997 -0.8734  1.5716  1.7777
 2691TIP3   OH229563   1.825   2.199  12.787  0.0726 -0.6988 -0.7619
 2691TIP3    H129564   1.918   2.187  12.767  0.2798  0.7711 -0.7335
 2691TIP3    H229565   1.824   2.242  12.872 -0.5179  1.7926 -1.9644
 2692TIP3   OH229566   0.442   2.544  15.258  0.2354 -0.2790  0.3491
 2692TIP3    H129567   0.350   2.524  15.275  0.6402 -0.5603  2.2475
 2692TIP3    H229568   0.444   2.640  15.251 -0.0497 -0.2017  1.2643
 2693TIP3   OH229569   3.118   0.002   0.678  0.1224  0.0627 -0.4451
 2693TIP3    H129570   3.212   0.017   0.674 -0.0055  0.5361 -1.7359
 2693TIP3    H229571   3.109  -0.076   0.733  1.3181 -0.5412 -1.0893
 2694TIP3   OH229572   1.325   5.673   2.195 -0.2810 -0.8263 -0.3358
 2694TIP3    H129573   1.371   5.631   2.123  0.0557 -2.2296  0.6645
 2694TIP3    H229574   1.248   5.619   2.210 -0.2288 -0.6915  0.4958
 2695TIP3   OH229575   6.359   2.869   5.578  1.1429  0.5721 -0.3944
 2695TIP3    H129576   6.424   2.802   5.558  0.0935 -0.6408  0.1700
 2695TIP3    H229577   6.353   2.921   5.498  2.5753  0.5215 -0.5524
 2696TIP3   OH229578   6.185   5.345   3.586 -0.3921 -0.5949  0.0370
 2696TIP3    H129579   6.149   5.433   3.571 -0.8186 -0.4252  1.9716
 2696TIP3    H229580   6.275   5.360   3.616  0.1387 -0.8938 -1.3820
 2697TIP3   OH229581   2.433   2.116  15.952 -0.1102  0.0614 -0.5017
 2697TIP3    H129582   2.489   2.095  15.878 -0.5997 -0.2057 -0.7973
 2697TIP3    H229583   2.379   2.189  15.921 -2.7707 -2.2713 -1.6530
 2698TIP3   OH229584   5.564   6.377   4.428  0.5300 -0.4407 -0.0190
 2698TIP3    H129585   5.612   6.316   4.372  1.6977  0.7877 -0.3742
 2698TIP3    H229586   5.628   6.446   4.449 -0.4153  0.0233  1.3682
 2699TIP3   OH229587   0.536   4.826   6.329 -0.1460  0.2063 -0.5491
 2699TIP3    H129588   0.508   4.735   6.320  1.7217 -0.2107 -2.5619
 2699TIP3    H229589   0.460   4.871   6.367 -1.8765 -1.7792 -1.5492
 2700TIP3   OH229590   6.680   6.023   6.087  0.5914 -0.4021  0.0544
 2700TIP3    H129591   6.722   5.947   6.128  0.9345 -0.6430 -0.7295
 2700TIP3    H229592   6.624   6.059   6.155 -1.0441 -2.5007 -0.1184
 2701TIP3   OH229593   5.155   4.834  12.212 -0.1517  0.1826 -0.5421
 2701TIP3    H129594   5.202   4.895  12.155  0.3255  0.1917 -0.1370
 2701TIP3    H229595   5.165   4.870  12.300  0.8134 -0.9078 -0.1952
 2702TIP3   OH229596   0.950   0.796   5.796 -0.1364  0.0952  0.3670
 2702TIP3    H129597   0.925   0.790   5.704  1.7058 -1.3689 -0.0697
 2702TIP3    H229598   0.968   0.889   5.810 -2.8027  0.7103 -0.0799
 2703TIP3   OH229599   0.573   0.868   6.076  0.0270  0.0786  0.0474
 2703TIP3    H129600   0.479   0.852   6.070  0.2379 -0.6483 -1.3728
 2703TIP3    H229601   0.583   0.960   6.052 -0.0251 -0.6162 -2.7686
 2704TIP3   OH229602   4.476   6.236   4.498  0.4762 -0.3801 -0.0767
 2704TIP3    H129603   4.485   6.228   4.593  1.8763 -0.1377 -0.1875
 2704TIP3    H229604   4.538   6.172   4.463 -0.6203 -1.0513 -0.8330
 2705TIP3   OH229605   1.030   6.203   6.685 -0.0381 -0.4267 -0.1151
 2705TIP3    H129606   0.980   6.131   6.648  0.1272  0.1851 -1.5853
 2705TIP3    H229607   1.108   6.208   6.631 -0.7243  1.7615 -0.9844
 2706TIP3   OH229608   2.646   3.795  16.546  0.1984 -0.3156 -0.0427
 2706TIP3    H129609   2.627   3.723  16.607  1.5475 -1.4735 -0.9465
 2706TIP3    H229610   2.732   3.827  16.574 -0.3188  0.8425  0.2379
 2707TIP3   OH229611   5.777   1.385  15.753 -0.1820  0.0022  0.3071
 2707TIP3    H129612   5.703   1.434  15.717  0.5205  0.4289 -0.5689
 2707TIP3    H229613   5.840   1.378  15.681  1.2615  0.9210  1.4309
 2708TIP3   OH229614   6.317   2.290  14.297 -0.2816  0.1492  0.7910
 2708TIP3    H129615   6.247   2.335  14.249 -1.5670 -2.2713  0.3465
 2708TIP3    H229616   6.271   2.235  14.361  1.2104 -1.4410  0.5188
 2709TIP3   OH229617   4.584   3.139   5.804 -0.1936  0.6202 -0.3572
 2709TIP3    H129618   4.494   3.120   5.781  0.1572 -0.4661 -0.8621
 2709TIP3    H229619   4.579   3.180   5.890 -1.2586  1.6861 -0.9084
 2710TIP3   OH229620   5.386   4.353   5.297 -0.1824  0.1666 -0.1802
 2710TIP3    H129621   5.297   4.329   5.271 -0.1574  0.1612 -0.2603
 2710TIP3    H229622   5.375   4.408   5.374 -0.2780  0.5632 -0.4768
 2711TIP3   OH229623   4.967   2.124   5.571 -0.1451 -0.0768  0.1465
 2711TIP3    H129624   4.951   2.109   5.478  1.6194 -0.0184 -0.1837
 2711TIP3    H229625   4.881   2.145   5.607 -0.7789  0.3027 -1.5471
 2712TIP3   OH229626   5.972   0.712   3.079 -0.3362 -0.9667 -0.4093
 2712TIP3    H129627   5.935   0.693   2.993  1.1952 -1.1114 -1.0612
 2712TIP3    H229628   6.024   0.791   3.065  0.8125 -1.6101  0.0984
 2713TIP3   OH229629   6.072   3.765   1.907 -0.1864 -0.4401  0.0935
 2713TIP3    H129630   6.026   3.693   1.952 -1.3405  1.0475  1.3615
 2713TIP3    H229631   6.110   3.724   1.830 -3.1309 -1.9034 -0.6847
 2714TIP3   OH229632   0.707   2.785  16.558 -0.0904 -0.6837  0.3312
 2714TIP3    H129633   0.708   2.699  16.601 -1.4241 -1.2043 -0.6398
 2714TIP3    H229634   0.743   2.768  16.470 -2.8120 -0.8230 -0.8251
 2715TIP3   OH229635   0.776   0.678  12.157 -0.7537 -0.6444  0.2262
 2715TIP3    H129636   0.732   0.621  12.093  0.1372 -1.7083  0.5460
 2715TIP3    H229637   0.852   0.628  12.186 -0.0655  0.6355  0.6781
 2716TIP3   OH229638   3.242   1.451  10.820  0.5505  0.7381  0.0882
 2716TIP3    H129639   3.162   1.399  10.814  0.1823  1.1997  0.8686
 2716TIP3    H229640   3.216   1.537  10.787  1.5633  0.0351 -2.7201
 2717TIP3   OH229641   2.092   2.198  13.200 -0.0945 -0.2036  0.0407
 2717TIP3    H129642   2.167   2.222  13.145 -0.1064  0.2905  0.2401
 2717TIP3    H229643   2.125   2.202  13.289 -0.2932 -0.2328  0.1167
 2718TIP3   OH229644   5.617   0.775   2.811 -0.6088 -0.0421  0.1282
 2718TIP3    H129645   5.578   0.750   2.728 -2.0506  0.5977  0.6061
 2718TIP3    H229646   5.568   0.727   2.877  1.3022 -1.4667  0.5545
 2719TIP3   OH229647   0.070   3.653  13.025 -0.0776 -0.0609 -0.0144
 2719TIP3    H129648   0.037   3.736  12.992 -1.0095 -1.4312 -2.6381
 2719TIP3    H229649   0.114   3.612  12.950 -0.6548 -2.4398  0.8968
 2720TIP3   OH229650   3.982   3.790   3.557  0.2660  0.7577 -0.2100
 2720TIP3    H129651   3.888   3.786   3.574 -0.3897  1.1463 -3.3974
 2720TIP3    H229652   4.010   3.699   3.550  0.2886  0.6261  1.3879
 2721TIP3   OH229653   4.360   6.162   1.305 -0.0000 -0.1639  0.7051
 2721TIP3    H129654   4.386   6.110   1.229  0.5560  0.5593  0.3867
 2721TIP3    H229655   4.278   6.203   1.279  1.4643  2.1241 -0.5263
 2722TIP3   OH229656   5.918   1.638  15.832  0.1882  0.8362  0.1602
 2722TIP3    H129657   5.880   1.658  15.918 -0.4991  1.2734 -0.2429
 2722TIP3    H229658   5.853   1.581  15.790 -0.1318  1.7890 -0.6309
 2723TIP3   OH229659   0.284   0.675   1.091 -0.2838 -0.1468  0.1513
 2723TIP3    H129660   0.295   0.633   1.176  3.2902 -1.1633 -0.7562
 2723TIP3    H229661   0.301   0.606   1.028  1.2311  1.5813 -1.3709
 2724TIP3   OH229662   4.581   3.953   2.026  0.3791 -0.3865  0.2650
 2724TIP3    H129663   4.612   3.987   1.942  0.1101 -0.7125  0.0287
 2724TIP3    H229664   4.632   4.000   2.092  1.3944 -0.9466 -0.1109
 2725TIP3   OH229665   2.445   5.279  16.431  0.6460  0.0964 -0.2400
 2725TIP3    H129666   2.480   5.198  16.394 -2.3793 -0.2425 -2.5628
 2725TIP3    H229667   2.355   5.258  16.455  0.5770  2.1198  1.4369
 2726TIP3   OH229668   1.636   2.138  13.458 -0.1845 -0.3759 -0.0310
 2726TIP3    H129669   1.654   2.145  13.364 -0.1829 -2.0501 -0.1835
 2726TIP3    H229670   1.651   2.226  13.493  1.9748 -0.2348 -1.2220
 2727TIP3   OH229671   0.787   3.199   3.812  0.5395 -0.0330 -0.4616
 2727TIP3    H129672   0.818   3.289   3.824  0.3722  0.0310 -0.5121
 2727TIP3    H229673   0.796   3.183   3.718  0.2916  0.0321 -0.4972
 2728TIP3   OH229674   5.845   1.052  13.101 -0.3248 -0.0919 -0.5431
 2728TIP3    H129675   5.804   0.968  13.121 -1.6733  1.0900  1.8570
 2728TIP3    H229676   5.774   1.104  13.062  0.5753 -0.1250 -2.2819
 2729TIP3   OH229677   4.131   6.336  16.129 -0.0740 -0.0337 -0.0552
 2729TIP3    H129678   4.183   6.353  16.207  0.8620  0.5108 -0.7821
 2729TIP3    H229679   4.134   6.241  16.117  0.7908  0.0002 -0.1141
 2730TIP3   OH229680   4.793   1.816   2.594  0.5287 -0.4007 -0.2483
 2730TIP3    H129681   4.869   1.807   2.537  0.3120  1.3817 -0.8497
 2730TIP3    H229682   4.736   1.878   2.549 -1.3541 -1.7922  0.1340
 2731TIP3   OH229683   3.273   2.259   0.613 -0.3169  0.0250  0.3559
 2731TIP3    H129684   3.346   2.310   0.647 -0.7717 -0.4556  2.0941
 2731TIP3    H229685   3.304   2.168   0.613 -0.2977  0.0288 -0.5805
 2732TIP3   OH229686   5.948   3.948   6.540  0.3761  0.4615  0.3962
 2732TIP3    H129687   5.963   3.874   6.599 -1.0668  0.4473  0.7489
 2732TIP3    H229688   5.908   4.015   6.594  0.0001  0.8352 -0.3354
 2733TIP3   OH229689   6.176   3.900   1.644  1.0947 -0.3896 -0.2164
 2733TIP3    H129690   6.120   3.976   1.628  2.6865  0.4608 -1.9839
 2733TIP3    H229691   6.142   3.832   1.585  1.9993  0.1824 -1.4194
 2734TIP3   OH229692   6.562   1.228  12.586 -0.1985 -0.0633 -0.8511
 2734TIP3    H129693   6.520   1.306  12.550 -1.1458 -0.3869 -0.4606
 2734TIP3    H229694   6.564   1.242  12.680 -1.9722 -1.2637 -0.6070
 2735TIP3   OH229695   4.982   5.871  14.656 -0.3154 -0.1808  0.0486
 2735TIP3    H129696   5.077   5.870  14.646 -0.3068  1.2338 -0.0456
 2735TIP3    H229697   4.950   5.915  14.577 -1.0944 -1.2654 -0.2475
 2736TIP3   OH229698   5.368   0.987   1.303 -0.0514 -0.8073  0.3888
 2736TIP3    H129699   5.453   0.969   1.344  0.5181 -0.9032 -0.8125
 2736TIP3    H229700   5.338   0.902   1.272 -0.8341 -0.8529  1.2758
 2737TIP3   OH229701   2.554   6.397  12.226  0.3651  0.3271  0.2211
 2737TIP3    H129702   2.492   6.328  12.202  1.1158 -0.5016  0.6399
 2737TIP3    H229703   2.621   6.394  12.157  0.3707  0.6742  0.2113
 2738TIP3   OH229704   5.541   4.227  13.984  0.3422 -0.3687 -0.1660
 2738TIP3    H129705   5.611   4.165  14.006  1.6080  0.7333 -1.0592
 2738TIP3    H229706   5.577   4.313  14.005  0.0441  0.3773 -2.5958
 2739TIP3   OH229707   4.610   6.238  14.920  0.5688  0.0210 -0.0141
 2739TIP3    H129708   4.638   6.321  14.958 -1.0407 -0.6750  2.8728
 2739TIP3    H229709   4.691   6.192  14.899  1.4786  1.9980 -0.9934
 2740TIP3   OH229710   4.103   2.043   4.755 -0.3602  0.1729 -0.1691
 2740TIP3    H129711   4.060   2.128   4.753 -0.3079  0.1772 -1.1019
 2740TIP3    H229712   4.056   1.990   4.690 -1.9269 -1.2492  2.0352
 2741TIP3   OH229713   6.470   5.178   2.391 -0.0851 -0.2536 -0.0988
 2741TIP3    H129714   6.500   5.104   2.338  0.9853  0.4930 -0.5603
 2741TIP3    H229715   6.385   5.201   2.355  0.6075  0.2053 -1.4579
 2742TIP3   OH229716   2.455   2.698  14.426 -0.2170 -0.3065  0.1898
 2742TIP3    H129717   2.373   2.710  14.472  0.2195  1.1448  0.6090
 2742TIP3    H229718   2.496   2.623  14.468 -0.9533 -0.5212  0.5199
 2743TIP3   OH229719   1.272   4.853  13.129  0.0824 -0.3653 -0.5438
 2743TIP3    H129720   1.197   4.876  13.075 -0.0687  0.5876  0.0545
 2743TIP3    H229721   1.238   4.791  13.193 -0.4216  0.7756  0.3137
 2744TIP3   OH229722   3.679   0.952  12.300  0.0458  0.3709  0.2184
 2744TIP3    H129723   3.743   0.932  12.232  0.6581  0.0314  0.8817
 2744TIP3    H229724   3.729   0.945  12.382 -0.4408  1.6875  0.6494
 2745TIP3   OH229725   0.454   3.359   1.115 -0.1832  0.2423 -0.6159
 2745TIP3    H129726   0.472   3.425   1.183 -1.6722 -0.4716  0.5160
 2745TIP3    H229727   0.362   3.335   1.130  0.3858 -2.2016 -0.9123
 2746TIP3   OH229728   6.608   5.680  16.108  0.0104 -0.1561 -0.6399
 2746TIP3    H129729   6.675   5.684  16.177  0.8185 -0.8295 -1.3611
 2746TIP3    H229730   6.525   5.677  16.155  0.5600 -0.7652  0.3121
 2747TIP3   OH229731   0.277   4.248   0.114 -0.0061  0.0010  0.3755
 2747TIP3    H129732   0.186   4.223   0.097 -1.2197  2.5676  2.7603
 2747TIP3    H229733   0.282   4.256   0.209  2.2785  1.5660  0.1516
 2748TIP3   OH229734   1.880   0.788   5.250 -0.3943 -0.0089 -0.0270
 2748TIP3    H129735   1.920   0.788   5.337  0.1566  0.4663 -0.2730
 2748TIP3    H229736   1.802   0.733   5.259  0.1322 -0.6795  0.5472
 2749TIP3   OH229737   0.003   0.623  16.577  0.7464 -0.2445  0.7392
 2749TIP3    H129738  -0.011   0.673  16.497 -0.0091 -1.1709  0.2796
 2749TIP3    H229739  -0.035   0.537  16.559 -2.5327  0.5476  3.2977
 2750TIP3   OH229740   0.821   6.030   0.865  0.8227  0.2731  0.0314
 2750TIP3    H129741   0.790   6.076   0.787 -0.7717  0.6926  0.8816
 2750TIP3    H229742   0.893   6.084   0.898  1.3452  0.2205 -0.9956
 2751TIP3   OH229743   4.034   2.587   2.621 -0.1938 -0.0442  0.4543
 2751TIP3    H129744   4.074   2.514   2.573  0.0393 -0.4538  1.2695
 2751TIP3    H229745   4.050   2.663   2.566 -0.6371 -0.6391 -0.5178
 2752TIP3   OH229746   6.767   3.957  13.405  0.5078  0.5348  0.3308
 2752TIP3    H129747   6.684   3.999  13.430 -0.2561 -0.9423  0.3111
 2752TIP3    H229748   6.748   3.913  13.322  1.7238  1.3851 -0.4141
 2753TIP3   OH229749   1.554   1.944   2.216  0.2041 -0.2210 -0.1265
 2753TIP3    H129750   1.640   1.986   2.211  1.8058 -3.5136 -2.4022
 2753TIP3    H229751   1.569   1.866   2.270 -1.2113 -1.0928 -0.9522
 2754TIP3   OH229752   2.824   1.470  16.136  0.0560  0.4720 -0.2206
 2754TIP3    H129753   2.756   1.536  16.119 -1.6253 -0.9569  0.8398
 2754TIP3    H229754   2.822   1.457  16.231  0.9090 -0.5440 -0.3383
 2755TIP3   OH229755   3.113   3.186   4.962 -0.4402 -0.2205 -0.0886
 2755TIP3    H129756   3.172   3.245   4.915  0.5833 -1.0895  0.0754
 2755TIP3    H229757   3.159   3.102   4.963 -1.8022 -0.9849 -0.1749
 2756TIP3   OH229758   6.525   1.313   2.515  0.8057  0.1695 -0.4169
 2756TIP3    H129759   6.534   1.220   2.498 -1.0082 -0.2467  0.7398
 2756TIP3    H229760   6.596   1.334   2.575  1.3582 -0.4125 -0.8654
 2757TIP3   OH229761   4.556   5.655  16.016 -0.1842 -0.3990 -0.5430
 2757TIP3    H129762   4.592   5.566  16.012 -0.6543 -0.6036 -0.2640
 2757TIP3    H229763   4.628   5.708  16.049  0.5521 -0.4239 -2.0350
 2758TIP3   OH229764   2.691   1.381  15.790 -0.1550  0.2410  0.1889
 2758TIP3    H129765   2.785   1.372  15.807 -0.0078 -0.6644 -0.9973
 2758TIP3    H229766   2.650   1.324  15.855  0.2461 -1.0939 -0.7112
 2759TIP3   OH229767   4.593   1.683   3.102  0.0117 -0.3925 -0.2523
 2759TIP3    H129768   4.503   1.668   3.133 -1.5990  0.0893 -4.3006
 2759TIP3    H229769   4.605   1.777   3.109 -0.0927 -0.3679 -0.3931
 2760TIP3   OH229770   2.689   5.842  12.789 -0.0619  0.1431 -0.5354
 2760TIP3    H129771   2.772   5.818  12.747 -0.3094  1.6937 -1.9688
 2760TIP3    H229772   2.711   5.854  12.881  1.0857 -0.4771 -0.7151
 2761TIP3   OH229773   0.966   5.851   1.041  0.0853  0.1716 -0.9518
 2761TIP3    H129774   0.939   5.918   0.977  0.3248 -1.1519 -2.4644
 2761TIP3    H229775   0.932   5.769   1.005  1.1607 -0.7347  0.0755
 2762TIP3   OH229776   1.479   1.773  15.274  0.6931 -0.0512  0.3460
 2762TIP3    H129777   1.522   1.817  15.348  1.2922  0.2852 -0.1964
 2762TIP3    H229778   1.393   1.748  15.308  1.2182 -0.5194  1.3750
 2763TIP3   OH229779   2.831   5.401  11.099  0.7186  0.2318  0.2856
 2763TIP3    H129780   2.837   5.387  11.005 -2.9283 -0.4243  0.0984
 2763TIP3    H229781   2.850   5.315  11.137 -0.9791 -0.2873 -0.0093
 2764TIP3   OH229782   0.115   0.541   2.687 -0.0259 -0.0110 -0.3297
 2764TIP3    H129783   0.182   0.476   2.709  0.0304 -0.3261 -1.4079
 2764TIP3    H229784   0.148   0.622   2.725  0.2252 -0.4725  0.4568
 2765TIP3   OH229785   3.266   0.525   6.525 -0.0177 -0.1736 -0.2238
 2765TIP3    H129786   3.264   0.462   6.453  1.5468  0.4216 -0.8032
 2765TIP3    H229787   3.352   0.566   6.519 -1.7000  3.4194 -1.0586
 2766TIP3   OH229788   2.679   1.125   1.183 -0.2356 -0.4296 -0.1413
 2766TIP3    H129789   2.628   1.049   1.210  0.1698 -0.9707 -0.8601
 2766TIP3    H229790   2.633   1.159   1.106 -0.5043  0.1505  0.2733
 2767TIP3   OH229791   2.844   1.437   4.273  0.3095 -0.0832  0.2796
 2767TIP3    H129792   2.749   1.433   4.262  0.4061 -1.4024 -0.1348
 2767TIP3    H229793   2.871   1.515   4.224 -0.8795  1.9861  2.7524
 2768TIP3   OH229794   4.028   0.722   0.783 -0.3997 -0.2008  0.0340
 2768TIP3    H129795   4.077   0.802   0.765  0.5196 -0.1527  2.5167
 2768TIP3    H229796   3.980   0.741   0.865 -1.6757 -1.5252 -0.3812
 2769TIP3   OH229797   1.645   5.158  13.202 -0.1427  0.0771  0.5711
 2769TIP3    H129798   1.605   5.096  13.142 -0.5391 -1.1427  2.0646
 2769TIP3    H229799   1.624   5.244  13.165 -0.4659 -0.6444 -0.9538
 2770TIP3   OH229800   6.275   0.332   1.164 -0.5124 -0.9575  0.0071
 2770TIP3    H129801   6.239   0.280   1.236  0.6777  0.3465  1.5680
 2770TIP3    H229802   6.367   0.345   1.187 -0.8535  2.0931 -0.1760
 2771TIP3   OH229803   4.001   3.184  16.708 -0.0496 -0.5143  0.6419
 2771TIP3    H129804   3.963   3.173  16.795 -0.6998 -0.7149  0.3361
 2771TIP3    H229805   4.060   3.259  16.717 -0.8212  0.0583  1.0238
 2772TIP3   OH229806   0.871   1.221  13.212 -0.1296  0.5588 -0.5449
 2772TIP3    H129807   0.864   1.297  13.271 -1.3756  0.1449 -0.1479
 2772TIP3    H229808   0.793   1.226  13.158 -0.2472 -0.4876 -0.4759
 2773TIP3   OH229809   3.885   0.297  16.070  0.7649 -0.1805  1.0062
 2773TIP3    H129810   3.958   0.288  16.131  0.2798  0.0180  1.6191
 2773TIP3    H229811   3.878   0.210  16.028  1.3265 -0.2071  0.9654
 2774TIP3   OH229812   3.763   4.551   1.874  0.1710  0.3711 -0.2171
 2774TIP3    H129813   3.799   4.462   1.884  1.7667  1.1049  0.8351
 2774TIP3    H229814   3.696   4.542   1.807 -0.1396 -1.7672  0.3276
 2775TIP3   OH229815   5.935   5.252  17.260 -0.0995  0.2999 -0.2157
 2775TIP3    H129816   5.893   5.191  17.200  1.1874 -0.9471  0.1102
 2775TIP3    H229817   5.875   5.326  17.265 -0.8138 -0.1193 -2.0643
 2776TIP3   OH229818   2.724   1.966  13.754 -0.6161 -0.3839  0.0184
 2776TIP3    H129819   2.672   1.952  13.833  0.7994  2.3508  1.4885
 2776TIP3    H229820   2.786   2.034  13.777  2.7840 -2.5915 -2.0984
 2777TIP3   OH229821   1.291   6.143  12.960  0.1167  0.1957  0.5574
 2777TIP3    H129822   1.276   6.050  12.944  2.5963  0.0140 -0.9026
 2777TIP3    H229823   1.318   6.178  12.876  0.8866  1.9046  1.4895
 2778TIP3   OH229824   1.640   5.821  15.977  0.6088  0.0256 -0.4833
 2778TIP3    H129825   1.654   5.904  15.931  0.2774 -0.0871 -0.7878
 2778TIP3    H229826   1.617   5.759  15.908  0.3167 -0.1934 -0.1892
 2779TIP3   OH229827   4.942   5.488   1.891 -0.5290 -0.1633 -0.3956
 2779TIP3    H129828   4.859   5.536   1.890 -0.4761 -0.0608 -1.6523
 2779TIP3    H229829   4.958   5.467   1.799 -0.5332 -2.5580  0.1040
 2780TIP3   OH229830   0.620   0.595  15.410 -0.2202  0.4998 -0.1411
 2780TIP3    H129831   0.653   0.604  15.321  0.9204 -0.2711  0.1921
 2780TIP3    H229832   0.696   0.565  15.461 -0.9822  0.4511  0.9850
 2781TIP3   OH229833   4.391   2.930  10.994  0.4535  0.8362  0.7597
 2781TIP3    H129834   4.372   3.023  11.004 -0.1027  1.0136 -1.6868
 2781TIP3    H229835   4.437   2.923  10.911 -0.3765 -1.1878  0.4260
 2782TIP3   OH229836   1.793   3.848  16.312  0.6580  0.3521 -0.4341
 2782TIP3    H129837   1.761   3.896  16.237  0.8953  1.7814  0.3659
 2782TIP3    H229838   1.718   3.841  16.371  0.8454  0.5007 -0.1711
 2783TIP3   OH229839   2.840   1.225   3.098  0.2950  0.4134 -0.2344
 2783TIP3    H129840   2.762   1.183   3.061 -0.0118  0.4596  0.3533
 2783TIP3    H229841   2.881   1.269   3.024 -0.4819  0.7671 -0.4588
 2784TIP3   OH229842   4.626   2.603  11.150 -0.0175  0.1502  0.0380
 2784TIP3    H129843   4.701   2.579  11.096 -0.5640 -0.4974 -0.4554
 2784TIP3    H229844   4.637   2.554  11.231  1.7346  2.4736  1.2763
 2785TIP3   OH229845   1.384   3.025   2.237  0.0325 -0.9346  0.4125
 2785TIP3    H129846   1.440   2.952   2.209  0.4478 -0.6581  0.5119
 2785TIP3    H229847   1.373   3.078   2.158  0.7035 -0.4778  0.6215
 2786TIP3   OH229848   1.118   0.338   2.218  0.0325  0.0466  0.4718
 2786TIP3    H129849   1.172   0.415   2.239 -0.6931  0.5929  0.3536
 2786TIP3    H229850   1.061   0.328   2.294  0.4654 -0.6785  0.7030
 2787TIP3   OH229851   1.085   3.923  12.329 -0.1110 -0.1714  0.8141
 2787TIP3    H129852   1.079   3.863  12.255  1.6306  1.5996 -0.8189
 2787TIP3    H229853   1.062   3.870  12.406 -2.4973 -1.8915 -1.0251
 2788TIP3   OH229854   2.555   3.918  16.311  0.1871  0.3472 -0.2000
 2788TIP3    H129855   2.473   3.871  16.291  1.2588 -2.3809  1.4347
 2788TIP3    H229856   2.570   3.901  16.404  0.0626  5.0229  0.7754
 2789TIP3   OH229857   0.830   3.923  16.180  0.6310 -0.0865 -0.3603
 2789TIP3    H129858   0.856   3.941  16.270 -1.3220 -0.4476  0.3126
 2789TIP3    H229859   0.734   3.922  16.183  0.4601  2.3860 -2.9346
 2790TIP3   OH229860   6.744   3.156  15.156  0.3542  0.2839 -0.0741
 2790TIP3    H129861   6.685   3.129  15.086  1.1965  0.1540 -0.7309
 2790TIP3    H229862   6.810   3.087  15.161 -0.4054 -0.3534  1.7040
 2791TIP3   OH229863   4.917   2.746   1.940  0.5511 -0.1347  0.1101
 2791TIP3    H129864   4.945   2.734   2.030 -0.5762 -0.5821  0.4143
 2791TIP3    H229865   4.871   2.665   1.918 -1.2176  0.8848 -0.0816
 2792TIP3   OH229866   6.190   1.294   0.299 -0.0517 -0.1786 -0.4290
 2792TIP3    H129867   6.119   1.300   0.364 -2.0339 -0.2817 -2.5361
 2792TIP3    H229868   6.238   1.216   0.324  0.5295  0.9501  2.1826
 2793TIP3   OH229869   2.580   0.322  14.971 -0.7431 -0.7724 -0.4048
 2793TIP3    H129870   2.539   0.281  14.895  0.0134  0.3109 -1.4085
 2793TIP3    H229871   2.672   0.332  14.946 -0.5294 -0.2597  0.5926
 2794TIP3   OH229872   1.054   1.874  16.795 -0.3309 -0.2201 -0.0358
 2794TIP3    H129873   0.974   1.911  16.833  0.1790 -0.2787  1.1368
 2794TIP3    H229874   1.071   1.796  16.848 -0.2293 -0.9566 -1.1372
 2795TIP3   OH229875   3.735   2.735  16.188  0.3695 -0.9172 -0.0338
 2795TIP3    H129876   3.693   2.821  16.181  2.6077  0.1658 -0.7423
 2795TIP3    H229877   3.664   2.672  16.177 -1.0134  0.8525 -1.5525
 2796TIP3   OH229878   3.679   4.071   5.041  0.1943  0.1963 -0.0716
 2796TIP3    H129879   3.655   3.981   5.061 -2.5192  1.0598  0.7646
 2796TIP3    H229880   3.618   4.097   4.973  0.1507  1.7945  0.5605
 2797TIP3   OH229881   0.611   3.685  14.833  0.0701 -0.4585 -0.1595
 2797TIP3    H129882   0.665   3.761  14.854  0.0939 -0.0123 -1.7785
 2797TIP3    H229883   0.591   3.695  14.740 -1.8739 -1.1995  0.1535
 2798TIP3   OH229884   6.716   5.686   5.191 -0.3529 -0.4491  0.0404
 2798TIP3    H129885   6.771   5.645   5.124 -0.8770 -2.0777  0.5679
 2798TIP3    H229886   6.761   5.669   5.274 -1.8447 -2.2295  0.5265
 2799TIP3   OH229887   3.083   6.098   1.162 -0.1467  0.2686 -0.0368
 2799TIP3    H129888   3.161   6.042   1.159  0.1344  0.4712  2.5923
 2799TIP3    H229889   3.081   6.139   1.076  1.9857 -0.6360 -0.5780
 2800TIP3   OH229890   1.997   2.615   6.459  0.3420  0.4509 -0.1866
 2800TIP3    H129891   2.001   2.710   6.470 -0.4236  0.8251 -2.7047
 2800TIP3    H229892   2.047   2.598   6.380 -0.5460 -1.1077 -0.4277
 2801TIP3   OH229893   1.589   5.142  11.896  0.9957 -0.1976  0.1584
 2801TIP3    H129894   1.674   5.182  11.918 -0.2266  1.6776  1.6709
 2801TIP3    H229895   1.578   5.160  11.803  1.9554  0.1579  0.1011
 2802TIP3   OH229896   1.579   4.598   5.038 -0.1389 -0.2775 -0.6641
 2802TIP3    H129897   1.498   4.550   5.055  0.9252 -2.5945 -1.8349
 2802TIP3    H229898   1.640   4.531   5.007  2.6839  1.1598  1.5365
 2803TIP3   OH229899   2.442   1.616   4.448 -0.2214  0.3436  0.0129
 2803TIP3    H129900   2.504   1.566   4.394  1.4192  0.5497  1.6642
 2803TIP3    H229901   2.497   1.676   4.498 -2.0709  3.0673 -1.1109
 2804TIP3   OH229902   6.554   4.107  15.114  0.0497 -0.1242  0.1632
 2804TIP3    H129903   6.612   4.171  15.073 -1.3029 -0.5337 -2.5369
 2804TIP3    H229904   6.610   4.033  15.135  0.5517 -0.5329 -2.4384
 2805TIP3   OH229905   2.889   4.771  15.903  0.3110  0.4653 -0.5396
 2805TIP3    H129906   2.943   4.801  15.976  1.0754 -0.3932 -0.7309
 2805TIP3    H229907   2.799   4.787  15.930  0.6273  0.9995  0.2067
 2806TIP3   OH229908   0.552   0.188   3.861  0.2229  0.0901  0.0894
 2806TIP3    H129909   0.492   0.147   3.924 -0.1437 -0.5036 -0.6342
 2806TIP3    H229910   0.496   0.210   3.787  0.9772 -0.9117 -0.7879
 2807TIP3   OH229911   3.408   1.947   1.441 -0.2771  0.1556  0.0331
 2807TIP3    H129912   3.384   1.869   1.492  1.3741  0.4199  1.2624
 2807TIP3    H229913   3.392   1.922   1.350 -1.2380 -1.0803  0.5179
 2808TIP3   OH229914   6.456   5.284   4.016  0.4387  0.5039 -0.4642
 2808TIP3    H129915   6.491   5.256   4.101 -0.8572 -0.9031 -0.3781
 2808TIP3    H229916   6.398   5.213   3.990 -1.3371  2.2080 -1.2283
 2809TIP3   OH229917   2.439   2.040  11.396  0.1686 -0.2399  0.4556
 2809TIP3    H129918   2.380   1.969  11.420  0.5487 -0.5005  0.6247
 2809TIP3    H229919   2.517   2.026  11.451  0.1181  0.4838  0.7214
 2810TIP3   OH229920   0.805   4.184   3.126  0.1942 -0.4352 -0.3742
 2810TIP3    H129921   0.758   4.267   3.118 -0.6032 -0.8416  0.0970
 2810TIP3    H229922   0.843   4.169   3.039 -2.8041 -1.4794 -1.5416
 2811TIP3   OH229923   2.254   5.896  17.261 -0.2763  0.6784 -0.5584
 2811TIP3    H129924   2.245   5.866  17.170 -1.1145 -0.7247 -0.0202
 2811TIP3    H229925   2.327   5.846  17.296 -2.2651 -1.5230  0.6156
 2812TIP3   OH229926   3.308   1.329   0.289 -0.6426 -0.1858  0.1210
 2812TIP3    H129927   3.321   1.403   0.348 -0.3050 -1.0826  1.2053
 2812TIP3    H229928   3.231   1.352   0.238  1.1827  2.2420 -1.6630
 2813TIP3   OH229929   6.676   2.809   6.394 -0.1248 -0.1469  0.0287
 2813TIP3    H129930   6.756   2.763   6.370 -1.4926 -1.5685 -2.0497
 2813TIP3    H229931   6.661   2.870   6.322 -0.2485  0.9700  1.0025
 2814TIP3   OH229932   5.505   3.921  11.740  0.2349 -0.1161 -0.6605
 2814TIP3    H129933   5.585   3.885  11.701  1.2627 -0.6461  1.8153
 2814TIP3    H229934   5.439   3.853  11.727  0.8960 -0.8163 -0.3915
 2815TIP3   OH229935   5.576   1.332  13.588 -0.0986 -0.0334  0.1495
 2815TIP3    H129936   5.596   1.247  13.550 -1.0207 -0.6799  1.1023
 2815TIP3    H229937   5.569   1.391  13.512  2.3860 -0.3739 -0.4102
 2816TIP3   OH229938   5.696   6.021  16.753 -0.1227 -0.1041  0.0975
 2816TIP3    H129939   5.689   6.001  16.846 -0.3943 -1.4497 -0.2093
 2816TIP3    H229940   5.619   5.980  16.713  1.8401 -2.6260 -1.2152
 2817TIP3   OH229941   1.009   0.172  13.778 -0.5923  0.0257  0.0870
 2817TIP3    H129942   0.986   0.103  13.716 -0.4888  0.4284 -0.4114
 2817TIP3    H229943   1.038   0.126  13.857 -0.2955 -0.4951 -0.3230
 2818TIP3   OH229944   2.236   4.782   3.008  0.0575  0.5769 -0.0972
 2818TIP3    H129945   2.277   4.862   2.975  0.9065  0.6276  1.0646
 2818TIP3    H229946   2.184   4.811   3.083 -0.9249  0.2832 -0.6580
 2819TIP3   OH229947   1.473   2.379  12.935  0.4186  0.1096 -0.1472
 2819TIP3    H129948   1.483   2.310  12.869 -2.0354  0.0891 -0.5262
 2819TIP3    H229949   1.513   2.456  12.895  1.5182 -0.6070 -0.4692
 2820TIP3   OH229950   0.876   6.818   6.097  0.1614 -0.0303 -0.5352
 2820TIP3    H129951   0.921   6.838   6.178 -0.1958  0.3444 -0.4284
 2820TIP3    H229952   0.783   6.824   6.118  0.0704  0.9772 -1.1929
 2821TIP3   OH229953   3.569   6.024   2.268 -0.3324 -0.1498 -0.4440
 2821TIP3    H129954   3.530   5.945   2.306 -1.1507  0.2480 -0.4599
 2821TIP3    H229955   3.647   6.040   2.322 -1.1360  0.0520  0.6691
 2822TIP3   OH229956   1.598   3.919  14.691 -0.3817 -0.2279  0.2590
 2822TIP3    H129957   1.643   3.847  14.648 -0.7605 -1.3832  1.7490
 2822TIP3    H229958   1.510   3.918  14.654 -0.3796 -0.5249  0.2627
 2823TIP3   OH229959   4.292   2.916   2.133  0.3881 -0.2675 -0.2295
 2823TIP3    H129960   4.380   2.919   2.094 -0.6223 -0.5485 -2.6014
 2823TIP3    H229961   4.279   2.824   2.157  0.7492 -0.2113  0.1980
 2824TIP3   OH229962   3.106   2.926  10.380 -0.3421  0.1674  0.5383
 2824TIP3    H129963   3.136   2.835  10.380 -0.4466  0.1190 -0.5792
 2824TIP3    H229964   3.173   2.974  10.331 -1.7560  0.1532 -1.4721
 2825TIP3   OH229965   2.233   0.443   5.751  0.1867  0.0189 -0.0301
 2825TIP3    H129966   2.321   0.444   5.714 -0.3917 -2.8782 -1.6304
 2825TIP3    H229967   2.245   0.471   5.842  2.7957 -0.5591 -0.1610
 2826TIP3   OH229968   2.912   4.334   5.181  0.1496 -0.1855  0.0905
 2826TIP3    H129969   2.917   4.248   5.223 -3.4980  0.1329  1.4553
 2826TIP3    H229970   2.961   4.392   5.239  0.4085 -0.8862  0.5758
 2827TIP3   OH229971   5.409   4.818   3.274  0.0522 -0.7784  0.4549
 2827TIP3    H129972   5.500   4.817   3.302  0.6446 -1.2797 -1.3989
 2827TIP3    H229973   5.373   4.734   3.303 -0.2829  0.0712  2.5796
 2828TIP3   OH229974   5.735   5.699   2.608 -0.1374 -0.3461 -0.7565
 2828TIP3    H129975   5.738   5.751   2.527  1.5673 -0.7412 -0.9606
 2828TIP3    H229976   5.798   5.628   2.593 -1.7902 -1.9845 -0.1391
 2829TIP3   OH229977   5.163   4.563   1.824  0.6335 -0.4020  0.4201
 2829TIP3    H129978   5.233   4.626   1.808 -1.4107  1.8403  0.1635
 2829TIP3    H229979   5.106   4.605   1.887 -1.7273 -1.2379 -1.0786
 2830TIP3   OH229980   2.936   1.917   1.586 -0.1554 -0.2191  0.1078
 2830TIP3    H129981   2.898   1.962   1.661  0.5619  2.6011 -1.1492
 2830TIP3    H229982   3.021   1.885   1.617 -0.5538 -0.4878  0.9330
 2831TIP3   OH229983   5.136   2.681  13.083  0.2284  0.2264 -0.1660
 2831TIP3    H129984   5.108   2.683  13.174  0.1773 -1.2165 -0.1519
 2831TIP3    H229985   5.063   2.640  13.036  1.4526 -1.6977 -0.4220
 2832TIP3   OH229986   0.499   4.659  16.692 -0.0493 -0.5078 -0.2853
 2832TIP3    H129987   0.432   4.593  16.712  0.6250 -0.9355  0.6161
 2832TIP3    H229988   0.523   4.695  16.777  0.7516 -0.2488 -0.6169
 2833TIP3   OH229989   5.872   2.132   3.509 -0.0470  0.1250 -0.1008
 2833TIP3    H129990   5.868   2.158   3.601  0.8336  0.4643 -0.1580
 2833TIP3    H229991   5.812   2.191   3.464 -1.0372 -0.5175  0.3642
 2834TIP3   OH229992   0.062   2.854  12.826 -0.0392  0.0595 -0.0151
 2834TIP3    H129993   0.049   2.925  12.763 -1.2337 -0.6656 -0.5874
 2834TIP3    H229994  -0.018   2.852  12.878 -0.3588 -1.4261 -0.5510
 2835TIP3   OH229995   0.055   1.863   3.939 -0.3376 -0.7136  0.2770
 2835TIP3    H129996   0.110   1.929   3.981 -0.8069  0.4465 -0.8925
 2835TIP3    H229997   0.060   1.884   3.846 -0.4153 -2.3986 -0.1263
 2836TIP3   OH229998   3.998   5.896  16.170 -0.2743 -0.0652 -0.0029
 2836TIP3    H129999   4.058   5.860  16.235  1.0538 -2.1955 -2.3368
 2836TIP3    H230000   3.927   5.832  16.164 -1.7428  1.3962  1.1852
 2837TIP3   OH230001   4.529   0.881  14.159  0.3852  0.1680 -0.5798
 2837TIP3    H130002   4.529   0.834  14.075  0.5628 -1.2632  0.2080
 2837TIP3    H230003   4.616   0.865  14.195  0.3061  0.7865 -0.1210
 2838TIP3   OH230004   3.291   4.779   3.588  0.6035 -0.4008 -0.1857
 2838TIP3    H130005   3.276   4.689   3.557  0.3494  0.1879 -1.8025
 2838TIP3    H230006   3.330   4.823   3.513 -1.5149  1.5060 -0.1939
 2839TIP3   OH230007   3.330   3.980   6.134 -0.1463  0.5577  0.4579
 2839TIP3    H130008   3.376   3.998   6.053  0.3981 -0.3237  0.5694
 2839TIP3    H230009   3.249   3.936   6.107  0.7992 -1.2461  0.4753
 2840TIP3   OH230010   0.918   0.114  14.395  0.2084 -0.8320 -0.5209
 2840TIP3    H130011   0.966   0.158  14.325  0.4311 -0.4253 -0.1179
 2840TIP3    H230012   0.831   0.153  14.394  0.7177  0.3575  0.5003
 2841TIP3   OH230013   4.246   3.710   3.317 -0.3002  0.6652  0.3207
 2841TIP3    H130014   4.251   3.773   3.245  0.1409  0.8913  0.5477
 2841TIP3    H230015   4.160   3.669   3.307  0.0073  0.2594 -0.6918
 2842TIP3   OH230016   3.311   6.283  16.081 -0.6944  0.5653  0.8646
 2842TIP3    H130017   3.362   6.206  16.058  0.0592  1.1970  0.3820
 2842TIP3    H230018   3.376   6.348  16.109 -1.2231  1.3668  0.2717
 2843TIP3   OH230019   4.114   3.859   0.788  0.1475 -0.4147  0.7551
 2843TIP3    H130020   4.186   3.911   0.753  0.0730 -0.9585 -0.2065
 2843TIP3    H230021   4.064   3.832   0.711 -1.0594 -0.0847  1.4069
 2844TIP3   OH230022   5.568   0.827   4.901  0.1381 -0.0751  0.0069
 2844TIP3    H130023   5.608   0.894   4.957 -0.4629  0.3004 -0.0186
 2844TIP3    H230024   5.512   0.876   4.841  0.1927 -0.5460 -0.4326
 2845TIP3   OH230025   5.473   2.354  17.028 -0.8573  0.2465 -0.6682
 2845TIP3    H130026   5.462   2.419  16.959 -1.7692  0.4414 -0.3465
 2845TIP3    H230027   5.497   2.405  17.106 -0.4969  0.0891 -0.6720
 2846TIP3   OH230028   4.837   3.768   4.883  0.2909  0.0872  0.0031
 2846TIP3    H130029   4.812   3.675   4.887 -0.5607  0.2769 -0.7814
 2846TIP3    H230030   4.756   3.814   4.862  0.9713  0.8781 -0.9550
 2847TIP3   OH230031   2.234   2.177   1.140 -0.3393  0.3146  0.2762
 2847TIP3    H130032   2.204   2.262   1.175  0.2330 -0.1332  1.8997
 2847TIP3    H230033   2.231   2.118   1.215  2.0569 -0.3920 -0.1622
 2848TIP3   OH230034   0.281   6.539   3.295 -0.1097  0.0140  0.2076
 2848TIP3    H130035   0.306   6.561   3.205 -0.6092 -1.4655 -0.3129
 2848TIP3    H230036   0.248   6.621   3.331  1.8580  1.0674 -0.3383
 2849TIP3   OH230037   5.264   3.041  16.942 -0.0279 -0.3136  0.0821
 2849TIP3    H130038   5.355   3.067  16.957  0.0959 -1.5217  1.6315
 2849TIP3    H230039   5.214   3.121  16.956  0.7626  0.2512 -0.2829
 2850TIP3   OH230040   5.515   6.019   0.802 -0.4406  0.0879 -0.0504
 2850TIP3    H130041   5.545   6.087   0.862 -2.3435  0.0403  1.0206
 2850TIP3    H230042   5.421   6.013   0.819 -0.6687 -1.2854 -1.6877
 2851TIP3   OH230043   3.304   1.740  16.726  0.4648  0.6199 -0.5961
 2851TIP3    H130044   3.238   1.681  16.762 -0.0518  1.9769  0.7243
 2851TIP3    H230045   3.284   1.743  16.632  0.0211 -0.6814 -0.5605
 2852TIP3   OH230046   0.176   0.049  13.799 -0.0525 -0.1329 -0.0112
 2852TIP3    H130047   0.269   0.039  13.780  0.7236  2.3847  2.2324
 2852TIP3    H230048   0.142   0.103  13.727  0.5748  0.3837  0.0831
 2853TIP3   OH230049   1.626   2.865   6.437  0.1925  0.3197 -0.5420
 2853TIP3    H130050   1.560   2.863   6.368 -1.7326 -1.6405  1.3265
 2853TIP3    H230051   1.663   2.777   6.438 -0.8622 -0.1243  1.9277
 2854TIP3   OH230052   0.860   2.273   3.551  0.7115  0.5947 -0.4124
 2854TIP3    H130053   0.855   2.314   3.637 -0.2135  2.0170 -1.1261
 2854TIP3    H230054   0.949   2.290   3.521  0.7385  0.9123 -0.1470
 2855TIP3   OH230055   0.734   4.783  11.411 -0.2030 -0.2023 -0.1220
 2855TIP3    H130056   0.748   4.796  11.317 -1.9129 -0.6550 -0.4622
 2855TIP3    H230057   0.719   4.688  11.419 -0.7618 -0.0602  0.5047
 2856TIP3   OH230058   2.091   5.268  15.827 -0.5727  0.1744 -0.3735
 2856TIP3    H130059   2.013   5.247  15.879  0.0568 -0.0649  0.4713
 2856TIP3    H230060   2.117   5.184  15.788  0.7218 -0.2345  1.3417
 2857TIP3   OH230061   2.062   5.459   5.426  0.2883  0.4533  0.1440
 2857TIP3    H130062   1.982   5.496   5.463  0.2154 -0.0190  0.4528
 2857TIP3    H230063   2.115   5.536   5.403 -0.6613  0.7885 -0.9659
 2858TIP3   OH230064   6.763   5.750   1.420 -0.4191  0.4145 -0.0842
 2858TIP3    H130065   6.790   5.699   1.497 -0.7593  2.4822  1.4263
 2858TIP3    H230066   6.678   5.713   1.395  1.0018 -2.2243 -1.3142
 2859TIP3   OH230067   4.850   5.899  13.926 -0.1279 -0.2152 -0.6597
 2859TIP3    H130068   4.943   5.917  13.918 -0.8677  2.6028 -3.9341
 2859TIP3    H230069   4.813   5.979  13.962 -1.7065 -0.0976 -2.4862
 2860TIP3   OH230070   3.491   2.808   1.137  0.0479  0.1482 -0.7816
 2860TIP3    H130071   3.417   2.788   1.194  0.6878  0.3776  0.1380
 2860TIP3    H230072   3.567   2.805   1.195  1.0802 -2.6131 -2.1945
 2861TIP3   OH230073   4.439   6.387   6.602  0.4512  0.2157  0.0699
 2861TIP3    H130074   4.349   6.373   6.571  0.3132  2.3656 -0.5654
 2861TIP3    H230075   4.432   6.382   6.697 -0.3224  0.1790  0.0185
 2862TIP3   OH230076   6.465   0.298   2.304 -0.3550 -0.5199 -0.9637
 2862TIP3    H130077   6.415   0.323   2.226  0.0645  1.4977 -0.6114
 2862TIP3    H230078   6.414   0.227   2.344 -0.5723 -1.5734 -3.0478
 2863TIP3   OH230079   3.076   4.709   2.706 -0.5868  0.3188 -0.2234
 2863TIP3    H130080   3.171   4.723   2.705 -0.0514 -2.7827  0.7129
 2863TIP3    H230081   3.049   4.713   2.615  0.2982  2.0435 -0.4203
 2864TIP3   OH230082   2.845   1.562  11.537  0.1783 -0.4093 -0.2670
 2864TIP3    H130083   2.755   1.590  11.526  0.8736  1.3265 -1.7547
 2864TIP3    H230084   2.845   1.471  11.507 -1.6841 -1.4697  2.7401
 2865TIP3   OH230085   6.317   2.040   6.522 -0.1357 -0.2143  0.9208
 2865TIP3    H130086   6.368   1.959   6.534 -1.2266 -0.6930  2.4781
 2865TIP3    H230087   6.283   2.034   6.433  0.7812 -0.9058  0.6106
 2866TIP3   OH230088   3.148   2.710   4.969  0.3477 -0.3867  0.3253
 2866TIP3    H130089   3.067   2.660   4.968  0.1712 -0.1198  1.0508
 2866TIP3    H230090   3.203   2.665   5.034  0.1044  0.4772  1.1444
 2867TIP3   OH230091   2.252   2.853   1.312  0.0912 -0.5419 -0.1806
 2867TIP3    H130092   2.174   2.809   1.280  0.8860 -1.6564 -0.5907
 2867TIP3    H230093   2.265   2.818   1.400 -0.1279 -0.0210  0.0606
 2868TIP3   OH230094   1.300   1.814  13.397 -0.2471  0.0769 -0.1533
 2868TIP3    H130095   1.325   1.798  13.306  0.5619 -2.7483  0.5171
 2868TIP3    H230096   1.383   1.823  13.444 -0.6308 -0.5691  0.6603
 2869TIP3   OH230097   2.347   5.651   2.694 -0.3878 -0.1847  0.2874
 2869TIP3    H130098   2.381   5.733   2.657  0.1987 -0.4861  0.1558
 2869TIP3    H230099   2.332   5.595   2.619  1.7553 -1.1589  0.5442
 2870TIP3   OH230100   0.255   4.207   3.040 -0.3363  0.4234 -0.5135
 2870TIP3    H130101   0.299   4.162   3.112 -1.1457  0.3746 -0.0446
 2870TIP3    H230102   0.184   4.148   3.015  0.0910  0.3317 -1.5134
 2871TIP3   OH230103   0.889   4.718  14.139  0.3088 -0.4998  0.5954
 2871TIP3    H130104   0.853   4.796  14.181 -2.3891 -1.1546 -0.4062
 2871TIP3    H230105   0.813   4.675  14.100  2.5654 -0.4325 -4.1378
 2872TIP3   OH230106   1.236   5.333  14.170 -0.1614  0.5882 -0.2316
 2872TIP3    H130107   1.297   5.266  14.140 -0.1883  0.0153  0.9527
 2872TIP3    H230108   1.153   5.286  14.182  0.3685  0.2770  2.8079
 2873TIP3   OH230109   0.144   2.911  15.567  0.6284 -0.4175 -0.0676
 2873TIP3    H130110   0.127   2.835  15.510 -0.0413  0.0026 -0.4323
 2873TIP3    H230111   0.094   2.982  15.527 -0.7788 -0.3883  1.6850
 2874TIP3   OH230112   1.927   5.547  15.561 -0.2386 -0.1483 -0.3080
 2874TIP3    H130113   1.898   5.633  15.591  1.0721  0.6659 -1.3293
 2874TIP3    H230114   1.848   5.506  15.525 -0.1349  2.1572 -3.3118
 2875TIP3   OH230115   4.799   3.201   5.636 -0.0066 -0.4464  0.3268
 2875TIP3    H130116   4.719   3.181   5.685 -1.1948 -0.5769 -1.6148
 2875TIP3    H230117   4.819   3.292   5.659 -0.3495 -0.6079  1.3017
 2876TIP3   OH230118   4.184   2.967   6.373  0.2402  0.4528  0.4690
 2876TIP3    H130119   4.189   3.062   6.361  0.0421  0.2250 -1.7015
 2876TIP3    H230120   4.249   2.932   6.312  0.5533 -0.7907  1.5036
 2877TIP3   OH230121   2.696   6.585  15.327  0.0149  0.1074 -0.1174
 2877TIP3    H130122   2.690   6.637  15.407  1.1158  0.9566 -0.5721
 2877TIP3    H230123   2.664   6.643  15.258  2.0609  0.5118 -0.7568
 2878TIP3   OH230124   6.159   0.498  15.093  0.1592 -0.2506  0.1226
 2878TIP3    H130125   6.192   0.433  15.154  0.9170  0.7228  0.7773
 2878TIP3    H230126   6.080   0.533  15.134  1.7727  1.8510  1.5741
 2879TIP3   OH230127   2.053   4.841   4.725 -0.1542  0.4589  0.1311
 2879TIP3    H130128   2.028   4.907   4.790 -0.9825  0.9422 -0.6693
 2879TIP3    H230129   2.032   4.881   4.641 -1.1108 -1.0103 -0.3380
 2880TIP3   OH230130   2.222   5.900   0.716 -0.9323 -0.5209  0.3161
 2880TIP3    H130131   2.140   5.862   0.686 -0.3094 -0.6687 -1.2542
 2880TIP3    H230132   2.239   5.859   0.801 -2.2116 -0.8669  0.4060
 2881TIP3   OH230133   0.330   4.991   5.452  0.2539 -0.6217 -0.2454
 2881TIP3    H130134   0.386   5.045   5.508  1.0112 -1.4481 -0.1864
 2881TIP3    H230135   0.375   4.990   5.368  0.2440 -1.1558 -0.2476
 2882TIP3   OH230136   1.350   1.991  14.306  0.0946 -0.3225 -0.2474
 2882TIP3    H130137   1.260   2.006  14.335  0.6746 -1.1255  2.1138
 2882TIP3    H230138   1.382   2.077  14.282 -0.6802  0.2779  0.8316
 2883TIP3   OH230139   6.569   5.047  17.176 -0.4233  0.6149  0.3236
 2883TIP3    H130140   6.511   4.971  17.164 -0.8133  0.5446  2.5170
 2883TIP3    H230141   6.524   5.119  17.132  0.2697 -0.5460 -2.3750
 2884TIP3   OH230142   2.074   3.989  16.438  0.3243 -0.1419 -0.3307
 2884TIP3    H130143   2.111   4.015  16.354 -0.8311 -0.6998 -1.0205
 2884TIP3    H230144   2.036   3.902  16.422  1.7235 -1.0668  1.2373
 2885TIP3   OH230145   0.505   1.270   4.098 -0.4510 -0.4042  0.2833
 2885TIP3    H130146   0.483   1.363   4.104 -1.4365 -0.4953 -1.4605
 2885TIP3    H230147   0.460   1.240   4.019  1.8217 -1.8133 -0.5255
 2886TIP3   OH230148   0.007   1.627   5.644  0.0664 -0.2585  0.3941
 2886TIP3    H130149   0.082   1.613   5.587 -0.4163 -0.4274 -0.2085
 2886TIP3    H230150  -0.042   1.697   5.602 -1.0296 -1.3311 -0.1607
 2887TIP3   OH230151   3.422   1.497   4.868  0.6045  0.1354 -0.1488
 2887TIP3    H130152   3.424   1.433   4.797 -0.8800 -2.9939  2.4650
 2887TIP3    H230153   3.342   1.548   4.853  0.1979 -0.6394 -0.6287
 2888TIP3   OH230154   3.135   3.276   6.356  0.3752  0.1535  0.2581
 2888TIP3    H130155   3.079   3.292   6.280  0.4396 -1.1593 -0.0703
 2888TIP3    H230156   3.104   3.193   6.392  1.7842 -0.3298  0.3728
 2889TIP3   OH230157   4.926   6.747  12.088  0.8766  0.4001 -0.1592
 2889TIP3    H130158   4.981   6.788  12.155 -0.1717  1.0520  0.3098
 2889TIP3    H230159   4.841   6.791  12.097  0.3366 -0.4696 -1.0053
 2890TIP3   OH230160   1.291   0.985  15.484 -0.1781  0.1641 -0.2861
 2890TIP3    H130161   1.235   1.062  15.489  1.3531  1.4004 -1.7276
 2890TIP3    H230162   1.229   0.912  15.472 -1.6522  1.0862  1.5277
 2891TIP3   OH230163   1.306   5.553  14.868 -0.0238 -0.0216 -0.3810
 2891TIP3    H130164   1.329   5.536  14.959  0.1343 -0.9754 -0.5889
 2891TIP3    H230165   1.391   5.570  14.826 -0.0478 -0.0431 -0.4373
 2892TIP3   OH230166   6.737   1.879   2.328 -0.7098  0.5092 -0.4860
 2892TIP3    H130167   6.648   1.912   2.317 -0.6219  0.6824 -0.6860
 2892TIP3    H230168   6.763   1.906   2.416 -1.0350  0.0348 -0.2464
 2893TIP3   OH230169   2.348   3.221  12.109 -0.2202  0.3395 -0.6891
 2893TIP3    H130170   2.311   3.153  12.165  0.3746  1.6336  1.3211
 2893TIP3    H230171   2.339   3.186  12.020 -1.7865 -1.4662  0.1396
 2894TIP3   OH230172   6.174   5.450  15.994  0.3172 -0.2553  0.1838
 2894TIP3    H130173   6.132   5.370  16.028  0.8941 -0.0184  1.4907
 2894TIP3    H230174   6.268   5.435  16.006  0.4873  0.1717 -0.5926
 2895TIP3   OH230175   2.559   6.807  11.335 -0.0150 -0.5352  0.0575
 2895TIP3    H130176   2.640   6.809  11.284 -0.1885 -0.7511 -0.2255
 2895TIP3    H230177   2.492   6.779  11.273 -0.5984  1.1680 -0.0995
 2896TIP3   OH230178   6.303   0.088   6.748 -0.1041 -0.0036  0.3525
 2896TIP3    H130179   6.299  -0.002   6.717  0.3957  0.0110  0.2485
 2896TIP3    H230180   6.258   0.086   6.833 -0.6567 -0.2215  0.0625
 2897TIP3   OH230181   4.120   1.307   5.648 -0.3020 -0.5180 -0.8618
 2897TIP3    H130182   4.113   1.386   5.703  0.5392  0.3587 -1.9986
 2897TIP3    H230183   4.136   1.340   5.560 -0.0790 -1.9694 -1.3798
 2898TIP3   OH230184   4.941   5.490  14.638 -0.1405 -0.1828 -0.5583
 2898TIP3    H130185   4.985   5.572  14.618 -0.1096 -0.0550  0.0455
 2898TIP3    H230186   5.010   5.432  14.671 -0.0121 -0.7127 -1.7249
 2899TIP3   OH230187   6.707   5.850  16.814 -0.0894 -0.1016 -0.1507
 2899TIP3    H130188   6.753   5.814  16.890 -1.7710 -1.8947  0.0403
 2899TIP3    H230189   6.713   5.780  16.748 -1.8177 -0.0245 -0.3980
 2900TIP3   OH230190   4.830   2.586   5.882  0.2193  0.2236  0.4504
 2900TIP3    H130191   4.753   2.624   5.925  0.0483 -0.0355  0.3698
 2900TIP3    H230192   4.868   2.528   5.947  1.5671  1.9592  1.2712
 2901TIP3   OH230193   2.645   1.983  16.979 -0.3495 -0.7571  0.0230
 2901TIP3    H130194   2.634   2.054  17.042  0.1896 -1.4042  0.8582
 2901TIP3    H230195   2.558   1.973  16.940 -0.7299 -0.4324  0.7629
 2902TIP3   OH230196   0.825   5.183  16.559  0.2657  0.4598 -0.1910
 2902TIP3    H130197   0.856   5.119  16.494 -1.8499 -0.6112 -0.1711
 2902TIP3    H230198   0.905   5.213  16.602  1.4024 -1.3685 -0.9588
 2903TIP3   OH230199   6.124   1.028  16.432  0.1557 -0.2085  0.1463
 2903TIP3    H130200   6.124   1.075  16.348  0.9118  1.9106  1.2755
 2903TIP3    H230201   6.175   0.949  16.415 -1.0145 -0.5788 -1.7921
 2904TIP3   OH230202   0.795   4.134   2.807 -0.6179 -0.3217 -0.0397
 2904TIP3    H130203   0.708   4.122   2.843 -0.1262 -0.5758  1.0861
 2904TIP3    H230204   0.796   4.080   2.727 -2.0218  1.0118 -0.9812
 2905TIP3   OH230205   5.727   3.484   5.451 -0.2560 -0.3624 -0.7514
 2905TIP3    H130206   5.643   3.490   5.497 -0.3985  0.6330 -1.1487
 2905TIP3    H230207   5.773   3.412   5.496 -1.7646 -1.6832 -1.2755
 2906TIP3   OH230208   0.022   0.730  13.663 -0.1834 -0.2496 -0.2064
 2906TIP3    H130209  -0.055   0.689  13.701  0.8570 -0.8769  1.2639
 2906TIP3    H230210   0.091   0.718  13.729  1.5460 -0.9582 -2.0865
 2907TIP3   OH230211   4.668   2.776  15.404 -0.1865 -0.5759  0.5047
 2907TIP3    H130212   4.597   2.839  15.419  0.9043  0.7968 -0.0208
 2907TIP3    H230213   4.634   2.718  15.336 -0.9742 -0.2205  0.5827
 2908TIP3   OH230214   5.179   5.280   1.859 -0.1656  0.2529 -0.1613
 2908TIP3    H130215   5.172   5.340   1.784  2.1286 -0.0449 -0.6472
 2908TIP3    H230216   5.090   5.248   1.872 -1.3089  3.1643 -0.3917
 2909TIP3   OH230217   0.247   5.086  11.541 -0.2439 -0.6123  0.1589
 2909TIP3    H130218   0.273   5.025  11.610  1.8636 -1.4020 -1.2943
 2909TIP3    H230219   0.176   5.040  11.495  2.4094 -2.7471 -1.9442
 2910TIP3   OH230220   2.378   6.621   2.265  0.8104 -0.0587  0.5866
 2910TIP3    H130221   2.379   6.691   2.199  0.2659  0.7294  1.4107
 2910TIP3    H230222   2.426   6.658   2.339 -0.4602 -0.1519  1.4464
 2911TIP3   OH230223   5.075   4.440  15.601  0.4899  0.0211 -0.0185
 2911TIP3    H130224   5.057   4.522  15.646 -1.4093 -0.6341  0.4478
 2911TIP3    H230225   4.996   4.423  15.550  0.9819 -1.3606 -0.3299
 2912TIP3   OH230226   3.484   2.464   6.039  0.0002  0.1340  0.2730
 2912TIP3    H130227   3.461   2.431   6.126  1.0449  1.0478  0.9034
 2912TIP3    H230228   3.501   2.557   6.052  1.0985  0.0895 -0.7184
 2913TIP3   OH230229   4.148   4.726   3.423  0.1594 -0.2825 -0.2238
 2913TIP3    H130230   4.167   4.817   3.400  2.8002 -0.1775  2.1484
 2913TIP3    H230231   4.165   4.721   3.517 -0.1286 -3.1909 -0.2858
 2914TIP3   OH230232   0.277   3.820  11.927 -0.2758 -0.7959 -0.3777
 2914TIP3    H130233   0.311   3.779  12.007  2.5686 -0.9709 -1.5889
 2914TIP3    H230234   0.261   3.746  11.868  1.1758 -0.4622 -1.2236
 2915TIP3   OH230235   5.571   5.010   2.659  0.2827  0.1992 -0.1595
 2915TIP3    H130236   5.664   5.027   2.640  0.1689  0.1167 -0.8023
 2915TIP3    H230237   5.572   4.929   2.709  0.5872  0.3786  0.1293
 2916TIP3   OH230238   1.127   5.915   3.866 -0.4673 -0.1545 -0.0335
 2916TIP3    H130239   1.097   5.857   3.796 -1.8880  1.7086 -1.0317
 2916TIP3    H230240   1.049   5.930   3.920  0.3246 -0.6038  1.2452
 2917TIP3   OH230241   1.885   4.517   2.731  0.3050 -0.6677 -0.2172
 2917TIP3    H130242   1.816   4.487   2.673  1.6580 -1.9669 -1.1992
 2917TIP3    H230243   1.956   4.454   2.718  1.2109 -0.0635  1.6780
 2918TIP3   OH230244   3.392   5.527   2.084  0.1282 -0.1124  0.1115
 2918TIP3    H130245   3.331   5.511   2.156 -0.7278  0.4498 -0.4771
 2918TIP3    H230246   3.464   5.577   2.123  1.1783 -2.4260  1.2311
 2919TIP3   OH230247   0.153   2.090  14.678  0.1977  0.9962  0.0394
 2919TIP3    H130248   0.212   2.107  14.605 -0.3565 -0.7957 -0.8673
 2919TIP3    H230249   0.096   2.167  14.682 -0.6252  0.5480 -2.2781
 2920TIP3   OH230250   3.467   1.415  15.369  0.2075  0.3447 -0.4113
 2920TIP3    H130251   3.518   1.425  15.449  1.0186 -0.9635 -0.7459
 2920TIP3    H230252   3.396   1.355  15.392  0.7198 -0.4185 -0.7744
 2921TIP3   OH230253   0.569   1.735   4.813 -0.3168  0.4169 -0.3329
 2921TIP3    H130254   0.526   1.651   4.798 -1.0331  0.8236 -0.5561
 2921TIP3    H230255   0.662   1.713   4.817 -0.5400 -0.4699  0.1813
 2922TIP3   OH230256   6.075   4.761  12.335  0.4408 -0.0239 -0.4851
 2922TIP3    H130257   6.091   4.826  12.266  0.4039  0.6587  0.1448
 2922TIP3    H230258   5.981   4.744  12.330  0.3484  0.4140 -0.2636
 2923TIP3   OH230259   5.219   4.939  14.156 -0.1430 -0.2447 -0.1945
 2923TIP3    H130260   5.249   4.960  14.244 -0.8367  1.6330 -0.3971
 2923TIP3    H230261   5.185   4.850  14.164  0.4248 -0.3529  1.2728
 2924TIP3   OH230262   1.825   1.379  12.827  0.2048 -0.3662  0.2243
 2924TIP3    H130263   1.732   1.368  12.811  0.3420  0.8323 -1.5257
 2924TIP3    H230264   1.867   1.308  12.779  0.1652 -1.5044  1.8175
 2925TIP3   OH230265   0.017   5.320   5.358  0.0200  0.4932 -0.3848
 2925TIP3    H130266   0.007   5.414   5.374  0.8862  0.2472  1.8250
 2925TIP3    H230267  -0.012   5.279   5.440 -1.5570 -1.2391 -1.7834
 2926TIP3   OH230268   0.686   2.975   1.416  0.1275  0.3855  0.1297
 2926TIP3    H130269   0.733   3.053   1.383  1.4085  0.1050  1.2444
 2926TIP3    H230270   0.634   2.945   1.341  1.6989  0.7397 -1.1398
 2927TIP3   OH230271   6.465   5.096  12.350 -0.8796 -0.4520 -0.0348
 2927TIP3    H130272   6.429   5.075  12.437 -0.3662  0.5129  0.4170
 2927TIP3    H230273   6.546   5.142  12.369 -0.1777 -1.2595 -1.0459
 2928TIP3   OH230274   0.646   2.348  11.536 -0.9943  0.7192 -0.1168
 2928TIP3    H130275   0.722   2.407  11.540 -0.5874  0.1589  0.4086
 2928TIP3    H230276   0.655   2.303  11.452  0.3467 -0.8078  0.8314
 2929TIP3   OH230277   4.118   1.091   1.265  0.0283  0.0915 -0.2201
 2929TIP3    H130278   4.120   1.045   1.181  0.7636 -0.3761  0.0457
 2929TIP3    H230279   4.210   1.096   1.292  0.1436  2.9694 -0.9066
 2930TIP3   OH230280   2.139   2.614   3.956 -0.5733  0.2229  0.6451
 2930TIP3    H130281   2.136   2.665   3.875 -0.3555 -0.2859  0.3167
 2930TIP3    H230282   2.232   2.592   3.966 -0.7548 -0.6440  0.4520
 2931TIP3   OH230283   1.592   0.751   4.411  0.3415 -0.2622 -0.6377
 2931TIP3    H130284   1.603   0.656   4.411 -0.1189 -0.3196 -1.0534
 2931TIP3    H230285   1.498   0.764   4.406  0.3293  0.2189  0.7014
 2932TIP3   OH230286   3.935   4.829   0.065  0.1060 -0.1465  0.6324
 2932TIP3    H130287   3.973   4.818   0.152  0.0455  0.5077  0.7431
 2932TIP3    H230288   4.001   4.792   0.006 -0.6491 -2.2587  1.0828
 2933TIP3   OH230289   4.434   3.533   5.237  0.1599 -0.0979  0.0720
 2933TIP3    H130290   4.527   3.514   5.225 -0.0190 -2.2416  1.8563
 2933TIP3    H230291   4.405   3.472   5.305 -3.0322 -0.8623 -1.8682
 2934TIP3   OH230292   5.891   6.470   3.727  0.8541  0.4141  0.2499
 2934TIP3    H130293   5.904   6.380   3.696  1.0838  0.8998 -1.0727
 2934TIP3    H230294   5.891   6.523   3.648 -2.2901  1.2586  0.7313
 2935TIP3   OH230295   4.099   1.136   2.354  0.0257 -0.1737  0.0746
 2935TIP3    H130296   4.070   1.156   2.443  1.0068 -1.0939  0.6041
 2935TIP3    H230297   4.168   1.072   2.364  2.8873  2.5690 -1.0962
 2936TIP3   OH230298   0.298   1.008  11.314  0.4580  0.0226 -0.1786
 2936TIP3    H130299   0.297   1.062  11.393  1.2412  1.2230 -0.9626
 2936TIP3    H230300   0.242   1.056  11.252 -0.1010 -0.8789 -0.3863
 2937TIP3   OH230301   5.722   0.612   2.044 -0.1661  0.1808  0.3178
 2937TIP3    H130302   5.806   0.574   2.068  0.0473  0.6345  0.2856
 2937TIP3    H230303   5.734   0.706   2.053  0.3293  0.4729 -2.8012
 2938TIP3   OH230304   2.971   2.931   5.172 -0.5198 -0.4420 -0.5622
 2938TIP3    H130305   3.048   2.881   5.197 -0.3692  0.8723  1.6965
 2938TIP3    H230306   2.898   2.871   5.187 -0.1055 -0.9688 -0.6450
 2939TIP3   OH230307   6.372   3.917   5.057 -1.0363  0.1450 -0.5079
 2939TIP3    H130308   6.333   3.870   4.983 -0.9043  1.2210 -1.2608
 2939TIP3    H230309   6.297   3.953   5.105 -1.1172 -0.4819 -0.1531
 2940TIP3   OH230310   1.393   6.494   2.005  0.2574  0.2263  0.0054
 2940TIP3    H130311   1.428   6.480   2.093 -0.7034  2.2011  0.7395
 2940TIP3    H230312   1.299   6.507   2.019 -0.0810 -0.5742 -1.4526
 2941TIP3   OH230313   1.103   1.788  17.245 -0.4697 -0.4613  0.2971
 2941TIP3    H130314   1.081   1.856  17.181 -0.5002 -1.5797 -0.9106
 2941TIP3    H230315   1.072   1.707  17.204  0.7162 -1.3475  1.1538
 2942TIP3   OH230316   3.574   4.436   2.440  0.0501  0.3051 -0.2655
 2942TIP3    H130317   3.548   4.528   2.453  1.1089  0.7955 -1.5668
 2942TIP3    H230318   3.543   4.415   2.352  0.6276 -0.3015 -0.3222
 2943TIP3   OH230319   5.737   1.879   0.522 -0.2635  0.2391  0.1345
 2943TIP3    H130320   5.809   1.941   0.518 -1.1011  1.2652  0.6856
 2943TIP3    H230321   5.672   1.921   0.578 -0.1168 -1.9175  1.9765
 2944TIP3   OH230322   3.090   5.529   2.491 -0.0364 -0.0657  0.1465
 2944TIP3    H130323   3.082   5.445   2.536  2.5578 -0.3667  0.1461
 2944TIP3    H230324   3.070   5.594   2.558 -1.3462 -0.6460  0.3354
 2945TIP3   OH230325   4.176   3.447  14.736 -0.2515  0.1457  0.6662
 2945TIP3    H130326   4.160   3.361  14.698  0.9110  0.9275 -1.7513
 2945TIP3    H230327   4.259   3.437  14.784  0.6046  0.2322 -0.7635
 2946TIP3   OH230328   1.242   6.610   6.044  0.3843  0.3149  0.6069
 2946TIP3    H130329   1.271   6.642   5.959  0.9306 -0.0894  0.6344
 2946TIP3    H230330   1.314   6.633   6.104 -0.1269  0.8611  1.0163
 2947TIP3   OH230331   6.286   1.466  15.522  0.2484  0.0700 -0.2081
 2947TIP3    H130332   6.264   1.507  15.606 -0.4073  0.8996 -0.7747
 2947TIP3    H230333   6.249   1.378  15.528  0.7024 -0.0788  0.5846
 2948TIP3   OH230334   1.097   4.870  13.932 -0.2132  0.0226 -0.6442
 2948TIP3    H130335   1.182   4.908  13.911  0.2432 -0.5541  0.1073
 2948TIP3    H230336   1.072   4.910  14.016 -0.9607  0.6276 -1.1458
 2949TIP3   OH230337   3.609   5.891   3.499  0.1592  0.9876 -0.0615
 2949TIP3    H130338   3.642   5.820   3.554 -1.4878  0.3480  0.1096
 2949TIP3    H230339   3.655   5.881   3.416  0.8603  0.4888  0.3841
 2950TIP3   OH230340   6.174   2.234  13.564 -0.4190 -0.2245  0.5458
 2950TIP3    H130341   6.197   2.153  13.520 -0.7543 -1.6170  2.8459
 2950TIP3    H230342   6.097   2.212  13.617  0.1341  1.2835  2.0291
 2951TIP3   OH230343   3.632   1.855  11.766  0.2734  0.4243 -0.3605
 2951TIP3    H130344   3.698   1.796  11.803  0.8578 -0.7110 -3.0589
 2951TIP3    H230345   3.680   1.906  11.701 -1.2507  0.3347 -1.5993
 2952TIP3   OH230346   3.286   5.467  16.407 -0.0686  0.0746  0.6696
 2952TIP3    H130347   3.288   5.415  16.487 -1.5080 -1.1121 -0.0292
 2952TIP3    H230348   3.332   5.414  16.342  3.0150  1.9964  1.2221
 2953TIP3   OH230349   4.294   0.281   1.762 -0.1848 -0.0784 -0.1858
 2953TIP3    H130350   4.374   0.327   1.787 -0.1706  0.3071 -0.9527
 2953TIP3    H230351   4.224   0.330   1.806 -0.1423  0.4908 -0.7544
 2954TIP3   OH230352   4.474   0.279   4.053  0.1753  0.1392  0.5497
 2954TIP3    H130353   4.463   0.185   4.045  0.7368  0.0864  0.3272
 2954TIP3    H230354   4.565   0.295   4.025  0.1313  0.7235  0.7264
 2955TIP3   OH230355   0.237   3.906  15.003 -0.8864  0.7060  0.1496
 2955TIP3    H130356   0.154   3.950  14.983 -1.4388 -0.0366  0.7532
 2955TIP3    H230357   0.264   3.866  14.921 -0.0116  2.7564 -0.5862
 2956TIP3   OH230358   4.035   0.064  11.776 -1.1045  0.5494  0.6065
 2956TIP3    H130359   4.119   0.108  11.767 -0.1282 -1.3336  0.2417
 2956TIP3    H230360   4.041   0.016  11.859 -1.9285  0.6283  0.7168
 2957TIP3   OH230361   5.783   4.876  16.915  0.2750 -0.2777  0.2735
 2957TIP3    H130362   5.754   4.942  16.853 -0.4464 -0.7528  0.1060
 2957TIP3    H230363   5.732   4.798  16.893  0.1653 -0.5063  1.3191
 2958TIP3   OH230364   2.008   3.817  11.743 -0.2107 -0.4912 -0.1056
 2958TIP3    H130365   1.958   3.826  11.824  0.2059  1.4439 -0.0304
 2958TIP3    H230366   1.942   3.795  11.677 -1.0469  1.0199  0.1865
 2959TIP3   OH230367   4.080   4.602  12.584  0.1051  0.1380 -0.4036
 2959TIP3    H130368   4.148   4.646  12.533 -0.2114  0.7287 -0.3143
 2959TIP3    H230369   4.059   4.523  12.533 -0.9326  1.2410 -1.7229
 2960TIP3   OH230370   5.388   3.643  12.295 -0.4527  0.4406 -0.1612
 2960TIP3    H130371   5.371   3.720  12.350 -0.8904  1.2246 -1.3706
 2960TIP3    H230372   5.479   3.621  12.313 -0.3650  1.1557  0.3154
 2961TIP3   OH230373   3.315   4.806  11.277 -0.6225 -0.3854 -0.1393
 2961TIP3    H130374   3.291   4.791  11.368 -0.4997 -1.1482 -0.2264
 2961TIP3    H230375   3.393   4.862  11.281  0.0721 -1.3769  0.2549
 2962TIP3   OH230376   1.155   2.042   0.370  0.6348  0.2618 -0.4131
 2962TIP3    H130377   1.082   2.022   0.311  2.1776  1.1158 -2.6878
 2962TIP3    H230378   1.159   1.966   0.429 -2.4057  0.4541  0.1499
 2963TIP3   OH230379   3.777   6.064   0.234 -0.1738 -0.5268  0.4945
 2963TIP3    H130380   3.776   6.107   0.320 -1.0435 -1.9731  1.2355
 2963TIP3    H230381   3.706   6.104   0.185 -1.4221 -1.5582  1.4228
 2964TIP3   OH230382   3.696   2.976   5.759 -0.4210  0.3219  0.0876
 2964TIP3    H130383   3.698   2.943   5.849 -1.0411  0.0237 -0.0044
 2964TIP3    H230384   3.644   3.056   5.764  0.2187  0.7430  0.1295
 2965TIP3   OH230385   5.573   3.281  14.002  0.1306 -0.4811  0.1355
 2965TIP3    H130386   5.529   3.231  14.072  0.3345  0.5985  1.0521
 2965TIP3    H230387   5.650   3.318  14.045  0.6094 -0.3439 -0.8415
 2966TIP3   OH230388   3.164   2.471  12.600  0.3645 -0.2926  0.4599
 2966TIP3    H130389   3.212   2.412  12.542 -0.4263 -0.5299  0.0419
 2966TIP3    H230390   3.121   2.414  12.664  1.6270  0.0012  1.5842
 2967TIP3   OH230391   4.280   2.032   1.859  0.1854  0.2782  0.2989
 2967TIP3    H130392   4.343   2.001   1.923  0.2897  0.9955  0.5417
 2967TIP3    H230393   4.283   1.966   1.789  0.7256 -0.0277  0.6075
 2968TIP3   OH230394   1.311   5.960  14.429 -0.0268 -0.0858 -0.3751
 2968TIP3    H130395   1.225   5.987  14.398 -0.0345  0.7396  0.3392
 2968TIP3    H230396   1.361   5.943  14.350 -0.7970 -0.3948 -0.7987
 2969TIP3   OH230397   4.236   5.509  14.990 -0.1029  0.5731  0.2715
 2969TIP3    H130398   4.151   5.552  14.998 -0.4596  0.1037 -1.0329
 2969TIP3    H230399   4.216   5.417  14.975  0.6503  0.2360  1.2557
 2970TIP3   OH230400   5.663   3.978  16.101 -0.9903  0.4093 -0.0007
 2970TIP3    H130401   5.608   3.945  16.030  0.2490 -1.6919 -0.0159
 2970TIP3    H230402   5.632   3.932  16.179 -0.0299  0.0810  0.1934
 2971TIP3   OH230403   2.142   5.428  14.334  0.2533  0.4787  1.0777
 2971TIP3    H130404   2.182   5.510  14.363  1.6472 -0.2383  1.1983
 2971TIP3    H230405   2.048   5.445  14.338  0.5142  1.8300  1.8057
 2972TIP3   OH230406   6.789   6.143   1.311 -0.1088  0.7804 -0.5431
 2972TIP3    H130407   6.744   6.109   1.387  0.3446  0.6183 -0.3430
 2972TIP3    H230408   6.834   6.221   1.343  3.5900 -1.6020  0.4422
 2973TIP3   OH230409   0.109   3.099  16.999  0.1748  0.0526  0.4435
 2973TIP3    H130410   0.091   3.163  17.067  1.2484  0.7602  0.0915
 2973TIP3    H230411   0.029   3.095  16.947 -0.6337 -0.4715  1.7228
 2974TIP3   OH230412   1.243   2.247   1.870  0.0331  0.2320 -0.4229
 2974TIP3    H130413   1.321   2.192   1.882 -1.5083 -1.8521  0.4275
 2974TIP3    H230414   1.263   2.328   1.915  0.0466 -1.9670  3.7587
 2975TIP3   OH230415   4.946   3.797   6.003  0.6251  0.0577  0.1537
 2975TIP3    H130416   5.040   3.789   6.023  0.6700 -1.3360 -0.6079
 2975TIP3    H230417   4.943   3.846   5.921  0.7347 -0.7662 -0.3482
 2976TIP3   OH230418   2.087   4.376  11.796  0.1803  0.0755  0.5513
 2976TIP3    H130419   2.023   4.411  11.859  0.3429 -0.5417  1.0615
 2976TIP3    H230420   2.049   4.294  11.766  0.5825 -0.1327  0.6123
 2977TIP3   OH230421   5.584   2.071   5.108  0.3350 -0.1908 -0.1192
 2977TIP3    H130422   5.595   2.147   5.166 -0.7948  0.5296 -0.8280
 2977TIP3    H230423   5.549   2.108   5.027  0.4467 -1.3926 -0.7217
 2978TIP3   OH230424   6.470   2.466   6.328 -0.0806  0.0458  0.1227
 2978TIP3    H130425   6.493   2.401   6.394 -0.5254 -0.0555  0.1797
 2978TIP3    H230426   6.547   2.470   6.271 -0.2680 -0.9515 -0.2108
 2979TIP3   OH230427   2.688   2.392  14.601  0.3230  0.2815  0.5136
 2979TIP3    H130428   2.747   2.385  14.675  0.7201 -1.1302  0.0704
 2979TIP3    H230429   2.742   2.427  14.530  0.0154  1.3522  0.8028
 2980TIP3   OH230430   6.602   5.362   5.979  0.1147  0.3211 -0.2737
 2980TIP3    H130431   6.544   5.318   5.917 -1.3499  0.0446  1.2774
 2980TIP3    H230432   6.661   5.413   5.923 -2.0911  1.2309 -1.8593
 2981TIP3   OH230433   1.112   3.474  13.872 -0.0995 -0.0303  0.3859
 2981TIP3    H130434   1.207   3.477  13.856 -0.7946 -0.3411 -4.4590
 2981TIP3    H230435   1.086   3.565  13.880  0.0199  0.3122 -2.6517
 2982TIP3   OH230436   3.441   4.253  16.725 -0.5348  0.2152 -0.5855
 2982TIP3    H130437   3.380   4.259  16.651 -2.8406 -0.9575  1.1760
 2982TIP3    H230438   3.424   4.167  16.763  1.2738  0.4392  0.7770
 2983TIP3   OH230439   5.153   6.424  12.423 -0.1106 -0.0668  0.1622
 2983TIP3    H130440   5.195   6.474  12.493 -0.8674 -0.2835  0.7769
 2983TIP3    H230441   5.163   6.333  12.450  1.3193 -0.2715 -0.9892
 2984TIP3   OH230442   1.188   3.263  13.434  0.1929 -0.1293  0.2926
 2984TIP3    H130443   1.188   3.338  13.494  1.1822 -0.6313  0.9232
 2984TIP3    H230444   1.109   3.214  13.456 -0.2722  0.5334  0.1146
 2985TIP3   OH230445   2.332   3.592   2.756  0.4801 -0.5813 -0.1514
 2985TIP3    H130446   2.380   3.610   2.837 -1.1105 -1.1144  0.9246
 2985TIP3    H230447   2.316   3.679   2.719  2.5726 -0.4130 -0.7154
 2986TIP3   OH230448   6.473   1.021   4.528  0.3680  0.0244 -0.9524
 2986TIP3    H130449   6.433   1.023   4.615  1.1446 -0.7478 -0.5683
 2986TIP3    H230450   6.454   1.107   4.491  0.4023  0.5209  0.1539
 2987TIP3   OH230451   4.478   0.656   0.782 -0.4050 -0.2018  0.0380
 2987TIP3    H130452   4.460   0.725   0.718  0.2828  1.4860  1.6361
 2987TIP3    H230453   4.528   0.591   0.733 -0.1477  0.9095 -1.2144
 2988TIP3   OH230454   6.157   4.912  11.753 -0.1131 -0.1503 -0.0949
 2988TIP3    H130455   6.233   4.948  11.798 -0.1755 -0.8622  0.6036
 2988TIP3    H230456   6.186   4.897  11.663 -0.0514  1.4940 -0.3589
 2989TIP3   OH230457   2.983   4.365  13.110  0.1336  0.0093 -0.6454
 2989TIP3    H130458   2.972   4.454  13.076  0.0392  0.2648  0.0529
 2989TIP3    H230459   2.906   4.351  13.166  0.7354 -0.0858  0.1621
 2990TIP3   OH230460   2.044   2.361   4.706  0.8429 -0.5190 -0.2549
 2990TIP3    H130461   2.067   2.417   4.632  0.9716  1.9762  1.6215
 2990TIP3    H230462   1.957   2.391   4.733  1.3777 -0.4363  1.4681
 2991TIP3   OH230463   6.156   6.733   6.208  0.7994 -0.3588  0.3007
 2991TIP3    H130464   6.163   6.743   6.113 -0.3776  2.2252  0.4492
 2991TIP3    H230465   6.094   6.662   6.220  1.2264 -0.9447 -0.8711
 2992TIP3   OH230466   3.986   3.113  11.329 -0.8866  0.0988  0.4743
 2992TIP3    H130467   4.073   3.131  11.292 -0.1158  0.0705  2.2431
 2992TIP3    H230468   3.935   3.191  11.308 -0.8172 -0.3948 -1.6691
 2993TIP3   OH230469   6.357   3.765   0.549 -0.2505 -0.5279 -0.3412
 2993TIP3    H130470   6.289   3.774   0.616  0.6648  0.7556  0.4271
 2993TIP3    H230471   6.412   3.693   0.580 -0.1981 -0.3601 -0.0460
 2994TIP3   OH230472   4.245   6.164   2.376 -0.0272  0.0862  0.2113
 2994TIP3    H130473   4.157   6.183   2.343  0.0464  1.2108  0.6073
 2994TIP3    H230474   4.297   6.146   2.298 -0.1171  1.5937 -0.2254
 2995TIP3   OH230475   2.630   3.824  12.301 -0.0949 -0.1945  0.4538
 2995TIP3    H130476   2.582   3.866  12.230 -0.5669  1.3303  1.6601
 2995TIP3    H230477   2.571   3.755  12.332 -1.2360  1.1949  1.4417
 2996TIP3   OH230478   6.378   5.345  12.028  0.2528  0.1452  0.7453
 2996TIP3    H130479   6.472   5.338  12.041  0.6198  0.9457 -1.2349
 2996TIP3    H230480   6.343   5.259  12.050  1.7094 -0.7982 -0.5979
 2997TIP3   OH230481   4.427   0.566  11.379  0.0471  0.0509  0.4580
 2997TIP3    H130482   4.351   0.521  11.415  0.1745  1.1058  2.0819
 2997TIP3    H230483   4.394   0.608  11.299 -1.0932  0.5189  1.1699
 2998TIP3   OH230484   1.883   1.403  11.529 -0.5001  0.0361  0.4102
 2998TIP3    H130485   1.938   1.349  11.472 -2.2123 -0.6297 -0.6386
 2998TIP3    H230486   1.851   1.343  11.596 -2.3339 -0.2451 -0.7021
 2999TIP3   OH230487   0.357   0.427  12.590 -0.7538 -0.4872 -0.1483
 2999TIP3    H130488   0.305   0.458  12.517 -0.8034 -1.2101 -0.4289
 2999TIP3    H230489   0.429   0.489  12.597 -1.2703  0.1184 -0.2041
 3000TIP3   OH230490   1.682   2.917   4.896 -0.4319  0.5766 -0.2776
 3000TIP3    H130491   1.749   2.979   4.926 -0.1974 -0.3082  1.0543
 3000TIP3    H230492   1.687   2.922   4.800  2.4797 -0.4334 -0.2416
 3001TIP3   OH230493   1.719   1.631  16.444 -0.0028  0.7853 -0.0424
 3001TIP3    H130494   1.669   1.579  16.381 -0.3629  2.0952 -0.8627
 3001TIP3    H230495   1.668   1.625  16.525 -0.1453  0.0279 -0.1872
 3002TIP3   OH230496   5.052   2.727   4.157 -0.0395 -0.1730 -0.0917
 3002TIP3    H130497   5.084   2.772   4.079  0.4799 -1.8361 -0.8671
 3002TIP3    H230498   4.974   2.679   4.127 -0.0295 -0.5588  0.4920
 3003TIP3   OH230499   0.376   0.612  12.048  0.3801 -0.3274  0.2776
 3003TIP3    H130500   0.388   0.570  11.962 -0.4827  0.1247 -0.0747
 3003TIP3    H230501   0.309   0.559  12.091  0.1980 -0.0575  0.3291
 3004TIP3   OH230502   2.923   1.627   5.323  0.2132  0.1728 -0.1310
 3004TIP3    H130503   2.913   1.685   5.247  2.3316 -0.2119 -0.7335
 3004TIP3    H230504   2.847   1.569   5.318  0.5431 -0.1402 -2.2086
 3005TIP3   OH230505   2.061   6.550   6.355 -0.1298  0.2373 -0.0384
 3005TIP3    H130506   2.135   6.541   6.295 -0.9205 -0.1362 -0.9547
 3005TIP3    H230507   2.040   6.461   6.381 -0.5963  0.3036 -0.1895
 3006TIP3   OH230508   6.128   5.684   2.683  0.2327  0.6559  0.1306
 3006TIP3    H130509   6.124   5.593   2.712 -0.2189  0.5933 -0.1346
 3006TIP3    H230510   6.113   5.680   2.589 -1.6727  1.1886  0.4014
 3007TIP3   OH230511   5.029   0.507   5.446  1.0143 -0.2568  0.0770
 3007TIP3    H130512   4.991   0.489   5.360  1.6067  1.0681 -0.4670
 3007TIP3    H230513   5.123   0.510   5.431  1.1240  0.0030  0.7685
 3008TIP3   OH230514   2.991   6.442  13.683  0.5873  0.6908 -0.2847
 3008TIP3    H130515   2.926   6.493  13.635 -0.2377 -0.3004 -0.2284
 3008TIP3    H230516   3.052   6.412  13.615  1.4760  2.3133 -0.2315
 3009TIP3   OH230517   6.765   2.984   0.331 -0.0664 -0.9905  0.3113
 3009TIP3    H130518   6.793   2.968   0.421 -0.1184 -2.6063  0.0687
 3009TIP3    H230519   6.821   3.055   0.301  0.2351 -0.7125  1.4891
 3010TIP3   OH230520   2.238   5.504  15.857 -0.5996 -0.0535  0.2423
 3010TIP3    H130521   2.200   5.425  15.818 -1.2172 -0.1969  1.1127
 3010TIP3    H230522   2.162   5.560  15.875 -0.4915 -0.6250  2.6321
 3011TIP3   OH230523   3.999   5.062  12.158 -0.3240  0.2080 -0.3581
 3011TIP3    H130524   3.980   5.110  12.239 -2.1737 -1.9671  0.5453
 3011TIP3    H230525   3.920   5.073  12.105 -0.2863 -0.8235 -0.6398
 3012TIP3   OH230526   4.744   0.361   4.008 -0.2777  0.1680 -0.6409
 3012TIP3    H130527   4.685   0.419   3.960 -0.2675  0.6780 -0.0396
 3012TIP3    H230528   4.820   0.350   3.951 -0.2346  0.8253 -0.7076
 3013TIP3   OH230529   1.210   3.587  16.176  0.3183  0.6423 -0.0605
 3013TIP3    H130530   1.132   3.558  16.130  0.0098  0.9121  0.2915
 3013TIP3    H230531   1.183   3.667  16.221  0.1327 -0.5042  1.9660
 3014TIP3   OH230532   0.769   0.913   3.040  0.3717 -0.4293 -0.0910
 3014TIP3    H130533   0.840   0.951   2.987  0.9238 -1.8944 -0.4291
 3014TIP3    H230534   0.735   0.841   2.986 -0.0998 -0.9494  0.8908
 3015TIP3   OH230535   5.738   3.569   4.348  0.0337  0.5203 -0.1160
 3015TIP3    H130536   5.765   3.636   4.411 -6.0930  1.0992  2.2050
 3015TIP3    H230537   5.699   3.618   4.276 -2.1366 -0.3746  0.4045
 3016TIP3   OH230538   1.923   6.278   3.772 -0.2624 -0.4998  0.5964
 3016TIP3    H130539   1.900   6.186   3.760  1.0877 -0.9464  1.3075
 3016TIP3    H230540   2.018   6.279   3.770 -0.3133  1.2494 -1.8723
 3017TIP3   OH230541   3.624   0.788  10.762 -0.0064 -0.3533 -0.3867
 3017TIP3    H130542   3.641   0.752  10.849  0.3409  0.2293 -0.2073
 3017TIP3    H230543   3.529   0.794  10.756  0.0173  2.3815  1.1157
 3018TIP3   OH230544   3.855   6.003   5.674  0.2645 -0.3582  0.5252
 3018TIP3    H130545   3.761   5.987   5.665  0.1529 -0.5187  1.8784
 3018TIP3    H230546   3.894   5.952   5.604 -0.7278  0.5735 -0.7252
 3019TIP3   OH230547   4.142   0.049  13.644 -1.1656  0.0860  0.0417
 3019TIP3    H130548   4.197  -0.003  13.703 -0.0170  0.8436 -0.3431
 3019TIP3    H230549   4.061  -0.001  13.637 -1.6812  0.3983  2.9369
 3020TIP3   OH230550   1.815   6.145  16.100  0.4096  0.2471  0.3729
 3020TIP3    H130551   1.748   6.197  16.056  0.7309  0.1365 -0.2506
 3020TIP3    H230552   1.766   6.087  16.158 -0.0545 -0.0007 -0.2564
 3021TIP3   OH230553   0.835   3.445   0.425  0.1825  0.5995  0.1100
 3021TIP3    H130554   0.823   3.538   0.443  1.1535  0.8067 -0.2466
 3021TIP3    H230555   0.929   3.436   0.405 -0.0356 -0.3273 -0.5719
 3022TIP3   OH230556   2.850   2.118   4.679 -0.8053 -0.7400 -0.2968
 3022TIP3    H130557   2.832   2.154   4.766 -0.0697 -2.9330  0.7710
 3022TIP3    H230558   2.789   2.045   4.670 -0.1191 -1.2173 -1.1709
 3023TIP3   OH230559   3.461   5.138   3.711 -0.7575 -0.0698 -0.2972
 3023TIP3    H130560   3.554   5.117   3.711 -0.8826 -0.6191 -0.7403
 3023TIP3    H230561   3.457   5.229   3.681 -0.3213  0.1708  0.3395
 3024TIP3   OH230562   6.682   6.530   5.801 -0.3781 -0.1584  0.8001
 3024TIP3    H130563   6.749   6.536   5.733  0.2060 -0.0490  1.3829
 3024TIP3    H230564   6.677   6.437   5.822  0.0070 -0.1014  1.1617
 3025TIP3   OH230565   3.763   1.719   3.346  0.1474 -0.0819 -0.7236
 3025TIP3    H130566   3.846   1.764   3.328  0.3627 -0.0968  0.2212
 3025TIP3    H230567   3.716   1.778   3.405  0.1051 -0.7428 -0.0933
 3026TIP3   OH230568   1.010   1.777   6.180  0.6571  0.2396 -0.2219
 3026TIP3    H130569   1.070   1.823   6.121  0.0685  0.2655 -0.8152
 3026TIP3    H230570   1.033   1.685   6.172 -0.3442  0.0971 -1.5770
 3027TIP3   OH230571   3.609   0.335  15.201 -0.3606  0.5223  0.4332
 3027TIP3    H130572   3.605   0.242  15.181 -0.2113  0.4375  0.8024
 3027TIP3    H230573   3.622   0.377  15.116 -1.8262  0.3094  0.0835
 3028TIP3   OH230574   4.860   1.021  14.085  0.3175 -0.2609  0.6422
 3028TIP3    H130575   4.850   0.967  14.007  1.4539 -0.8246  0.8882
 3028TIP3    H230576   4.845   1.111  14.053 -0.7195 -0.6198  0.0805
 3029TIP3   OH230577   1.605   3.829  16.518 -0.1257  0.8202 -0.2310
 3029TIP3    H130578   1.525   3.819  16.467 -0.0324 -2.3996  0.1457
 3029TIP3    H230579   1.577   3.824  16.609  0.4840 -0.4933 -0.1011
 3030TIP3   OH230580   3.110   2.951  11.579 -0.2637 -0.2287 -0.1442
 3030TIP3    H130581   3.046   2.882  11.599  0.0028 -0.6838 -0.8292
 3030TIP3    H230582   3.068   3.005  11.513 -0.2868 -0.0071  0.0510
 3031TIP3   OH230583   1.632   4.734   2.678  0.2316 -0.4624 -0.2672
 3031TIP3    H130584   1.665   4.707   2.764  2.1116 -0.5047 -0.9730
 3031TIP3    H230585   1.653   4.661   2.620  0.2768  0.1518 -1.0385
 3032TIP3   OH230586   3.173   1.589   4.179  0.8579  0.0041  0.0755
 3032TIP3    H130587   3.210   1.635   4.103  2.1363 -0.6431  0.2944
 3032TIP3    H230588   3.191   1.496   4.162 -1.9367 -0.4819 -0.4976
 3033TIP3   OH230589   4.722   0.687  14.993 -0.2244 -0.3612  0.4755
 3033TIP3    H130590   4.671   0.606  14.993 -1.6210  0.4769  1.5582
 3033TIP3    H230591   4.726   0.713  15.086  0.7535  0.4650  0.2134
 3034TIP3   OH230592   1.361   1.651  14.126  0.7830  0.7322  0.4013
 3034TIP3    H130593   1.266   1.653  14.118  0.8529  0.8485 -0.4824
 3034TIP3    H230594   1.385   1.561  14.105  0.8772  0.7409  0.4719
 3035TIP3   OH230595   3.283   4.335   0.814  0.1900 -0.2466  0.0934
 3035TIP3    H130596   3.335   4.320   0.893  0.7959 -1.9982 -0.6292
 3035TIP3    H230597   3.193   4.325   0.843  0.2844  1.4947  1.0692
 3036TIP3   OH230598   0.258   4.040   3.479  0.0738 -0.1004 -0.1153
 3036TIP3    H130599   0.281   4.116   3.532 -1.7563  0.3686  0.0509
 3036TIP3    H230600   0.229   3.974   3.542 -0.0428 -0.2962 -0.3699
 3037TIP3   OH230601   5.635   5.625   5.033  0.7191  0.2624 -0.5429
 3037TIP3    H130602   5.697   5.698   5.030  0.7459  0.2424 -0.4745
 3037TIP3    H230603   5.618   5.604   4.941  1.8787 -0.6433 -0.5648
 3038TIP3   OH230604   2.436   0.579  16.988 -0.0867  0.4037  0.0294
 3038TIP3    H130605   2.357   0.625  17.018  0.0734  1.9804 -1.8253
 3038TIP3    H230606   2.485   0.646  16.939  0.8174 -1.3953 -1.5986
 3039TIP3   OH230607   6.268   6.505  17.058  0.1100 -0.2707  0.1578
 3039TIP3    H130608   6.312   6.541  17.135 -2.8039  2.7369  0.5426
 3039TIP3    H230609   6.237   6.419  17.086 -1.2020  0.9089  2.5452
 3040TIP3   OH230610   1.557   4.232   2.695 -0.1468  0.7522 -0.3220
 3040TIP3    H130611   1.502   4.153   2.702  0.2964  0.4930  0.2388
 3040TIP3    H230612   1.605   4.220   2.613 -0.8693  0.9455 -0.7785
 3041TIP3   OH230613   0.806   2.128   5.296 -0.5008 -0.1864 -0.0602
 3041TIP3    H130614   0.881   2.173   5.256 -1.2746 -0.7057 -2.1529
 3041TIP3    H230615   0.771   2.192   5.359  2.6089 -0.5029  2.1359
 3042TIP3   OH230616   4.261   6.181   3.739  0.3502 -0.1725 -0.2096
 3042TIP3    H130617   4.298   6.180   3.651  1.4659 -0.8793  0.2547
 3042TIP3    H230618   4.335   6.161   3.796 -0.6143 -0.9053  0.7938
 3043TIP3   OH230619   2.945   3.043  12.273 -0.3150  0.9909  0.3717
 3043TIP3    H130620   2.930   3.126  12.226  3.5527  0.7805 -1.4238
 3043TIP3    H230621   3.023   3.059  12.325 -0.3621 -1.0955  1.1300
 3044TIP3   OH230622   0.344   2.189  11.845 -0.4161  0.2117  0.3115
 3044TIP3    H130623   0.385   2.248  11.782 -0.8734 -0.5212 -0.6699
 3044TIP3    H230624   0.320   2.111  11.795 -2.6372  0.4449  0.9378
 3045TIP3   OH230625   4.714   0.728  12.553  0.2054  0.3629  0.3397
 3045TIP3    H130626   4.669   0.706  12.635  0.1095  1.3913  0.5721
 3045TIP3    H230627   4.797   0.766  12.580  1.2599 -1.5529 -0.0926
 3046TIP3   OH230628   3.546   6.574   3.767 -0.0000 -0.3156 -0.0583
 3046TIP3    H130629   3.479   6.516   3.728  0.5565 -0.5019 -0.7475
 3046TIP3    H230630   3.623   6.561   3.712  0.3008  0.6611  0.1301
 3047TIP3   OH230631   0.776   2.206  17.292 -0.0999 -0.0037 -0.2488
 3047TIP3    H130632   0.848   2.225  17.232  0.6446 -1.0728  0.2777
 3047TIP3    H230633   0.800   2.123  17.332 -0.5932  0.6760  1.5058
 3048TIP3   OH230634   4.870   3.883  12.991  0.3031 -0.1677 -0.4229
 3048TIP3    H130635   4.916   3.935  12.925  0.3834  2.4503  1.6313
 3048TIP3    H230636   4.940   3.850  13.048 -0.0308  0.7028  0.5099
 3049TIP3   OH230637   5.115   4.352  16.522  0.5654 -0.2012  0.5731
 3049TIP3    H130638   5.138   4.306  16.442 -0.2571  1.0349 -0.3876
 3049TIP3    H230639   5.159   4.437  16.515 -0.2244  0.2526  1.0273
 3050TIP3   OH230640   2.607   3.613   3.908  0.1188 -0.0859  0.3456
 3050TIP3    H130641   2.609   3.518   3.920 -0.1633 -0.0116  1.0186
 3050TIP3    H230642   2.521   3.639   3.940 -0.3410  0.2309 -1.1201
 3051TIP3   OH230643   0.001   6.690  12.279 -0.0575  0.0396  0.4553
 3051TIP3    H130644   0.085   6.677  12.324  0.8103  0.5157 -1.0072
 3051TIP3    H230645  -0.065   6.670  12.346  1.1983  1.4161  2.1646
 3052TIP3   OH230646   4.495   6.315   6.206 -0.1665 -0.5565 -0.5206
 3052TIP3    H130647   4.468   6.224   6.217 -2.1565 -0.0276 -0.9143
 3052TIP3    H230648   4.447   6.346   6.130  0.6534  0.7734 -0.5145
 3053TIP3   OH230649   3.855   6.716  13.455  0.0067 -0.0479 -0.0988
 3053TIP3    H130650   3.858   6.621  13.464  1.0484  0.1280  1.6502
 3053TIP3    H230651   3.833   6.748  13.542  0.2053  1.3512 -0.5470
 3054TIP3   OH230652   5.229   1.638   2.090 -0.1884 -0.1127  0.1908
 3054TIP3    H130653   5.225   1.587   2.009  0.5916  0.5751 -0.3005
 3054TIP3    H230654   5.320   1.630   2.119 -0.6054 -0.8453  1.3351
 3055TIP3   OH230655   1.461   1.413   1.347 -0.1673  0.6006  0.0854
 3055TIP3    H130656   1.384   1.457   1.310 -0.3433  1.1931  1.1194
 3055TIP3    H230657   1.510   1.381   1.271  0.6186  3.6839 -0.7563
 3056TIP3   OH230658   1.205   5.390   1.806 -0.2036 -0.2206  0.2063
 3056TIP3    H130659   1.135   5.447   1.838  0.8224  0.6263  1.0277
 3056TIP3    H230660   1.284   5.444   1.815  0.2195 -0.1597 -3.2651
 3057TIP3   OH230661   0.787   2.660   1.191  0.0734  0.3738 -0.1069
 3057TIP3    H130662   0.767   2.573   1.156  0.0287  0.3380  0.0089
 3057TIP3    H230663   0.820   2.643   1.280  0.8019  0.4092 -0.3603
 3058TIP3   OH230664   0.661   4.338  16.274 -1.0212 -0.0856  0.3296
 3058TIP3    H130665   0.656   4.250  16.310 -0.0779 -0.4278 -0.3536
 3058TIP3    H230666   0.657   4.326  16.179  1.3136  0.4065  0.1320
 3059TIP3   OH230667   2.416   3.263   0.881 -0.3964  0.4016 -0.1454
 3059TIP3    H130668   2.342   3.276   0.942  0.0522  1.7882  0.1129
 3059TIP3    H230669   2.389   3.307   0.801 -1.0635 -1.5862 -1.0435
 3060TIP3   OH230670   0.812   0.321   6.621  0.3961 -0.4566  0.3023
 3060TIP3    H130671   0.806   0.226   6.624 -1.8241 -0.3301  0.7156
 3060TIP3    H230672   0.752   0.351   6.689 -2.1836  1.3169 -2.6364
 3061TIP3   OH230673   4.996   1.152   5.793 -0.3639 -0.1916  0.3721
 3061TIP3    H130674   4.963   1.181   5.708 -0.5846  0.3069  0.6247
 3061TIP3    H230675   5.053   1.223   5.822  1.0327 -1.1006 -0.1096
 3062TIP3   OH230676   0.400   0.699  16.118  0.2256 -0.1811 -0.2536
 3062TIP3    H130677   0.336   0.747  16.066  2.3580  0.8660 -1.9928
 3062TIP3    H230678   0.352   0.672  16.196 -3.1182 -1.9300 -2.7863
 3063TIP3   OH230679   0.405   1.305   3.011  0.4798 -0.4434  0.3788
 3063TIP3    H130680   0.444   1.224   3.044  0.8007  0.0492  1.2370
 3063TIP3    H230681   0.334   1.325   3.072  0.2840 -0.1728  0.0678
 3064TIP3   OH230682   2.959   3.485  10.580  0.0298  0.2358  0.0091
 3064TIP3    H130683   2.994   3.472  10.491  0.0203  2.1113 -0.2772
 3064TIP3    H230684   2.865   3.496  10.568 -0.1118 -0.5272  0.3671
 3065TIP3   OH230685   2.097   4.402   1.696  0.0302  0.5074 -0.5440
 3065TIP3    H130686   2.049   4.442   1.768 -0.5253 -1.2009  0.0501
 3065TIP3    H230687   2.034   4.343   1.655  0.6551  0.6898 -1.7918
 3066TIP3   OH230688   2.555   4.335   2.529  0.1157  0.0922  0.1861
 3066TIP3    H130689   2.560   4.259   2.587  0.3031  0.4398  0.6264
 3066TIP3    H230690   2.550   4.410   2.589 -2.4604  0.2776 -0.2083
 3067TIP3   OH230691   0.850   0.263  12.107 -0.0654  0.1594 -0.5317
 3067TIP3    H130692   0.840   0.296  12.018  0.5633 -1.0250 -1.0440
 3067TIP3    H230693   0.761   0.250  12.138 -0.3440 -4.9315 -3.0621
 3068TIP3   OH230694   1.608   3.906   3.646  0.3379  0.1457  0.1750
 3068TIP3    H130695   1.639   3.872   3.729  0.2394  0.7070  0.4449
 3068TIP3    H230696   1.549   3.978   3.669  2.3601  2.0274 -0.4163
 3069TIP3   OH230697   2.109   4.780  11.460 -0.1539 -0.0717 -0.5446
 3069TIP3    H130698   2.122   4.792  11.366  0.5106  2.5361 -0.1620
 3069TIP3    H230699   2.186   4.730  11.489 -0.7573 -1.5863 -1.4877
 3070TIP3   OH230700   0.156   2.824   2.007  0.1253 -0.1219  0.3687
 3070TIP3    H130701   0.106   2.898   2.043 -0.3230 -0.8591  1.2919
 3070TIP3    H230702   0.152   2.757   2.075  0.7411 -0.9136 -0.3588
 3071TIP3   OH230703   4.774   0.354   1.361 -0.1442 -0.5696 -0.0855
 3071TIP3    H130704   4.795   0.404   1.440  1.0536 -1.4646  0.1742
 3071TIP3    H230705   4.700   0.400   1.322  0.0626  0.6021  0.8941
 3072TIP3   OH230706   6.719   1.584   0.377 -0.1542 -0.1359  0.2956
 3072TIP3    H130707   6.786   1.624   0.322  0.9363 -0.8050  1.1217
 3072TIP3    H230708   6.735   1.490   0.371 -0.7396 -0.2756  0.8442
 3073TIP3   OH230709   2.022   1.642  11.233 -0.5945 -0.2618 -0.0782
 3073TIP3    H130710   2.111   1.673  11.248 -0.3712 -0.2373 -1.3630
 3073TIP3    H230711   1.985   1.704  11.170 -1.3181 -0.5986  0.0061
 3074TIP3   OH230712   2.223   6.788  17.217 -0.3814 -0.5358 -0.3964
 3074TIP3    H130713   2.153   6.822  17.272 -0.1518  0.3727 -0.6552
 3074TIP3    H230714   2.178   6.733  17.153 -0.7313 -0.9363  0.1852
 3075TIP3   OH230715   0.531   4.639  14.155  0.1536 -0.2744  0.2166
 3075TIP3    H130716   0.440   4.639  14.184 -0.1964 -1.5961 -0.8370
 3075TIP3    H230717   0.567   4.556  14.186  1.4075  0.8387  1.8140
 3076TIP3   OH230718   4.568   1.606  15.022 -0.2865  0.1818  0.3723
 3076TIP3    H130719   4.547   1.526  15.071  0.3871 -0.3997 -0.2639
 3076TIP3    H230720   4.492   1.662  15.034 -0.3856 -0.1883  1.5809
 3077TIP3   OH230721   3.388   6.170  13.481 -0.1475  0.6683  0.4323
 3077TIP3    H130722   3.381   6.143  13.390  1.5216  2.1688 -0.1630
 3077TIP3    H230723   3.481   6.160  13.502 -0.6186 -0.2675  2.1719
 3078TIP3   OH230724   0.965   2.540   0.027 -0.0713  0.2604  0.0305
 3078TIP3    H130725   1.021   2.463   0.018 -0.0765  0.1484  0.8565
 3078TIP3    H230726   1.002   2.605  -0.033 -0.4125 -0.5792 -1.1035
 3079TIP3   OH230727   5.948   4.041  17.163  0.1253 -0.1185  0.6678
 3079TIP3    H130728   5.856   4.060  17.149  0.2479 -0.9704 -1.3887
 3079TIP3    H230729   5.961   4.054  17.257 -1.8291  1.0384  0.8001
 3080TIP3   OH230730   3.708   2.417   2.597 -0.0313 -0.2843 -0.6754
 3080TIP3    H130731   3.788   2.444   2.642 -0.6599 -0.9214  0.8469
 3080TIP3    H230732   3.679   2.339   2.644 -0.4730 -1.2342 -2.4580
 3081TIP3   OH230733   5.343   5.890   1.158 -0.0814 -0.2874 -0.0298
 3081TIP3    H130734   5.434   5.903   1.134 -0.2466 -1.6650 -1.4981
 3081TIP3    H230735   5.338   5.797   1.183 -1.7733 -1.1700 -3.3771
 3082TIP3   OH230736   0.290   6.528  11.360 -0.0251  0.1104  0.3008
 3082TIP3    H130737   0.359   6.466  11.338  0.0508  0.0198  0.7956
 3082TIP3    H230738   0.223   6.514  11.293  0.9033  0.9462 -0.8224
 3083TIP3   OH230739   4.819   1.984   1.857  1.3777 -0.1523  0.0122
 3083TIP3    H130740   4.746   2.016   1.804  1.9263  1.1797  0.0454
 3083TIP3    H230741   4.813   1.889   1.851  0.4274 -0.0326 -1.0608
 3084TIP3   OH230742   3.202   6.284   1.546 -0.2395  0.1593  0.4422
 3084TIP3    H130743   3.228   6.302   1.456  0.0594 -2.0625  0.0455
 3084TIP3    H230744   3.256   6.343   1.599 -0.2403  1.3090 -0.8007
 3085TIP3   OH230745   0.837   4.034  15.914 -0.0719  0.3306  0.1099
 3085TIP3    H130746   0.911   4.075  15.869  0.0644 -1.5136 -1.4239
 3085TIP3    H230747   0.873   4.006  15.998  1.1387 -0.9815 -0.8115
 3086TIP3   OH230748   6.446   2.717  12.648 -0.3854  0.0691 -0.1377
 3086TIP3    H130749   6.374   2.659  12.672 -1.3279  0.8475 -1.0120
 3086TIP3    H230750   6.494   2.670  12.580  0.0660 -0.5466  0.6073
 3087TIP3   OH230751   2.734   0.599   2.328 -0.1639  0.0121  0.3292
 3087TIP3    H130752   2.752   0.668   2.264  0.3473  0.1213  0.5870
 3087TIP3    H230753   2.812   0.543   2.325 -0.9252 -1.0086 -0.4654
 3088TIP3   OH230754   5.654   5.625  14.934 -0.1202 -0.0708  0.1592
 3088TIP3    H130755   5.674   5.531  14.934  1.3847  0.2453 -0.1209
 3088TIP3    H230756   5.720   5.664  14.990 -0.8684  0.8190  0.4364
 3089TIP3   OH230757   1.068   1.477  15.524  0.3632 -0.5099  0.2012
 3089TIP3    H130758   1.126   1.553  15.524  1.9180 -1.5933 -2.4344
 3089TIP3    H230759   0.983   1.511  15.550  1.2486  1.9164  0.0618
 3090TIP3   OH230760   3.949   2.380   0.454 -0.2360 -0.6568  0.0253
 3090TIP3    H130761   3.990   2.467   0.457  0.2803 -0.9113  0.4097
 3090TIP3    H230762   3.864   2.395   0.411  0.2679 -0.1322 -0.8072
 3091TIP3   OH230763   6.770   5.109   3.052 -0.4248 -0.1028 -0.0796
 3091TIP3    H130764   6.742   5.017   3.048 -1.4942  0.2076  0.0061
 3091TIP3    H230765   6.861   5.105   3.079 -0.7043 -1.1172  0.7711
 3092TIP3   OH230766   0.861   2.742   4.161 -0.1698 -0.1596  0.0247
 3092TIP3    H130767   0.866   2.805   4.233  0.7909  1.7754 -1.6924
 3092TIP3    H230768   0.895   2.661   4.199  0.9024  0.9868  1.5978
 3093TIP3   OH230769   3.835   6.674  14.942  0.1403 -0.8679  0.4632
 3093TIP3    H130770   3.755   6.666  14.995  0.5392 -2.7713  0.7963
 3093TIP3    H230771   3.896   6.720  15.000  0.0715 -1.5610  1.0962
 3094TIP3   OH230772   3.899   4.579  16.928  0.1266 -0.0719  0.7824
 3094TIP3    H130773   3.990   4.602  16.910 -0.1410  0.4632  0.1523
 3094TIP3    H230774   3.881   4.617  17.014  0.9846 -1.5152  1.6200
 3095TIP3   OH230775   5.855   0.032  13.581 -0.3478  0.5350  0.0191
 3095TIP3    H130776   5.942   0.028  13.620 -0.4501 -2.3702 -0.0073
 3095TIP3    H230777   5.823   0.120  13.603  1.9471  1.0534  1.3668
 3096TIP3   OH230778   1.374   4.025   2.676 -0.6901  0.0713  0.2886
 3096TIP3    H130779   1.358   4.016   2.582  1.5437 -0.1347 -0.0863
 3096TIP3    H230780   1.286   4.028   2.715 -1.6605  1.6488 -1.9298
 3097TIP3   OH230781   5.305   2.757   4.513  0.2124 -0.5187 -0.1802
 3097TIP3    H130782   5.353   2.691   4.463  0.5513  0.2083 -0.8253
 3097TIP3    H230783   5.356   2.769   4.593  0.3386 -0.7776 -0.2211
 3098TIP3   OH230784   1.293   2.691  13.994 -0.4444  1.0581 -1.1863
 3098TIP3    H130785   1.255   2.759  14.050  0.2050  1.7150 -1.5257
 3098TIP3    H230786   1.384   2.718  13.983  0.2388 -0.7093 -0.0353
 3099TIP3   OH230787   3.953   3.292   1.849  0.2350 -0.2359  0.0012
 3099TIP3    H130788   3.976   3.336   1.931 -0.0251  0.5743 -0.3469
 3099TIP3    H230789   4.013   3.218   1.843  2.4127  1.5145 -0.6190
 3100TIP3   OH230790   5.545   4.463   1.209 -0.4909 -0.1422 -0.0783
 3100TIP3    H130791   5.506   4.437   1.125  1.9522 -2.5833 -0.5059
 3100TIP3    H230792   5.622   4.515   1.185 -0.2426 -0.1483  0.6817
 3101TIP3   OH230793   3.358   4.896   3.830 -0.7658 -0.3357  0.6600
 3101TIP3    H130794   3.368   4.991   3.824 -0.8868 -0.2288  1.8535
 3101TIP3    H230795   3.346   4.866   3.740  1.6842  0.4946  0.0317
 3102TIP3   OH230796   4.912   3.067  11.150  0.1698 -0.6347  0.5139
 3102TIP3    H130797   4.954   3.048  11.066  0.8407  0.5073  0.5783
 3102TIP3    H230798   4.830   3.111  11.127  1.0801  1.0763  0.4764
 3103TIP3   OH230799   0.191   1.924   6.419  0.1761 -0.0048 -0.2959
 3103TIP3    H130800   0.222   2.014   6.434  0.5995  0.0979 -1.7307
 3103TIP3    H230801   0.270   1.875   6.397 -0.3152 -0.3130 -1.3865
 3104TIP3   OH230802   3.626   6.781  16.057  0.4536 -0.3106 -0.2591
 3104TIP3    H130803   3.598   6.788  15.966 -0.5055 -2.6098 -0.1616
 3104TIP3    H230804   3.721   6.792  16.054  0.2249  1.6605 -1.2717
 3105TIP3   OH230805   4.434   0.414   0.357 -0.0768  0.2889  0.0863
 3105TIP3    H130806   4.395   0.333   0.390 -0.1825 -0.2917 -1.4049
 3105TIP3    H230807   4.359   0.472   0.345 -0.4160 -0.4994 -1.8632
 3106TIP3   OH230808   1.035   3.968  10.720  0.3652  0.1923  0.2133
 3106TIP3    H130809   1.117   3.929  10.750  1.2495  2.2709  0.5891
 3106TIP3    H230810   1.020   4.042  10.779 -0.4642  1.3347 -1.3757
 3107TIP3   OH230811   2.198   3.337   5.265  0.0797 -0.3077  0.3423
 3107TIP3    H130812   2.243   3.265   5.220 -0.6653 -1.4941  1.4694
 3107TIP3    H230813   2.110   3.304   5.283 -0.5370  1.1853  0.1683
 3108TIP3   OH230814   4.833   2.379   5.051  0.0764 -0.7796  0.0944
 3108TIP3    H130815   4.903   2.409   4.994 -0.5019  1.2676  0.4125
 3108TIP3    H230816   4.838   2.436   5.128 -2.8140  0.4105 -0.5142
 3109TIP3   OH230817   5.214   6.787  15.247  0.2020 -0.0389  0.1426
 3109TIP3    H130818   5.230   6.741  15.165  1.4209 -0.0770  0.3919
 3109TIP3    H230819   5.243   6.877  15.229 -1.3123  0.4083 -0.0618
 3110TIP3   OH230820   0.186   4.279  12.302  0.2724  0.5093  0.3128
 3110TIP3    H130821   0.218   4.249  12.387  0.6785  0.8645  0.2872
 3110TIP3    H230822   0.136   4.358  12.322 -0.5377  0.0014  0.3440
 3111TIP3   OH230823   2.960   1.757   6.402 -0.1587  0.3112 -0.4277
 3111TIP3    H130824   3.045   1.767   6.445 -0.4256  0.5718  0.0509
 3111TIP3    H230825   2.899   1.805   6.459 -0.6752 -0.1387 -0.6026
 3112TIP3   OH230826   4.404   3.939  15.602  0.5687  0.2094  0.3738
 3112TIP3    H130827   4.326   3.972  15.648  1.6900  0.9645  1.7696
 3112TIP3    H230828   4.435   4.014  15.551 -0.0728 -0.3303 -0.8355
 3113TIP3   OH230829   1.241   0.701  15.137 -0.5376  0.0296  0.2869
 3113TIP3    H130830   1.199   0.677  15.220  0.5979  0.8527  1.1098
 3113TIP3    H230831   1.169   0.728  15.080 -1.4456 -1.6340  0.6092
 3114TIP3   OH230832   4.881   0.137   3.629 -0.6466 -0.0461 -0.2703
 3114TIP3    H130833   4.937   0.146   3.552  1.8897  0.1923  1.5562
 3114TIP3    H230834   4.877   0.043   3.645  0.0870 -0.0027  0.1935
 3115TIP3   OH230835   1.671   1.940  12.414  0.4816  0.2154  0.2585
 3115TIP3    H130836   1.675   1.933  12.509  0.6902  0.9185  0.2995
 3115TIP3    H230837   1.592   1.991  12.396  2.2900  3.1341  0.2130
 3116TIP3   OH230838   2.086   4.478   5.091 -0.3206  0.5369  0.1123
 3116TIP3    H130839   1.991   4.485   5.107 -0.4371  1.1842 -0.7809
 3116TIP3    H230840   2.115   4.408   5.149 -1.6693 -0.9466 -0.9470
 3117TIP3   OH230841   4.397   0.360   5.231  0.1796 -0.3192 -0.0608
 3117TIP3    H130842   4.420   0.297   5.300  0.1608 -0.5363 -0.2519
 3117TIP3    H230843   4.445   0.329   5.154  0.6522  0.2480  0.0005
 3118TIP3   OH230844   4.045   3.354   4.216 -0.5917 -0.0410  0.6942
 3118TIP3    H130845   4.138   3.330   4.226 -0.5663 -0.4752 -0.4776
 3118TIP3    H230846   4.037   3.437   4.262  0.2273 -0.3290  1.3907
 3119TIP3   OH230847   2.065   4.491  14.793  0.5336 -0.0580 -0.5727
 3119TIP3    H130848   2.073   4.587  14.799  0.0056  0.0010 -0.7696
 3119TIP3    H230849   2.007   4.476  14.719 -0.4061 -0.4820  0.2290
 3120TIP3   OH230850   4.106   0.913  15.919  0.2566 -0.8622 -0.1504
 3120TIP3    H130851   4.023   0.901  15.872 -0.3544  0.2254  0.6228
 3120TIP3    H230852   4.172   0.920  15.851 -0.6758  1.1522 -0.8790
 3121TIP3   OH230853   5.712   2.099  15.646  0.2891  0.4732  0.2333
 3121TIP3    H130854   5.666   2.096  15.562  0.4562 -0.0267  0.1586
 3121TIP3    H230855   5.801   2.125  15.623  0.6986 -1.0416  0.1048
 3122TIP3   OH230856   3.396   5.579   3.746 -0.1689  0.4481  0.4442
 3122TIP3    H130857   3.460   5.646   3.772  2.3571 -1.7933  0.2003
 3122TIP3    H230858   3.407   5.510   3.811 -0.8309 -0.8868 -0.8469
 3123TIP3   OH230859   5.147   4.105   5.955 -0.2063 -0.1780  0.2927
 3123TIP3    H130860   5.151   4.184   6.009 -1.6547 -0.4813  0.8690
 3123TIP3    H230861   5.103   4.133   5.875  2.8244  0.5043 -1.1940
 3124TIP3   OH230862   2.079   6.398   0.440 -0.0666  0.1983  0.0818
 3124TIP3    H130863   2.135   6.362   0.371  0.2339 -0.0503  0.4527
 3124TIP3    H230864   1.990   6.381   0.410  0.0501  1.0814 -0.7696
 3125TIP3   OH230865   2.783   6.107  11.211  0.0460  0.0062 -0.1826
 3125TIP3    H130866   2.801   6.083  11.303 -1.3824  1.8735  0.6070
 3125TIP3    H230867   2.754   6.025  11.171 -0.2060 -0.6443  1.2727
 3126TIP3   OH230868   1.458   5.504  13.767  0.4671 -0.2817 -0.3014
 3126TIP3    H130869   1.419   5.525  13.852 -2.4212  0.1469 -1.6386
 3126TIP3    H230870   1.520   5.575  13.751  2.0956 -1.1292  2.0479
 3127TIP3   OH230871   1.135   5.486   2.259 -0.1849 -0.1747 -0.2425
 3127TIP3    H130872   1.171   5.463   2.345  0.4028  1.3534 -0.0545
 3127TIP3    H230873   1.042   5.502   2.275 -0.0619  0.1775  0.1191
 3128TIP3   OH230874   2.278   0.995  11.015 -0.5388 -0.3059  0.6255
 3128TIP3    H130875   2.243   0.944  10.942 -1.7139  1.6254 -0.1934
 3128TIP3    H230876   2.261   0.941  11.092 -0.0808 -1.9715 -0.4225
 3129TIP3   OH230877   2.505   0.919  12.889  0.1762  0.2559  0.0874
 3129TIP3    H130878   2.457   0.836  12.885 -0.0700  0.4604 -2.1945
 3129TIP3    H230879   2.437   0.986  12.891  0.3498  0.4875 -1.2675
 3130TIP3   OH230880   0.861   3.834   2.115  0.0954  0.5607 -0.0522
 3130TIP3    H130881   0.936   3.776   2.113  0.2156  0.7094  0.2426
 3130TIP3    H230882   0.801   3.797   2.050  0.3396  0.3361 -0.1507
 3131TIP3   OH230883   1.713   4.370   4.864 -0.3957 -0.0263 -0.0285
 3131TIP3    H130884   1.645   4.388   4.800  0.8670  0.1233 -1.3462
 3131TIP3    H230885   1.767   4.302   4.824  0.6859  0.4045  0.6613
 3132TIP3   OH230886   5.477   6.498  14.210  0.2096 -0.1935  0.9553
 3132TIP3    H130887   5.448   6.569  14.152  1.0062 -1.1150 -0.6139
 3132TIP3    H230888   5.555   6.533  14.253  0.1106  0.1886  0.8281
 3133TIP3   OH230889   2.300   2.532   2.600 -0.1154  0.1850 -0.6561
 3133TIP3    H130890   2.347   2.483   2.533 -2.1408 -0.2063 -1.8565
 3133TIP3    H230891   2.209   2.502   2.592 -0.3380 -0.0871  2.5093
 3134TIP3   OH230892   3.951   6.597  16.130 -0.3246 -0.0898 -0.3687
 3134TIP3    H130893   3.944   6.501  16.129 -0.6574 -0.0589 -1.5703
 3134TIP3    H230894   3.976   6.618  16.220 -0.3272 -1.3008 -0.0741
 3135TIP3   OH230895   3.214   6.314  10.618  0.2463 -0.7605  0.0238
 3135TIP3    H130896   3.188   6.391  10.669  2.5396  0.2880 -0.3230
 3135TIP3    H230897   3.288   6.344  10.566  0.6223 -2.9873 -0.7716
 3136TIP3   OH230898   4.596   1.509  16.308 -0.0778  0.0205 -0.1483
 3136TIP3    H130899   4.684   1.507  16.271 -0.2127  1.3031 -0.5714
 3136TIP3    H230900   4.543   1.457  16.248  0.6087 -1.7969  0.7678
 3137TIP3   OH230901   2.500   3.887   1.507 -0.1177 -0.4742 -0.2556
 3137TIP3    H130902   2.571   3.832   1.539 -0.1851 -0.7122 -0.5107
 3137TIP3    H230903   2.464   3.929   1.585  1.2008  0.7356 -0.2766
 3138TIP3   OH230904   6.154   3.344   5.476  0.1864 -0.3138  0.0346
 3138TIP3    H130905   6.162   3.363   5.383  0.1930  2.3207  0.5200
 3138TIP3    H230906   6.244   3.345   5.509  0.2120 -1.5709  0.0251
 3139TIP3   OH230907   0.766   5.630  10.839 -0.5886  0.1688  0.1612
 3139TIP3    H130908   0.812   5.576  10.903 -2.8939 -0.3504  1.4602
 3139TIP3    H230909   0.756   5.574  10.762 -0.4854 -0.2899  0.4806
 3140TIP3   OH230910   6.038   4.516   3.405 -0.3365  0.4954  0.2152
 3140TIP3    H130911   6.064   4.531   3.314  0.6137 -0.8615  0.2450
 3140TIP3    H230912   6.104   4.455   3.439 -1.7941 -0.5471  1.2224
 3141TIP3   OH230913   5.456   5.656   3.743  0.4440  0.0722  0.3322
 3141TIP3    H130914   5.468   5.562   3.755 -1.3552 -0.3532 -0.9152
 3141TIP3    H230915   5.506   5.696   3.814  1.1062 -1.8263  0.9703
 3142TIP3   OH230916   4.301   1.945  11.050 -0.2959  0.1266 -0.2507
 3142TIP3    H130917   4.387   1.983  11.033  0.2361 -0.8227  0.2925
 3142TIP3    H230918   4.250   1.967  10.972  0.9604 -0.8510 -1.3835
 3143TIP3   OH230919   1.923   5.110  12.919 -0.4766  0.4234  0.3896
 3143TIP3    H130920   2.013   5.109  12.953 -0.7696 -0.5450  1.1558
 3143TIP3    H230921   1.883   5.031  12.954 -1.4285  0.4908 -0.5146
 3144TIP3   OH230922   0.252   1.316   1.820  0.3085  0.1275 -0.3316
 3144TIP3    H130923   0.296   1.397   1.846  2.6696 -1.2787  0.2734
 3144TIP3    H230924   0.233   1.272   1.903 -0.5110 -0.1758 -0.6739
 3145TIP3   OH230925   0.986   3.520   0.016  0.2303  0.2641 -0.1802
 3145TIP3    H130926   0.938   3.603   0.023  0.2823  0.4637 -1.9295
 3145TIP3    H230927   1.025   3.523  -0.071  2.4534 -0.4225  0.7691
 3146TIP3   OH230928   5.647   6.627  17.136 -0.0242  0.2664 -0.4786
 3146TIP3    H130929   5.559   6.652  17.108 -0.1051  0.2631 -0.2309
 3146TIP3    H230930   5.674   6.698  17.195  0.2687  0.4335 -0.8174
 3147TIP3   OH230931   5.357   2.023   4.236  0.0322  0.0065 -0.9609
 3147TIP3    H130932   5.368   2.108   4.193 -1.1596  0.7926  0.2530
 3147TIP3    H230933   5.405   2.031   4.318 -0.8924 -0.1261 -0.3938
 3148TIP3   OH230934   4.225   6.568  11.848 -0.5675 -0.0042 -0.3313
 3148TIP3    H130935   4.293   6.606  11.793 -0.8851  1.3100  0.1659
 3148TIP3    H230936   4.161   6.638  11.859 -2.0213 -1.2157 -0.8041
 3149TIP3   OH230937   1.198   1.423   2.073 -0.2305  0.2025 -0.1147
 3149TIP3    H130938   1.113   1.388   2.048 -0.4665  1.5718 -1.2807
 3149TIP3    H230939   1.257   1.348   2.069 -1.1946 -0.5675 -0.1935
 3150TIP3   OH230940   5.349   6.444  11.321  0.0502  0.4073  0.2931
 3150TIP3    H130941   5.267   6.423  11.275 -0.1395 -1.6319  1.5027
 3150TIP3    H230942   5.328   6.523  11.371 -1.5507 -0.7623  1.5105
 3151TIP3   OH230943   0.722   1.656  15.047 -0.4347  0.1578 -0.2569
 3151TIP3    H130944   0.667   1.578  15.050  0.9859 -0.8257  1.2426
 3151TIP3    H230945   0.703   1.702  15.129  2.7756 -1.5160  1.5154
 3152TIP3   OH230946   3.743   6.470  10.460 -0.4677 -0.3742 -0.3575
 3152TIP3    H130947   3.736   6.537  10.528  2.7667  0.5256 -0.8133
 3152TIP3    H230948   3.776   6.517  10.383  1.2430 -2.3223 -0.8665
 3153TIP3   OH230949   0.939   0.864   1.517  0.3527  0.0617 -0.1176
 3153TIP3    H130950   0.984   0.872   1.602  1.6205 -2.4004 -0.5078
 3153TIP3    H230951   0.884   0.786   1.527 -0.2315  0.3303 -1.2406
 3154TIP3   OH230952   4.937   2.677   2.199 -0.4027 -0.2315  0.2450
 3154TIP3    H130953   4.934   2.680   2.294  0.1011  0.7911  0.2338
 3154TIP3    H230954   4.898   2.592   2.176  0.1659 -0.8155  1.3883
 3155TIP3   OH230955   1.409   2.952  11.887  0.0163 -0.1673 -0.2429
 3155TIP3    H130956   1.337   3.008  11.856 -0.9449 -0.8631  0.7122
 3155TIP3    H230957   1.437   2.905  11.808 -0.0277  0.7027 -0.7897
 3156TIP3   OH230958   6.646   1.259   1.052 -0.2233  0.2164 -0.4784
 3156TIP3    H130959   6.555   1.230   1.060  0.0291  0.0823  2.2159
 3156TIP3    H230960   6.697   1.178   1.058  0.2096  0.6110  1.5393
 3157TIP3   OH230961   3.174   5.771   2.027 -0.3673 -1.0172  0.1514
 3157TIP3    H130962   3.212   5.686   2.049 -0.2407 -1.2267 -0.8622
 3157TIP3    H230963   3.116   5.792   2.100  0.5086 -1.4279  0.9665
 3158TIP3   OH230964   5.143   0.936   3.207 -0.2307 -0.2361  0.3705
 3158TIP3    H130965   5.158   0.860   3.263 -0.1173  1.4809  2.7738
 3158TIP3    H230966   5.199   0.921   3.131  0.1841 -2.2818  1.0427
 3159TIP3   OH230967   3.869   6.585   3.711 -0.8075  0.2917 -0.1400
 3159TIP3    H130968   3.824   6.647   3.655  1.5568  0.7496 -1.6164
 3159TIP3    H230969   3.821   6.503   3.700 -1.0951  0.6791 -1.9256
 3160TIP3   OH230970   4.603   1.449   1.632 -0.0498  0.0513 -0.1642
 3160TIP3    H130971   4.695   1.425   1.646 -0.3351 -1.7197 -1.2535
 3160TIP3    H230972   4.553   1.379   1.674 -0.9162  0.3269 -0.7218
 3161TIP3   OH230973   2.538   6.783   2.982 -0.2322 -0.6854  0.0994
 3161TIP3    H130974   2.447   6.776   2.952 -0.1194  0.9533 -0.6599
 3161TIP3    H230975   2.590   6.775   2.903  0.1928  0.4960  0.2424
 3162TIP3   OH230976   2.470   5.530  16.291  0.1606 -0.1118  0.4979
 3162TIP3    H130977   2.455   5.444  16.332  0.0281 -0.0305  0.6197
 3162TIP3    H230978   2.404   5.534  16.222 -0.6432  0.4088  1.2847
 3163TIP3   OH230979   6.002   5.226  14.515  0.4918 -0.5263 -0.1655
 3163TIP3    H130980   5.998   5.306  14.568  0.5190 -0.2648 -0.5574
 3163TIP3    H230981   6.095   5.213  14.497  0.4353 -0.3083 -0.6165
 3164TIP3   OH230982   4.163   5.707   6.171 -0.0100 -0.4113  0.5310
 3164TIP3    H130983   4.225   5.768   6.131 -0.6346 -0.3141 -0.3035
 3164TIP3    H230984   4.206   5.622   6.166 -0.3540 -0.5016 -0.9395
 3165TIP3   OH230985   1.039   2.950   2.731  0.3812 -0.3229  0.4975
 3165TIP3    H130986   1.101   2.879   2.712  0.6319 -0.5405  2.0961
 3165TIP3    H230987   1.069   2.986   2.814 -1.4912 -0.2479  1.1554
 3166TIP3   OH230988   3.469   0.099  14.527  0.2099  0.0383 -0.5851
 3166TIP3    H130989   3.489   0.040  14.599  0.1196  1.6227  0.7598
 3166TIP3    H230990   3.394   0.058  14.483  0.0061 -0.7285  0.4522
 3167TIP3   OH230991   0.326   0.001  14.470 -0.7488 -0.3716 -0.2396
 3167TIP3    H130992   0.336  -0.052  14.549  1.9947 -0.2998 -0.4965
 3167TIP3    H230993   0.309   0.089  14.503 -0.7255 -0.5512  0.2570
 3168TIP3   OH230994   1.014   6.268   5.401  0.1294  0.1399 -0.1397
 3168TIP3    H130995   0.946   6.314   5.352 -0.9137 -0.5487  0.6495
 3168TIP3    H230996   0.987   6.275   5.492  1.8831  1.1096  0.3123
 3169TIP3   OH230997   3.174   0.002  12.037 -1.1591  0.3484  0.5894
 3169TIP3    H130998   3.079  -0.008  12.045 -1.4475  2.2098 -0.3123
 3169TIP3    H230999   3.190   0.002  11.943  0.0846 -2.6529  0.7287
 3170TIP3   OH231000   4.563   1.839  13.910 -0.1413 -0.4388 -0.6476
 3170TIP3    H131001   4.525   1.887  13.984  0.0929 -0.4012 -0.5506
 3170TIP3    H231002   4.544   1.747  13.929 -2.5407 -0.2550 -1.9460
 3171TIP3   OH231003   6.542   2.807  13.324  0.1992  0.1351 -0.5759
 3171TIP3    H131004   6.594   2.742  13.370  0.2200  0.4070 -0.2171
 3171TIP3    H231005   6.606   2.867  13.286  0.2617 -1.1301 -2.5229
 3172TIP3   OH231006   2.013   4.074  13.260  0.6385  0.1437  0.3789
 3172TIP3    H131007   1.982   4.084  13.350  0.8706 -1.9837  0.7244
 3172TIP3    H231008   2.035   4.163  13.232  0.2550  0.8694  2.3033
 3173TIP3   OH231009   3.286   4.702  17.114 -0.5613 -0.2387 -0.4669
 3173TIP3    H131010   3.326   4.713  17.201  0.9735 -1.2801 -1.0233
 3173TIP3    H231011   3.357   4.719  17.053 -1.4105 -0.4342 -1.5234
 3174TIP3   OH231012   2.842   5.603  14.990  0.2245  0.3102 -0.0317
 3174TIP3    H131013   2.852   5.693  15.023 -1.6933  0.6128 -0.2179
 3174TIP3    H231014   2.767   5.608  14.931  0.9775 -1.1382 -1.1132
 3175TIP3   OH231015   4.344   2.146   0.264 -0.6070 -0.1775  0.6083
 3175TIP3    H131016   4.437   2.158   0.244 -0.2848 -2.2484  0.7074
 3175TIP3    H231017   4.311   2.093   0.191 -1.6794  0.4236  0.6463
 3176TIP3   OH231018   0.816   4.821   5.362 -0.0240 -0.0111 -0.6287
 3176TIP3    H131019   0.839   4.808   5.270  1.2643  0.0866 -0.3359
 3176TIP3    H231020   0.860   4.749   5.408  1.2116  1.2291  0.1637
 3177TIP3   OH231021   5.565   5.048   1.137  0.6127 -0.4467 -0.1438
 3177TIP3    H131022   5.534   5.113   1.074  0.4952 -0.9632 -0.6300
 3177TIP3    H231023   5.527   5.075   1.220 -0.0837 -0.3315 -0.4922
 3178TIP3   OH231024   2.008   2.893  15.974  0.4690  0.0718 -0.1342
 3178TIP3    H131025   2.046   2.807  15.957 -0.7850 -0.4605 -0.2656
 3178TIP3    H231026   1.966   2.884  16.059  1.1101  0.8259  0.2703
 3179TIP3   OH231027   1.544   0.962   0.849  0.0415 -0.6051  0.1669
 3179TIP3    H131028   1.498   0.954   0.932 -1.5451  1.8626 -0.4551
 3179TIP3    H231029   1.481   1.002   0.789  1.9983  0.0204 -1.5410
 3180TIP3   OH231030   3.227   5.410  15.721  0.4319 -0.6518  0.4548
 3180TIP3    H131031   3.161   5.351  15.758 -1.6396  1.1161 -0.3197
 3180TIP3    H231032   3.236   5.480  15.786  0.3857 -0.0783 -0.1506
 3181TIP3   OH231033   2.735   0.137  13.030 -0.0878  0.8468 -0.3290
 3181TIP3    H131034   2.715   0.226  13.061  1.4868  1.3135 -0.6034
 3181TIP3    H231035   2.783   0.097  13.103  1.4069  1.0813 -1.1788
 3182TIP3   OH231036   3.061   2.386  13.501 -0.3378 -0.3090  0.1082
 3182TIP3    H131037   3.076   2.406  13.593  1.5021 -5.4393  1.1217
 3182TIP3    H231038   3.141   2.414  13.456 -0.9609  1.5665  0.1295
 3183TIP3   OH231039   6.240   4.010   4.068 -0.0702  0.4478  0.0318
 3183TIP3    H131040   6.240   3.969   4.155 -0.9407 -2.0001 -1.0837
 3183TIP3    H231041   6.297   3.954   4.016 -0.1657  1.4707 -1.1931
 3184TIP3   OH231042   4.586   1.230   5.755 -0.1897 -0.9043  0.6164
 3184TIP3    H131043   4.585   1.219   5.850  1.5870 -0.7691  0.6681
 3184TIP3    H231044   4.668   1.277   5.737 -1.9435  1.7759 -0.7034
 3185TIP3   OH231045   4.712   2.504  14.340  0.3606 -0.3104 -0.2679
 3185TIP3    H131046   4.793   2.510  14.392 -0.6901  0.8313  1.2677
 3185TIP3    H231047   4.696   2.411  14.332  1.0327 -0.5195  0.6975
 3186TIP3   OH231048   0.971   6.208  14.744 -0.1764  0.3629  0.0426
 3186TIP3    H131049   1.017   6.292  14.736  0.1727  0.1010 -0.7732
 3186TIP3    H231050   0.879   6.229  14.735 -0.3199  1.0436  2.7749
 3187TIP3   OH231051   1.372   1.482   4.981 -0.0248 -0.0139  0.2452
 3187TIP3    H131052   1.461   1.508   5.001  0.4377 -2.9208  2.4040
 3187TIP3    H231053   1.319   1.558   5.004  1.6274  0.6496  2.0220
 3188TIP3   OH231054   1.362   1.527  15.456  0.1321 -0.1446  0.5370
 3188TIP3    H131055   1.334   1.609  15.416 -2.0375 -1.4155 -0.6158
 3188TIP3    H231056   1.354   1.462  15.387  1.4837 -1.4241  1.5387
 3189TIP3   OH231057   4.012   1.726  12.029 -0.4764  0.5056 -0.1267
 3189TIP3    H131058   4.014   1.788  12.101  1.0191 -0.0374  0.3303
 3189TIP3    H231059   4.071   1.763  11.963 -0.6576  0.2638 -0.4299
 3190TIP3   OH231060   3.039   0.867  15.963  0.1051 -0.0241  0.3691
 3190TIP3    H131061   3.045   0.955  15.925 -0.2948 -0.4689 -0.7446
 3190TIP3    H231062   3.016   0.810  15.889  2.0030 -1.3258  0.7311
 3191TIP3   OH231063   3.965   4.429   4.242 -0.3413 -0.6450  0.1346
 3191TIP3    H131064   3.898   4.407   4.307 -0.0716 -0.3284  0.5194
 3191TIP3    H231065   3.982   4.522   4.256  0.4305 -0.8092  0.2730
 3192TIP3   OH231066   2.567   4.733  11.752  0.7396 -0.3205 -0.0577
 3192TIP3    H131067   2.512   4.732  11.674 -0.0514 -1.3735  0.5071
 3192TIP3    H231068   2.640   4.790  11.729 -1.1561  2.0504 -0.4221
 3193TIP3   OH231069   5.455   0.200  16.918  0.5758 -0.1902  0.5024
 3193TIP3    H131070   5.526   0.135  16.917  1.7545  1.0831 -0.7651
 3193TIP3    H231071   5.458   0.239  16.831  0.9991  2.7847  1.8100
 3194TIP3   OH231072   5.832   4.674   0.317 -0.5246  0.0276 -0.0064
 3194TIP3    H131073   5.861   4.758   0.352 -0.8510 -0.0388  0.4203
 3194TIP3    H231074   5.756   4.695   0.264  0.1204  0.1609 -0.8871
 3195TIP3   OH231075   1.542   1.460  15.988  0.0005 -0.0101  0.3203
 3195TIP3    H131076   1.580   1.378  16.022  0.6488  0.8469  1.6925
 3195TIP3    H231077   1.523   1.441  15.896  1.0838 -1.3801  0.3670
 3196TIP3   OH231078   3.210   3.851   0.932  0.2966 -0.1832  0.3538
 3196TIP3    H131079   3.271   3.837   0.859  0.9108 -0.1815  0.8717
 3196TIP3    H231080   3.126   3.821   0.897  0.1298  1.8625 -1.1301
 3197TIP3   OH231081   6.231   3.423   1.298 -0.4403 -0.0110 -0.3392
 3197TIP3    H131082   6.189   3.382   1.374 -0.8256  0.9836 -0.0197
 3197TIP3    H231083   6.159   3.463   1.249  0.0774  1.3518 -0.0071
 3198TIP3   OH231084   0.662   4.674  13.078 -0.2219  0.2156  0.1705
 3198TIP3    H131085   0.698   4.754  13.039 -1.8756  0.6616 -0.4960
 3198TIP3    H231086   0.642   4.699  13.169 -1.9378  0.9485 -0.4013
 3199TIP3   OH231087   5.063   4.663   5.058  0.6211 -0.2728 -0.0529
 3199TIP3    H131088   5.108   4.642   5.140  1.4158 -0.5871 -0.5647
 3199TIP3    H231089   5.074   4.584   5.004  1.0604  0.3419 -0.8763
 3200TIP3   OH231090   4.167   6.173   2.989 -0.1613  0.2646  0.0552
 3200TIP3    H131091   4.228   6.234   3.030 -0.1388 -0.8533  1.7076
 3200TIP3    H231092   4.212   6.144   2.910  0.4932  1.1649  0.0807
 3201TIP3   OH231093   5.223   4.651   5.284  0.3574 -0.2735  0.0871
 3201TIP3    H131094   5.243   4.735   5.324  0.7368 -0.6173  0.6125
 3201TIP3    H231095   5.225   4.588   5.356  0.8738 -0.8648 -0.4335
 3202TIP3   OH231096   2.000   4.891   3.536  0.2997  0.5189 -0.9125
 3202TIP3    H131097   1.996   4.812   3.590  1.2719  1.2347  0.2418
 3202TIP3    H231098   1.913   4.930   3.544 -0.1015 -0.2914 -1.2718
 3203TIP3   OH231099   1.984   3.647  12.466 -0.1758 -0.1167 -0.0281
 3203TIP3    H131100   1.990   3.632  12.560 -1.8506  1.6159  0.3832
 3203TIP3    H231101   2.026   3.732  12.452 -1.1674  0.2879 -0.6317
 3204TIP3   OH231102   2.009   3.138   1.215 -0.0229  0.5351  0.5676
 3204TIP3    H131103   2.090   3.114   1.170 -0.1855 -1.5927  1.3257
 3204TIP3    H231104   1.968   3.203   1.159  1.1101 -0.0666 -0.9858
 3205TIP3   OH231105   5.747   3.832  12.736 -0.7628  0.7459  0.4248
 3205TIP3    H131106   5.725   3.922  12.712 -0.1565  1.0159  0.8656
 3205TIP3    H231107   5.764   3.836  12.830 -2.5331 -0.1899  0.8018
 3206TIP3   OH231108   5.973   1.944  14.911  0.0075 -0.1386  0.3781
 3206TIP3    H131109   5.883   1.957  14.943 -0.2721 -0.2433 -0.3460
 3206TIP3    H231110   5.965   1.874  14.846  0.2391  1.2959 -1.2352
 3207TIP3   OH231111   4.968   1.642  17.150 -0.9345 -0.3561 -0.1439
 3207TIP3    H131112   4.979   1.582  17.077 -1.2482  1.1132 -1.4321
 3207TIP3    H231113   5.031   1.713  17.134 -1.6434  0.4474  0.5081
 3208TIP3   OH231114   6.762   3.210  17.176 -0.0485 -0.0881  0.4846
 3208TIP3    H131115   6.682   3.166  17.147  1.3477 -2.9258  0.7768
 3208TIP3    H231116   6.764   3.197  17.271  0.5840  0.2970  0.5285
 3209TIP3   OH231117   3.960   6.810   2.013  0.6781 -0.1059 -0.0199
 3209TIP3    H131118   3.869   6.781   2.015  0.4522  0.5135 -1.0778
 3209TIP3    H231119   3.975   6.836   1.922  2.1245 -0.9019 -0.0233
 3210TIP3   OH231120   4.903   0.327   4.249 -0.4216 -0.2201  0.9250
 3210TIP3    H131121   4.983   0.375   4.225 -0.1541 -1.2155 -0.2449
 3210TIP3    H231122   4.847   0.334   4.172 -0.2430 -2.0218  0.5944
 3211TIP3   OH231123   6.118   2.216  15.144 -0.3693 -0.3204  0.3416
 3211TIP3    H131124   6.184   2.161  15.185  0.6163 -0.2540 -1.1072
 3211TIP3    H231125   6.034   2.176  15.169  0.3051 -1.9945 -0.0232
 3212TIP3   OH231126   4.762   4.665   4.638  0.1689  0.0270  0.4615
 3212TIP3    H131127   4.745   4.600   4.707 -0.2229 -1.0937 -0.6732
 3212TIP3    H231128   4.855   4.686   4.648  0.0189  0.2027  1.6029
 3213TIP3   OH231129   2.661   1.355   3.374  0.7501 -0.6471  0.1026
 3213TIP3    H131130   2.746   1.378   3.337  0.1715  1.0628 -0.2152
 3213TIP3    H231131   2.614   1.314   3.301  0.7853 -0.2667 -0.1367
 3214TIP3   OH231132   2.265   2.412  11.172 -0.6601 -0.3056 -0.4484
 3214TIP3    H131133   2.194   2.395  11.110 -1.0624 -1.7281  0.3892
 3214TIP3    H231134   2.343   2.379  11.128 -0.7531 -0.1944 -0.7023
 3215TIP3   OH231135   1.173   4.062   5.063 -0.2158  0.2927 -0.2177
 3215TIP3    H131136   1.187   3.976   5.024  2.0676  0.0018  1.1093
 3215TIP3    H231137   1.140   4.044   5.151  3.4291  0.5827  1.3057
 3216TIP3   OH231138   3.902   0.430  12.988 -0.1714 -0.6892  0.6265
 3216TIP3    H131139   3.888   0.440  13.082 -1.2367 -0.8415  0.4899
 3216TIP3    H231140   3.893   0.336  12.973 -0.4013 -0.6194  0.3185
 3217TIP3   OH231141   3.494   2.892   1.578 -0.2896  0.2641  0.1239
 3217TIP3    H131142   3.536   2.923   1.658  1.1950  0.1181 -0.5827
 3217TIP3    H231143   3.485   2.797   1.591 -0.7759  0.3545  0.4466
 3218TIP3   OH231144   6.115   0.064  14.020  0.0375 -0.0366 -0.3073
 3218TIP3    H131145   6.048  -0.003  14.028  1.4921 -1.3369  1.3443
 3218TIP3    H231146   6.117   0.107  14.106  1.3802 -0.0920 -0.2976
 3219TIP3   OH231147   2.421   3.944  15.422  0.2630 -0.6600 -0.1748
 3219TIP3    H131148   2.492   3.880  15.427  1.0753  0.0983 -1.7048
 3219TIP3    H231149   2.382   3.930  15.336 -1.8140 -1.4096  0.8358
 3220TIP3   OH231150   0.157   5.804   4.975  0.0754 -0.4517  0.6541
 3220TIP3    H131151   0.202   5.811   4.890  0.0559  0.6791  0.7316
 3220TIP3    H231152   0.104   5.725   4.967  0.1026 -0.3753 -0.3774
 3221TIP3   OH231153   0.037   5.618  11.739 -1.0822  0.3533 -0.2756
 3221TIP3    H131154  -0.030   5.635  11.805 -0.4567 -2.2293  1.0985
 3221TIP3    H231155   0.116   5.596  11.790 -0.0960  0.1308 -1.8684
 3222TIP3   OH231156   2.522   1.059   2.010 -0.1221  0.1390 -0.5380
 3222TIP3    H131157   2.478   1.006   2.077 -0.7495  1.1701 -0.1341
 3222TIP3    H231158   2.592   1.002   1.978 -0.6494 -0.8674  0.0416
 3223TIP3   OH231159   5.079   4.571   1.305  0.1133 -0.2014 -0.2561
 3223TIP3    H131160   5.123   4.488   1.282  2.7423  1.3310 -1.0585
 3223TIP3    H231161   5.115   4.595   1.390 -1.0200 -0.1197  0.2080
 3224TIP3   OH231162   5.364   6.392  17.044  0.1551  0.3155 -0.2785
 3224TIP3    H131163   5.435   6.349  17.091 -0.8445 -0.2619  0.7485
 3224TIP3    H231164   5.342   6.331  16.973 -0.0894 -0.0467  0.1087
 3225TIP3   OH231165   0.957   3.249   1.657  0.4571  0.1571  0.4044
 3225TIP3    H131166   0.866   3.230   1.681  0.2238  1.4264  0.5972
 3225TIP3    H231167   0.969   3.205   1.573 -0.6707  0.8294 -0.1250
 3226TIP3   OH231168   0.609   0.884  10.868 -0.0905  0.5674 -0.2490
 3226TIP3    H131169   0.558   0.965  10.859 -3.2083 -1.2204  0.4731
 3226TIP3    H231170   0.543   0.815  10.879  2.5127 -1.8684  0.9023
 3227TIP3   OH231171   2.578   1.824  15.602 -0.2167  0.1210 -0.3054
 3227TIP3    H131172   2.503   1.881  15.586  0.5837  1.4580  0.6946
 3227TIP3    H231173   2.614   1.807  15.515 -0.3276  1.3063 -0.5823
 3228TIP3   OH231174   2.878   1.742  14.040  0.6109  0.6793 -0.2708
 3228TIP3    H131175   2.884   1.834  14.014  0.6548  0.7283 -0.0923
 3228TIP3    H231176   2.925   1.738  14.124  0.2879  0.5667 -0.0954
 3229TIP3   OH231177   3.047   4.483  16.653  0.0997 -0.3862 -0.1828
 3229TIP3    H131178   3.088   4.403  16.686  0.9702  0.5261  0.9883
 3229TIP3    H231179   3.027   4.535  16.731  0.1954  0.8484 -0.9539
 3230TIP3   OH231180   1.782   4.436   0.451 -0.3811 -0.3146  0.3322
 3230TIP3    H131181   1.702   4.485   0.468 -0.0275  1.8307 -3.6540
 3230TIP3    H231182   1.753   4.361   0.398  0.1557  0.1605 -0.6419
 3231TIP3   OH231183   2.828   3.608  11.743 -0.3382 -0.1419 -0.1759
 3231TIP3    H131184   2.774   3.649  11.810 -0.4801 -0.1144 -0.3066
 3231TIP3    H231185   2.918   3.623  11.771 -0.3407  1.7692 -1.1267
 3232TIP3   OH231186   6.742   1.074  12.252 -0.0273 -0.1733  0.3157
 3232TIP3    H131187   6.775   1.162  12.232 -0.9990 -0.0092 -0.5713
 3232TIP3    H231188   6.808   1.015  12.216  0.5381  0.1827  0.7480
 3233TIP3   OH231189   3.389   0.207  17.043 -0.2709 -0.0106 -0.0922
 3233TIP3    H131190   3.419   0.124  17.005 -1.0487 -1.2261  1.8239
 3233TIP3    H231191   3.295   0.207  17.026 -0.1340  0.9040 -0.8469
 3234TIP3   OH231192   2.545   6.026  12.358 -0.7926  0.2694 -0.1411
 3234TIP3    H131193   2.522   6.072  12.439 -1.5344  1.0788 -0.8036
 3234TIP3    H231194   2.574   5.940  12.387 -2.2207  0.1200  0.9139
 3235TIP3   OH231195   5.612   3.421  10.410 -0.5846 -0.2079  0.4845
 3235TIP3    H131196   5.686   3.454  10.461 -0.3017  0.5537 -0.3844
 3235TIP3    H231197   5.539   3.418  10.471  0.3812 -1.8428  1.5824
 3236TIP3   OH231198   3.637   5.875  17.287  0.4962  0.2055 -0.6020
 3236TIP3    H131199   3.705   5.882  17.354  1.3483 -1.0461 -1.3291
 3236TIP3    H231200   3.665   5.934  17.217 -0.5243  1.7117  0.2224
 3237TIP3   OH231201   5.660   1.870   1.113  0.1983 -0.4202 -0.6629
 3237TIP3    H131202   5.602   1.803   1.149  0.6055 -1.1779 -1.4045
 3237TIP3    H231203   5.682   1.925   1.189 -2.0256  0.2893 -0.5218
 3238TIP3   OH231204   6.055   6.797  14.909  0.4912  0.3030  0.3710
 3238TIP3    H131205   6.056   6.872  14.850 -2.1921  0.5098  0.5408
 3238TIP3    H231206   6.127   6.741  14.878  1.0098  1.8071 -1.2129
 3239TIP3   OH231207   1.112   4.423  12.666  0.1454  0.1151  0.0601
 3239TIP3    H131208   1.116   4.512  12.634  2.0954  0.3574  0.9527
 3239TIP3    H231209   1.123   4.431  12.761  0.9626 -1.1179  0.0798
 3240TIP3   OH231210   1.023   0.142   1.490  0.2469 -0.6571  0.2125
 3240TIP3    H131211   0.999   0.118   1.400 -0.9777  1.4000 -0.0538
 3240TIP3    H231212   0.947   0.117   1.543  0.9356 -1.7941  0.6860
 3241TIP3   OH231213   3.095   6.109   3.368  0.6055  0.3183  0.4621
 3241TIP3    H131214   3.121   6.197   3.343  2.4434 -0.4196 -0.3197
 3241TIP3    H231215   3.055   6.071   3.290  2.2516 -0.4350 -0.0453
 3242TIP3   OH231216   0.727   2.969  14.188  0.4761 -0.3419 -0.4383
 3242TIP3    H131217   0.775   2.911  14.129  0.8363 -1.6129  1.0703
 3242TIP3    H231218   0.796   3.016  14.235  0.2116 -0.4995  0.1043
 3243TIP3   OH231219   6.266   5.455  16.364 -0.0723 -0.5305  0.0492
 3243TIP3    H131220   6.262   5.397  16.440  0.1747  0.3061  0.7119
 3243TIP3    H231221   6.238   5.540  16.397 -1.0102 -0.3985 -1.0548
 3244TIP3   OH231222   3.065   6.300   0.741 -0.7943  0.1353 -0.2620
 3244TIP3    H131223   3.103   6.243   0.674 -0.5048 -3.4961  2.7530
 3244TIP3    H231224   3.011   6.241   0.794 -0.8788  2.7944  2.7581
 3245TIP3   OH231225   5.695   3.020   2.101 -0.3539  0.6502 -0.0556
 3245TIP3    H131226   5.639   3.026   2.178 -0.8878 -0.1600 -0.3750
 3245TIP3    H231227   5.635   3.024   2.026 -0.0671 -0.9494 -0.3872
 3246TIP3   OH231228   5.152   0.744  16.616 -0.2800  0.3817  0.1901
 3246TIP3    H131229   5.216   0.714  16.551 -1.3062  0.4792 -0.8701
 3246TIP3    H231230   5.068   0.709  16.586 -0.6563 -0.2898  1.9220
 3247TIP3   OH231231   4.764   1.317   5.084  0.3237 -0.3209 -0.2705
 3247TIP3    H131232   4.818   1.239   5.074 -0.2861 -0.7079 -0.5988
 3247TIP3    H231233   4.749   1.347   4.994 -0.6454 -0.6645 -0.2338
 3248TIP3   OH231234   4.310   2.566   5.522  0.1466  0.0741  0.1752
 3248TIP3    H131235   4.288   2.516   5.443  1.0552  1.2270 -0.8376
 3248TIP3    H231236   4.274   2.514   5.594  0.8346 -1.8874 -0.8559
 3249TIP3   OH231237   1.345   0.609   1.926  0.7308 -0.1203  0.2673
 3249TIP3    H131238   1.311   0.614   2.015  0.8057  0.8051  0.2444
 3249TIP3    H231239   1.387   0.693   1.911  1.4629 -0.5912 -0.3439
 3250TIP3   OH231240   5.223   4.704   1.512 -0.4088  0.7670  0.3856
 3250TIP3    H131241   5.261   4.720   1.598 -1.2773 -3.1952  1.6174
 3250TIP3    H231242   5.294   4.724   1.450  0.9033  1.6151  2.1256
 3251TIP3   OH231243   2.179   4.845   1.022  0.0930  0.5181  0.0123
 3251TIP3    H131244   2.236   4.835   1.098  0.2722  0.6081 -0.1113
 3251TIP3    H231245   2.107   4.900   1.053  0.0396  0.3554  0.1848
 3252TIP3   OH231246   2.478   1.218  13.900 -0.0923 -0.2850 -0.1629
 3252TIP3    H131247   2.517   1.303  13.880 -0.2000 -0.3465 -0.6491
 3252TIP3    H231248   2.550   1.165  13.934 -0.4725  0.7019  2.2907
 3253TIP3   OH231249   1.288   3.357   1.809 -0.2439 -0.9579  0.5122
 3253TIP3    H131250   1.200   3.334   1.840 -0.0328 -2.4497  0.0418
 3253TIP3    H231251   1.346   3.335   1.881 -0.2842  0.4311  0.9858
 3254TIP3   OH231252   1.743   0.674  17.166  0.6470  0.9147  0.0133
 3254TIP3    H131253   1.688   0.750  17.144  0.0258  0.4760  0.0239
 3254TIP3    H231254   1.833   0.707  17.162  0.3607  1.7927  0.5379
 3255TIP3   OH231255   4.360   5.186   2.581 -0.4641 -0.2797  0.0062
 3255TIP3    H131256   4.307   5.264   2.566 -1.5754 -0.5922  2.2086
 3255TIP3    H231257   4.413   5.178   2.501 -3.6200  0.0692 -2.1895
 3256TIP3   OH231258   3.093   3.168  16.894  0.0265  0.9319 -0.0772
 3256TIP3    H131259   3.150   3.110  16.943 -1.2197  0.4935  0.8686
 3256TIP3    H231260   3.039   3.211  16.960  0.6803  2.9024 -0.7837
 3257TIP3   OH231261   0.308   4.855  11.679  0.0303 -0.4468  0.3886
 3257TIP3    H131262   0.300   4.778  11.622  1.0485 -1.9133  2.1595
 3257TIP3    H231263   0.303   4.819  11.767 -1.1194  1.7403  1.2490
 3258TIP3   OH231264   3.186   1.757   1.623 -0.0419 -0.4719 -0.7159
 3258TIP3    H131265   3.169   1.710   1.705 -1.3478 -0.0141 -0.7053
 3258TIP3    H231266   3.262   1.713   1.585 -0.3788 -1.6783 -0.0130
 3259TIP3   OH231267   3.681   6.264  16.689  0.2791  0.4977  0.0642
 3259TIP3    H131268   3.741   6.301  16.625  1.1101  1.0787  1.1630
 3259TIP3    H231269   3.738   6.217  16.750 -0.3125  1.6082  1.4987
 3260TIP3   OH231270   4.641   3.136  12.757  0.1017  0.0826  0.6170
 3260TIP3    H131271   4.700   3.118  12.830  0.1644 -1.7678  0.1342
 3260TIP3    H231272   4.621   3.049  12.721 -1.5937  0.8157 -0.2474
 3261TIP3   OH231273   1.597   6.632   0.722  0.3683 -0.4105 -0.3438
 3261TIP3    H131274   1.618   6.721   0.695  1.7600 -0.4364  0.6344
 3261TIP3    H231275   1.572   6.639   0.814 -1.4405 -0.7574 -0.7886
 3262TIP3   OH231276   3.890   5.237  11.631 -0.4381  0.1826  0.3112
 3262TIP3    H131277   3.904   5.292  11.708 -1.1361 -2.2640  2.2641
 3262TIP3    H231278   3.798   5.210  11.636 -0.9455  1.3083 -2.3022
 3263TIP3   OH231279   0.579   0.773   1.777  0.1233  0.1313 -0.1370
 3263TIP3    H131280   0.604   0.754   1.686  2.2408  1.1315  0.2185
 3263TIP3    H231281   0.629   0.851   1.800 -1.2350  0.5297  1.5607
 3264TIP3   OH231282   5.002   1.550   5.929  0.1000  0.0748 -0.1817
 3264TIP3    H131283   5.066   1.484   5.899  0.3611  0.3268 -0.1823
 3264TIP3    H231284   5.039   1.633   5.900  0.0867  0.2749  0.3669
 3265TIP3   OH231285   0.628   6.473   5.005 -0.3774  0.1105  0.4148
 3265TIP3    H131286   0.700   6.514   5.054 -0.4531 -0.1462  0.7426
 3265TIP3    H231287   0.667   6.397   4.963  0.2137  1.5503 -1.7466
 3266TIP3   OH231288   5.145   5.794   4.051 -0.0731 -0.1107 -0.4461
 3266TIP3    H131289   5.151   5.864   4.115 -1.4457  0.4544 -0.9321
 3266TIP3    H231290   5.084   5.826   3.985  0.7685 -0.9780 -1.6701
 3267TIP3   OH231291   4.467   3.861  16.212 -0.2742 -0.2285  0.4441
 3267TIP3    H131292   4.449   3.889  16.122  0.7754 -1.8671 -0.3069
 3267TIP3    H231293   4.524   3.929  16.248  0.0590 -0.0307 -0.4432
 3268TIP3   OH231294   2.225   1.327   0.034  0.1590 -0.2254  0.5852
 3268TIP3    H131295   2.164   1.303   0.104 -1.3084 -0.7002 -0.8249
 3268TIP3    H231296   2.286   1.253   0.030 -1.1854 -1.3205 -0.2018
 3269TIP3   OH231297   2.969   3.911  12.959  0.1058 -1.0955 -0.1923
 3269TIP3    H131298   3.025   3.869  12.895  1.0622  0.0789 -0.1339
 3269TIP3    H231299   2.886   3.864  12.952 -0.8291  0.9569 -4.4369
 3270TIP3   OH231300   2.941   3.364  14.651 -0.7013  0.4675 -0.0489
 3270TIP3    H131301   2.908   3.293  14.707 -0.6479  0.0466 -0.5456
 3270TIP3    H231302   3.023   3.391  14.692 -0.2651 -0.3717 -0.3528
 3271TIP3   OH231303   5.820   6.482  12.565  0.0255  0.1614  0.1935
 3271TIP3    H131304   5.762   6.534  12.509 -0.1272  0.6138  0.7650
 3271TIP3    H231305   5.832   6.400  12.517  0.3599  0.7588 -0.7691
 3272TIP3   OH231306   0.821   3.804  10.832 -0.1041 -0.3029  0.1407
 3272TIP3    H131307   0.893   3.861  10.805 -1.3549  1.5099  0.5596
 3272TIP3    H231308   0.744   3.840  10.789 -0.9144 -1.7153  0.3765
 3273TIP3   OH231309   6.298   1.822   2.934 -0.6508 -0.0468 -0.3204
 3273TIP3    H131310   6.285   1.916   2.918 -1.8395 -0.1448  0.1008
 3273TIP3    H231311   6.212   1.789   2.958  0.0437 -0.9891  0.8967
 3274TIP3   OH231312   3.447   1.309   4.639  0.2135  0.8519  0.3098
 3274TIP3    H131313   3.444   1.250   4.563  0.1692  0.4975  0.5872
 3274TIP3    H231314   3.532   1.352   4.633  0.2788  0.7005  0.1509
 3275TIP3   OH231315   0.598   3.355   5.624 -0.1526 -0.4585 -0.4377
 3275TIP3    H131316   0.542   3.344   5.547 -1.0527  2.4801 -0.2845
 3275TIP3    H231317   0.683   3.381   5.589 -0.2440 -0.2577 -0.5171
 3276TIP3   OH231318   6.022   4.103  16.912 -0.2967 -0.2997 -0.0119
 3276TIP3    H131319   5.965   4.041  16.867 -0.9221  0.8744 -0.8900
 3276TIP3    H231320   6.006   4.087  17.005 -1.0358 -0.9166 -0.2327
 3277TIP3   OH231321   1.151   2.215  14.604 -0.5856 -0.3572 -0.3135
 3277TIP3    H131322   1.131   2.198  14.512  1.7398 -1.8014 -0.5895
 3277TIP3    H231323   1.231   2.268  14.602 -1.1298  0.5348  0.8564
 3278TIP3   OH231324   4.238   5.992  14.935 -0.0859  0.4125  0.4760
 3278TIP3    H131325   4.257   6.062  14.998  1.4312  0.8640 -0.4848
 3278TIP3    H231326   4.142   5.985  14.937 -0.1664  1.5696  1.5975
 3279TIP3   OH231327   2.054   5.287  14.740 -0.0721  0.3907 -0.0486
 3279TIP3    H131328   2.011   5.371  14.724  1.3272  1.1568  0.1783
 3279TIP3    H231329   2.031   5.267  14.831  2.2366  2.1215  0.9575
 3280TIP3   OH231330   3.170   0.005  14.681 -0.3782  0.5421  0.4144
 3280TIP3    H131331   3.190   0.095  14.707  2.0726 -0.4176  2.0044
 3280TIP3    H231332   3.229  -0.012  14.608  0.4993 -0.3540  1.3117
 3281TIP3   OH231333   5.029   6.419   1.188  0.0513 -0.0665 -0.1585
 3281TIP3    H131334   4.977   6.448   1.113 -0.3963 -0.3082  0.0504
 3281TIP3    H231335   4.988   6.462   1.263 -0.6397 -1.2390  0.1583
 3282TIP3   OH231336   5.953   3.647   2.214  0.0818  0.4034 -0.2154
 3282TIP3    H131337   6.041   3.622   2.242 -1.7710 -3.5253  2.5925
 3282TIP3    H231338   5.944   3.610   2.126  1.5033  1.6544 -0.9196
 3283TIP3   OH231339   0.411   1.568   2.115  0.1566  0.0106  0.2463
 3283TIP3    H131340   0.384   1.569   2.023 -1.1430  0.7889  0.6223
 3283TIP3    H231341   0.489   1.624   2.118  1.9987 -2.3714 -0.8731
 3284TIP3   OH231342   5.488   6.668   5.005  0.3344 -0.0666  0.4911
 3284TIP3    H131343   5.458   6.581   4.981 -2.0937  1.3622 -1.8937
 3284TIP3    H231344   5.550   6.692   4.936  1.0077  0.1152  1.1499
 3285TIP3   OH231345   1.993   4.272   1.380 -0.0548 -0.3083 -0.2225
 3285TIP3    H131346   2.032   4.343   1.329 -2.0340  1.5298  0.7616
 3285TIP3    H231347   2.064   4.242   1.437  1.1940 -0.0685 -1.6274
 3286TIP3   OH231348   4.204   5.362  13.171 -0.1543  0.4594  0.3940
 3286TIP3    H131349   4.294   5.387  13.151 -0.2561  0.3824 -0.1692
 3286TIP3    H231350   4.152   5.438  13.147 -0.2794  0.3676  0.3753
 3287TIP3   OH231351   5.261   4.240  14.083  0.5098 -0.2329  0.0609
 3287TIP3    H131352   5.343   4.201  14.054  1.3350  0.3968  1.4816
 3287TIP3    H231353   5.213   4.260  14.002  0.6373 -2.9200 -0.7188
 3288TIP3   OH231354   6.111   4.436   0.670 -0.6825  0.0821  0.3363
 3288TIP3    H131355   6.022   4.445   0.704 -1.7878  0.5402 -2.5281
 3288TIP3    H231356   6.121   4.343   0.654 -0.7823  0.0789  0.2897
 3289TIP3   OH231357   0.182   3.432   4.144 -0.1100  0.2039 -0.7611
 3289TIP3    H131358   0.185   3.429   4.240 -2.5619 -5.1795 -0.6534
 3289TIP3    H231359   0.129   3.509   4.124 -1.4856  0.1294  2.3173
 3290TIP3   OH231360   4.247   1.440  14.427  0.1834  0.0855 -1.0537
 3290TIP3    H131361   4.216   1.511  14.482  0.5416 -0.7191  0.2234
 3290TIP3    H231362   4.342   1.451  14.424  0.0916  0.6306 -2.2380
 3291TIP3   OH231363   3.538   2.486   6.308 -0.3085 -0.1383 -0.2217
 3291TIP3    H131364   3.631   2.463   6.298 -0.1522  0.3853 -0.0254
 3291TIP3    H231365   3.531   2.574   6.271 -0.5447  0.1797  0.5751
 3292TIP3   OH231366   3.800   4.529   3.488 -0.5911  0.4813  0.5652
 3292TIP3    H131367   3.814   4.443   3.529 -0.4771 -0.0403 -0.5421
 3292TIP3    H231368   3.747   4.510   3.411 -0.4848  1.4000  0.2609
 3293TIP3   OH231369   4.804   3.607  15.058 -0.8794  0.0018 -0.8449
 3293TIP3    H131370   4.865   3.534  15.068 -1.0167 -0.3850 -2.6771
 3293TIP3    H231371   4.859   3.680  15.031 -0.8858  0.3167 -0.0168
 3294TIP3   OH231372   0.342   5.200  10.638  0.3904  0.0916 -0.3548
 3294TIP3    H131373   0.295   5.189  10.721  0.8465 -1.5447 -0.3082
 3294TIP3    H231374   0.426   5.239  10.662 -0.5485  2.1777 -0.3435
 3295TIP3   OH231375   2.735   4.618  10.781  0.0169 -0.2879  0.2913
 3295TIP3    H131376   2.708   4.640  10.692 -2.0290  0.5980  1.1189
 3295TIP3    H231377   2.829   4.600  10.773  0.4481  2.4740 -1.5738
 3296TIP3   OH231378   6.120   3.302   0.853  0.5175  0.1311  0.7118
 3296TIP3    H131379   6.120   3.389   0.814  0.2010 -0.1910 -0.0062
 3296TIP3    H231380   6.028   3.282   0.866  0.6210  0.2777  1.7272
 3297TIP3   OH231381   0.417   1.906  16.868  0.3112 -0.1902  0.4141
 3297TIP3    H131382   0.340   1.865  16.827  0.9424 -2.1605  1.1224
 3297TIP3    H231383   0.474   1.929  16.795  0.1717 -1.0891  0.0151
 3298TIP3   OH231384   4.123   3.852   4.225 -0.7290 -0.0171  0.2418
 3298TIP3    H131385   4.098   3.767   4.261  0.4828 -0.2979  0.4400
 3298TIP3    H231386   4.152   3.833   4.136  1.0531 -0.0405  0.8221
 3299TIP3   OH231387   2.971   2.782  15.885  0.0113  0.1405 -0.5614
 3299TIP3    H131388   2.933   2.807  15.801  0.5815  0.6092 -0.6793
 3299TIP3    H231389   3.003   2.864  15.923 -0.0663 -0.0956  0.0239
 3300TIP3   OH231390   1.872   1.728   1.669 -0.1969  0.1010 -0.1261
 3300TIP3    H131391   1.884   1.641   1.707 -0.7300 -0.5607 -1.4176
 3300TIP3    H231392   1.865   1.787   1.744  1.9366 -0.7236  0.7538
 3301TIP3   OH231393   1.180   0.896   6.480  0.6493 -0.4686 -0.5646
 3301TIP3    H131394   1.122   0.942   6.420  0.5277 -1.5517 -1.3061
 3301TIP3    H231395   1.249   0.958   6.499  2.5950 -1.1866 -4.6136
 3302TIP3   OH231396   5.032   6.487   2.280 -0.0787  0.0851  0.5277
 3302TIP3    H131397   4.994   6.500   2.193 -0.0760  1.2169  0.6814
 3302TIP3    H231398   5.115   6.535   2.277  0.1364 -0.2523  1.0053
 3303TIP3   OH231399   2.890   3.949   3.912 -0.0353 -0.1115 -0.6525
 3303TIP3    H131400   2.830   3.915   3.978 -0.1991 -1.5613 -1.5216
 3303TIP3    H231401   2.837   4.008   3.859 -0.1429  0.3124 -0.0763
 3304TIP3   OH231402   0.555   1.071   2.515  0.3965 -0.1242 -0.2695
 3304TIP3    H131403   0.557   0.978   2.538 -1.0248  0.1267  0.9132
 3304TIP3    H231404   0.571   1.117   2.597  2.1375  0.6749 -1.0350
 3305TIP3   OH231405   2.798   1.887  11.338 -0.1456 -0.1020 -0.5682
 3305TIP3    H131406   2.756   1.906  11.422 -0.4231 -1.0233 -0.4983
 3305TIP3    H231407   2.872   1.831  11.359 -0.5808 -0.8499 -1.0035
 3306TIP3   OH231408   1.576   1.405   5.363  0.2237  0.2106 -0.2825
 3306TIP3    H131409   1.494   1.386   5.318 -0.1418 -1.2361  0.9538
 3306TIP3    H231410   1.555   1.477   5.422  0.5455  1.6807 -1.9456
 3307TIP3   OH231411   4.433   4.633  12.530  1.0345  0.3816 -0.3711
 3307TIP3    H131412   4.364   4.569  12.547 -0.0461  1.8313  0.7332
 3307TIP3    H231413   4.441   4.634  12.435  0.7729 -1.0728 -0.4280
 3308TIP3   OH231414   0.573   4.334  15.743  0.4741 -0.0113 -0.3995
 3308TIP3    H131415   0.666   4.340  15.718  0.6764  0.7937  0.5198
 3308TIP3    H231416   0.531   4.404  15.693  0.7221  0.9829  0.7510
 3309TIP3   OH231417   0.656   2.058  13.075  0.0661 -0.1091 -0.1285
 3309TIP3    H131418   0.595   2.071  13.148  0.9032  0.3047  0.4978
 3309TIP3    H231419   0.606   2.007  13.011 -0.3759 -1.2660  1.1208
 3310TIP3   OH231420   5.309   2.257  14.392 -0.7393  0.0153 -0.2111
 3310TIP3    H131421   5.250   2.235  14.320 -0.4736  1.7484 -0.9677
 3310TIP3    H231422   5.341   2.344  14.372  0.8136 -0.2333  1.0508
 3311TIP3   OH231423   5.235   6.353  16.309  0.5805 -0.4276 -0.0333
 3311TIP3    H131424   5.310   6.317  16.261 -0.5139 -1.6198 -0.8932
 3311TIP3    H231425   5.255   6.335  16.401  0.8375 -1.7555 -0.3344
 3312TIP3   OH231426   3.216   5.556  14.049 -0.1374  0.0071 -0.1054
 3312TIP3    H131427   3.266   5.525  13.974 -1.3009 -0.1450 -0.8242
 3312TIP3    H231428   3.180   5.477  14.089  0.7909  0.0520  0.8497
 3313TIP3   OH231429   3.403   4.287  14.429  0.1821 -0.4670  0.0898
 3313TIP3    H131430   3.469   4.294  14.361  0.7858 -2.4263  0.4197
 3313TIP3    H231431   3.347   4.214  14.401 -0.6626 -0.1009  0.7740
 3314TIP3   OH231432   4.504   5.416   2.127 -0.5885 -0.0708 -0.1306
 3314TIP3    H131433   4.410   5.414   2.105 -0.3980 -0.5072 -0.9466
 3314TIP3    H231434   4.541   5.342   2.079  0.3592  0.7521 -0.7023
 3315TIP3   OH231435   6.153   3.239  16.509  0.1886  1.0218  0.2176
 3315TIP3    H131436   6.115   3.221  16.595  0.5547  0.0738  0.1846
 3315TIP3    H231437   6.193   3.156  16.482 -1.3696  0.8038 -1.6071
 3316TIP3   OH231438   1.264   2.806   1.648 -0.2170 -0.1684  0.0857
 3316TIP3    H131439   1.209   2.729   1.652  0.5720 -0.6753  2.1191
 3316TIP3    H231440   1.253   2.848   1.734  2.1468 -0.0193  0.3535
 3317TIP3   OH231441   5.838   2.973   3.122 -0.7118  0.2382 -0.3385
 3317TIP3    H131442   5.791   3.001   3.200  0.5264  2.2829 -0.2807
 3317TIP3    H231443   5.930   2.988   3.143 -0.2490 -0.8375 -1.5506
 3318TIP3   OH231444   0.519   5.588   5.419 -0.2972  0.1209  0.0027
 3318TIP3    H131445   0.573   5.624   5.490  0.8122  2.6045 -2.0045
 3318TIP3    H231446   0.574   5.520   5.379  0.0623  0.4312 -0.0297
 3319TIP3   OH231447   0.152   2.612   4.832  0.1269 -0.4475  0.1439
 3319TIP3    H131448   0.157   2.616   4.927 -2.6925 -1.2659  0.3750
 3319TIP3    H231449   0.125   2.700   4.805 -0.3327 -0.5616  0.2213
 3320TIP3   OH231450   4.093   3.863  15.349  0.5760 -0.0665 -0.1273
 3320TIP3    H131451   4.128   3.938  15.300  0.1802 -1.1624 -2.1468
 3320TIP3    H231452   4.007   3.892  15.378  0.3043  0.1756 -1.1544
 3321TIP3   OH231453   0.958   3.131  13.463  0.6594 -0.3260 -0.3403
 3321TIP3    H131454   0.878   3.173  13.494  1.9617  3.1152 -1.4613
 3321TIP3    H231455   0.983   3.072  13.534 -0.7466  1.4868  1.7297
 3322TIP3   OH231456   3.601   2.433   1.772  0.4060  0.2584  0.2328
 3322TIP3    H131457   3.520   2.412   1.819 -0.0429  0.7171 -0.3198
 3322TIP3    H231458   3.623   2.353   1.725  0.5049  0.0006  0.7187
 3323TIP3   OH231459   6.557   5.963  13.527  0.8049 -1.1901  0.1303
 3323TIP3    H131460   6.476   6.010  13.507  0.9709 -0.0655  1.9062
 3323TIP3    H231461   6.601   5.953  13.442 -0.4887 -0.4771 -0.6385
 3324TIP3   OH231462   1.930   0.501   4.668 -0.0929 -0.1486 -0.3422
 3324TIP3    H131463   1.994   0.572   4.673 -1.5156  1.1575 -0.3848
 3324TIP3    H231464   1.881   0.518   4.587 -0.4014 -1.2252 -0.3984
 3325TIP3   OH231465   3.200   4.871   5.906  0.7695 -0.4428  0.1247
 3325TIP3    H131466   3.258   4.909   5.972  1.7170  0.3422 -1.1488
 3325TIP3    H231467   3.167   4.946   5.857  0.2591 -1.0463 -0.4618
 3326TIP3   OH231468   0.996   1.221  11.592 -0.2708  0.0764  0.5736
 3326TIP3    H131469   0.935   1.295  11.601 -1.0300 -0.4563 -0.0777
 3326TIP3    H231470   0.951   1.161  11.532  1.0333 -0.1896 -0.1339
 3327TIP3   OH231471   0.229   0.869   2.543 -0.0147  0.0580  0.7753
 3327TIP3    H131472   0.240   0.943   2.484 -1.5380 -0.1984  0.1652
 3327TIP3    H231473   0.303   0.875   2.603  1.1842  0.6940 -0.7444
 3328TIP3   OH231474   4.726   5.007   2.248 -0.1814 -0.0431  0.5554
 3328TIP3    H131475   4.808   5.027   2.292  1.3302 -0.0683 -2.1772
 3328TIP3    H231476   4.723   4.911   2.246 -0.2795 -0.0416  0.6058
 3329TIP3   OH231477   5.556   2.661  14.743 -0.8109 -0.0743 -0.4904
 3329TIP3    H131478   5.598   2.697  14.665 -2.1672  1.4190 -0.5537
 3329TIP3    H231479   5.623   2.667  14.812  0.9489 -2.8866 -1.8750
 3330TIP3   OH231480   1.728   2.005   5.313 -0.4336 -0.6473 -0.3055
 3330TIP3    H131481   1.766   1.947   5.247  2.6654  0.8979  0.0298
 3330TIP3    H231482   1.683   1.947   5.374 -1.0674 -2.3034 -2.2766
 3331TIP3   OH231483   5.024   4.587  12.517 -0.3507  0.4295  0.3099
 3331TIP3    H131484   4.991   4.565  12.430  1.2543 -1.4165  0.1338
 3331TIP3    H231485   4.947   4.613  12.566 -1.5868 -0.5971 -1.0526
 3332TIP3   OH231486   6.268   6.414  13.425 -0.3725  1.1065  0.6523
 3332TIP3    H131487   6.343   6.357  13.441 -1.3910 -0.1785  1.0058
 3332TIP3    H231488   6.286   6.456  13.341  0.6500  0.6860  0.6587
 3333TIP3   OH231489   3.791   3.499  15.496 -0.0009  0.0065 -0.1071
 3333TIP3    H131490   3.858   3.483  15.429 -0.4074  1.2643 -0.8282
 3333TIP3    H231491   3.793   3.420  15.551  1.0544 -0.5943 -0.9799
 3334TIP3   OH231492   6.342   2.800  14.724 -0.0771 -0.3788  0.2321
 3334TIP3    H131493   6.335   2.895  14.717 -1.4809 -0.6056 -1.9586
 3334TIP3    H231494   6.398   2.775  14.650  1.2879 -1.1741  1.4933
 3335TIP3   OH231495   6.771   2.284  14.686  0.5786  0.0729  0.0587
 3335TIP3    H131496   6.730   2.293  14.772  0.3205  1.1412 -0.1743
 3335TIP3    H231497   6.700   2.262  14.627  0.9662 -2.0843  0.3453
 3336TIP3   OH231498   2.507   0.328   0.564 -0.4169 -0.0584 -0.2575
 3336TIP3    H131499   2.590   0.324   0.611 -1.1105 -0.1154  0.9719
 3336TIP3    H231500   2.506   0.249   0.509  1.7968  1.5647 -2.7714
 3337TIP3   OH231501   2.256   4.056   5.028 -0.0430 -0.2200 -0.3213
 3337TIP3    H131502   2.240   4.034   4.936 -0.0357  0.4030 -0.4794
 3337TIP3    H231503   2.351   4.055   5.037  0.0890  2.3832 -1.0222
 3338TIP3   OH231504   2.235   2.509   5.706  0.1914 -0.0364  0.2341
 3338TIP3    H131505   2.290   2.580   5.738  0.2703 -0.7898  1.8294
 3338TIP3    H231506   2.150   2.523   5.748  0.2592 -0.9830  0.7150
 3339TIP3   OH231507   0.976   3.488   2.530 -0.1563 -0.2849 -0.1625
 3339TIP3    H131508   1.070   3.481   2.546 -0.2669 -1.3128  0.1004
 3339TIP3    H231509   0.939   3.408   2.567 -1.2875  0.6544  0.7873
 3340TIP3   OH231510   1.934   0.948  16.676 -0.3742 -0.2020 -0.6285
 3340TIP3    H131511   1.943   0.887  16.603  1.5414 -0.3348 -0.3203
 3340TIP3    H231512   1.973   1.029  16.644 -1.9801  0.5591 -0.6779
 3341TIP3   OH231513   5.781   3.472   5.164  0.1095 -0.2270 -0.0688
 3341TIP3    H131514   5.773   3.488   5.258  2.1475 -0.1416  0.1124
 3341TIP3    H231515   5.705   3.517   5.126 -0.7486 -0.2831  1.5206
 3342TIP3   OH231516   2.041   6.229   2.039  0.7486 -0.8202  0.1571
 3342TIP3    H131517   2.025   6.228   2.134  0.4150 -1.8187  0.0913
 3342TIP3    H231518   2.117   6.287   2.028  1.0200 -0.9985  1.0649
 3343TIP3   OH231519   4.853   5.879  12.994 -0.3053  0.1853  0.6140
 3343TIP3    H131520   4.796   5.916  12.927 -1.1926  0.0355  1.2756
 3343TIP3    H231521   4.934   5.930  12.987 -0.4301  0.2429 -0.4866
 3344TIP3   OH231522   6.321   3.077  14.700  0.6638 -0.2444 -0.2386
 3344TIP3    H131523   6.354   3.166  14.714  0.3488  0.0895 -1.6132
 3344TIP3    H231524   6.334   3.060  14.607  0.9835 -1.7557  0.0582
 3345TIP3   OH231525   5.737   3.811   0.877 -0.5601  0.5786 -0.0972
 3345TIP3    H131526   5.733   3.806   0.972  1.9483  1.0110  0.0830
 3345TIP3    H231527   5.646   3.822   0.849 -1.4892 -1.0717  2.1261
 3346TIP3   OH231528   4.386   4.443   1.657 -0.2911  0.2436  0.2639
 3346TIP3    H131529   4.427   4.472   1.576 -0.5346  0.4335  0.2068
 3346TIP3    H231530   4.292   4.448   1.640 -0.3366 -0.5862  0.2573
 3347TIP3   OH231531   6.503   0.743   1.222  0.0443  0.2186 -0.0649
 3347TIP3    H131532   6.560   0.673   1.254 -2.9146 -1.4100  1.8725
 3347TIP3    H231533   6.491   0.801   1.296 -1.4562  0.0896 -0.1872
 3348TIP3   OH231534   3.143   3.993  13.153 -0.7890  0.1563  0.0017
 3348TIP3    H131535   3.203   4.060  13.122 -0.6432 -0.0939 -0.2673
 3348TIP3    H231536   3.086   3.975  13.078 -2.2716  1.5659  0.7631
 3349TIP3   OH231537   5.532   3.068  16.870 -0.2763  0.3296  0.1528
 3349TIP3    H131538   5.620   3.085  16.838 -0.7067 -0.3205 -1.4192
 3349TIP3    H231539   5.481   3.145  16.844 -0.3131  0.4403  0.5442
 3350TIP3   OH231540   0.554   4.870   1.993 -0.4600  0.2458  0.0007
 3350TIP3    H131541   0.617   4.874   1.921 -0.3634  0.0222  0.0706
 3350TIP3    H231542   0.556   4.957   2.032 -1.6750  0.8466 -1.2436
 3351TIP3   OH231543   0.637   1.821  15.249 -0.0186 -0.2377 -0.6879
 3351TIP3    H131544   0.559   1.806  15.195 -0.9918  0.1968  0.5645
 3351TIP3    H231545   0.639   1.916  15.260 -1.6174 -0.5325  2.6081
 3352TIP3   OH231546   1.318   6.323   0.610 -0.6277  0.0989  0.0922
 3352TIP3    H131547   1.288   6.413   0.601  1.3475  0.8202  0.3953
 3352TIP3    H231548   1.238   6.270   0.610 -1.8788  1.9515  1.2595
 3353TIP3   OH231549   0.752   6.261  16.176 -0.5124 -0.1836  0.1327
 3353TIP3    H131550   0.676   6.204  16.166 -0.9976  0.1261  1.8816
 3353TIP3    H231551   0.726   6.323  16.244  1.0067  0.4442  0.1519
 3354TIP3   OH231552   3.866   0.132   0.621  0.3351 -0.0688 -0.1336
 3354TIP3    H131553   3.847   0.040   0.602 -2.0537  0.2041  0.7042
 3354TIP3    H231554   3.844   0.141   0.714  0.0819  1.4535 -0.3382
 3355TIP3   OH231555   6.305   0.880  11.829  0.5578  0.1744  0.5396
 3355TIP3    H131556   6.321   0.827  11.907  2.5789 -1.0190 -0.6339
 3355TIP3    H231557   6.249   0.826  11.773  2.1397 -0.5234 -0.4054
 3356TIP3   OH231558   1.390   1.055   0.644 -0.6474 -0.1235 -0.1550
 3356TIP3    H131559   1.317   0.995   0.643 -1.7640  1.1914  0.6700
 3356TIP3    H231560   1.391   1.094   0.557 -0.9375 -0.1379 -0.1638
 3357TIP3   OH231561   5.520   1.873  13.746 -0.1819  0.3608 -0.4860
 3357TIP3    H131562   5.552   1.963  13.736 -0.6138  0.4616 -1.0456
 3357TIP3    H231563   5.598   1.821  13.764  0.1679  0.7437 -0.8752
 3358TIP3   OH231564   0.453   4.527   2.243  0.1853 -0.5934 -0.1109
 3358TIP3    H131565   0.456   4.450   2.300 -0.1015 -1.0597 -0.7201
 3358TIP3    H231566   0.389   4.586   2.285  1.5164 -0.0345  1.1561
 3359TIP3   OH231567   4.279   2.537   5.255 -0.7817  0.0961  0.2065
 3359TIP3    H131568   4.254   2.477   5.185  0.8579  0.1690 -0.4460
 3359TIP3    H231569   4.269   2.624   5.217  0.2290  0.1323  0.0039
 3360TIP3   OH231570   2.473   0.797  11.818  0.3982  0.5237  0.8348
 3360TIP3    H131571   2.493   0.853  11.744  0.5320  0.3479  0.7389
 3360TIP3    H231572   2.378   0.803  11.828  0.5281  1.6795  1.5456
 3361TIP3   OH231573   3.419   5.309  11.999  0.2481  0.3293 -0.0106
 3361TIP3    H131574   3.387   5.341  11.915  0.4273 -0.4381 -0.3767
 3361TIP3    H231575   3.354   5.339  12.063  0.3098  1.2367 -0.3715
 3362TIP3   OH231576   2.034   0.190   4.679  0.5514 -0.0056 -0.3601
 3362TIP3    H131577   2.073   0.273   4.653  1.5051 -0.2184  0.3521
 3362TIP3    H231578   1.977   0.212   4.752  0.9275  0.0098 -0.0664
 3363TIP3   OH231579   0.251   2.511  15.551 -0.0986 -0.0756  0.1367
 3363TIP3    H131580   0.209   2.468  15.626  0.5148 -2.1870 -0.6875
 3363TIP3    H231581   0.192   2.493  15.478  0.1851  0.4815 -0.2295
 3364TIP3   OH231582   6.558   5.522  12.976  0.6866 -0.2183 -0.3024
 3364TIP3    H131583   6.626   5.587  12.958 -0.5486  1.2328  0.2135
 3364TIP3    H231584   6.478   5.560  12.939  0.5491 -3.0029 -3.1275
 3365TIP3   OH231585   5.543   3.521   0.103 -0.0401 -0.1365 -0.2117
 3365TIP3    H131586   5.532   3.596   0.044 -0.8444  0.1442  0.2909
 3365TIP3    H231587   5.487   3.541   0.178 -0.8815 -1.6149 -0.4420
 3366TIP3   OH231588   0.551   3.913  15.975 -0.0753 -0.0337  0.1425
 3366TIP3    H131589   0.542   3.863  16.056  0.4440 -1.8194 -0.8721
 3366TIP3    H231590   0.636   3.957  15.983  0.0974 -0.4218  0.4479
 3367TIP3   OH231591   3.890   5.782  12.824  0.3066 -0.1088  0.3839
 3367TIP3    H131592   3.822   5.847  12.805 -1.3886 -2.0182 -0.2073
 3367TIP3    H231593   3.971   5.833  12.831 -0.7493  1.8801 -1.5258
 3368TIP3   OH231594   0.637   5.523   0.538  0.3036  0.6725 -0.1014
 3368TIP3    H131595   0.731   5.540   0.533  0.2583  1.0826  0.4433
 3368TIP3    H231596   0.596   5.609   0.528 -0.0288  0.4263 -0.8562
 3369TIP3   OH231597   0.372   5.973  13.453 -0.2393 -0.3522 -0.0799
 3369TIP3    H131598   0.329   5.900  13.408  0.1441 -0.9726  0.5509
 3369TIP3    H231599   0.461   5.974  13.417  0.5876 -1.9087  1.8517
 3370TIP3   OH231600   5.927   1.910  15.213  0.7275  0.3266  0.7966
 3370TIP3    H131601   5.929   1.953  15.299  1.2454  1.9089 -0.0069
 3370TIP3    H231602   5.895   1.977  15.153  3.5091  0.2610 -0.8309
 3371TIP3   OH231603   5.849   6.174   2.331  0.5771  1.0037 -0.1401
 3371TIP3    H131604   5.777   6.167   2.269  0.3987  3.0300 -0.1919
 3371TIP3    H231605   5.858   6.086   2.367  0.5244 -0.1474 -2.8415
 3372TIP3   OH231606   2.173   6.610   5.136 -0.4810  0.0088  0.3174
 3372TIP3    H131607   2.082   6.628   5.112  0.5549  2.5641 -2.0024
 3372TIP3    H231608   2.190   6.667   5.211 -1.1568 -1.4556  1.5996
 3373TIP3   OH231609   4.913   3.058   1.164  0.0746  0.1526 -0.1681
 3373TIP3    H131610   4.981   3.117   1.194  0.2315 -0.7817  1.3364
 3373TIP3    H231611   4.940   2.971   1.194 -2.0011 -0.1651  0.8958
 3374TIP3   OH231612   0.748   4.719   3.298 -0.0283 -0.2175  0.3104
 3374TIP3    H131613   0.754   4.813   3.286  0.5735 -0.2943 -0.0445
 3374TIP3    H231614   0.784   4.703   3.385 -0.3188 -0.0949  0.4499
 3375TIP3   OH231615   2.872   0.695  11.313  0.3445  0.6404  0.1823
 3375TIP3    H131616   2.914   0.619  11.272 -0.1316  1.4118 -1.8111
 3375TIP3    H231617   2.883   0.681  11.407  0.0472 -2.0206 -0.1435
 3376TIP3   OH231618   0.072   1.105   6.731 -0.1552 -0.6746  0.2048
 3376TIP3    H131619   0.141   1.076   6.671 -0.3950 -0.1735 -0.3132
 3376TIP3    H231620   0.059   1.197   6.711  1.1200 -0.0072  2.3809
 3377TIP3   OH231621   5.529   5.244   5.774  0.0095 -0.0718  0.1292
 3377TIP3    H131622   5.453   5.275   5.724 -0.8067 -0.2614  1.2261
 3377TIP3    H231623   5.511   5.271   5.864  1.3139 -0.0050  0.3794
 3378TIP3   OH231624   4.098   1.880   4.552 -0.1184  0.4362  0.8494
 3378TIP3    H131625   4.032   1.838   4.497 -0.0485 -0.3523  1.3437
 3378TIP3    H231626   4.172   1.819   4.550  1.0529  1.9109 -0.6854
 3379TIP3   OH231627   2.793   0.940  12.899  0.5214  0.0519 -0.4752
 3379TIP3    H131628   2.701   0.937  12.872  0.3799  0.7119 -0.0840
 3379TIP3    H231629   2.830   1.013  12.848  1.5713 -2.0759 -2.8774
 3380TIP3   OH231630   3.136   3.682   4.265 -0.2607 -0.8105  0.6260
 3380TIP3    H131631   3.170   3.768   4.241 -1.0867  0.2243  3.0130
 3380TIP3    H231632   3.062   3.668   4.206  0.4605 -0.3239 -0.4093
 3381TIP3   OH231633   5.029   6.141   5.407  0.2129 -0.3871 -0.2840
 3381TIP3    H131634   4.972   6.125   5.331 -1.4100 -0.5226  0.9236
 3381TIP3    H231635   5.024   6.235   5.421 -1.0788 -0.6156  0.8503
 3382TIP3   OH231636   0.021   0.955  16.733  0.4290 -0.2125 -0.4852
 3382TIP3    H131637   0.038   0.990  16.645  0.2367 -0.0605 -0.4630
 3382TIP3    H231638  -0.048   0.890  16.720  0.0965  0.1193 -0.3866
 3383TIP3   OH231639   2.143   5.460   1.936  0.5399 -0.1252  0.2077
 3383TIP3    H131640   2.098   5.495   1.859  0.7421  0.9349  0.5566
 3383TIP3    H231641   2.216   5.520   1.950  1.7395 -1.5251 -0.0195
 3384TIP3   OH231642   4.825   6.585  10.930  0.2595  0.4056 -0.9690
 3384TIP3    H131643   4.855   6.675  10.938  0.7729  0.2577 -1.1896
 3384TIP3    H231644   4.896   6.540  10.884  0.3685 -0.2863 -0.1510
 3385TIP3   OH231645   2.122   2.137   3.004  0.5970  0.0417 -0.3391
 3385TIP3    H131646   2.201   2.092   3.035 -0.1608 -0.6601  0.5825
 3385TIP3    H231647   2.147   2.174   2.919  1.6674 -0.8591 -0.4206
 3386TIP3   OH231648   4.388   6.167  15.081 -0.0101  0.0154 -0.1868
 3386TIP3    H131649   4.386   6.240  15.142  0.3438 -0.0262 -0.1238
 3386TIP3    H231650   4.466   6.183  15.027  1.2716 -1.4235  1.2062
 3387TIP3   OH231651   3.768   4.768   3.793  0.0378  0.1359  0.5896
 3387TIP3    H131652   3.836   4.702   3.804 -0.5716 -0.8181 -1.1118
 3387TIP3    H231653   3.692   4.720   3.761 -1.0659  1.3621  1.2986
 3388TIP3   OH231654   0.043   5.363   2.964  0.4283 -0.2178 -1.1625
 3388TIP3    H131655  -0.020   5.308   3.011  0.6583  0.0653 -0.5264
 3388TIP3    H231656   0.128   5.338   3.000  0.4314  1.3726 -0.0421
 3389TIP3   OH231657   5.158   5.068   1.052  0.1735  0.4033  0.7946
 3389TIP3    H131658   5.217   5.123   1.103  1.2984  1.1772 -1.2885
 3389TIP3    H231659   5.079   5.121   1.041  0.6366  0.9688  0.1635
 3390TIP3   OH231660   3.611   3.546   5.018  0.4043  0.6055 -0.6044
 3390TIP3    H131661   3.568   3.488   5.080  0.7418 -0.3937 -1.2988
 3390TIP3    H231662   3.640   3.489   4.947  1.2179  1.5356 -1.0358
 3391TIP3   OH231663   5.927   2.646   3.701 -0.2218  0.3820  0.0099
 3391TIP3    H131664   5.978   2.619   3.777  0.4551  0.7604 -0.3083
 3391TIP3    H231665   5.941   2.577   3.636  0.5453  0.8864 -0.3701
 3392TIP3   OH231666   5.244   5.571   1.270 -0.4911 -0.6031  0.0515
 3392TIP3    H131667   5.225   5.480   1.246 -1.3624 -0.1410 -1.0814
 3392TIP3    H231668   5.160   5.606   1.299 -0.2546 -0.0463  0.0598
 3393TIP3   OH231669   2.821   5.637  13.551  0.2166 -0.1542 -0.2859
 3393TIP3    H131670   2.831   5.624  13.457  1.4418  0.2822 -0.2277
 3393TIP3    H231671   2.833   5.549  13.589  2.3329  0.0783 -0.3547
 3394TIP3   OH231672   1.748   2.428   2.448  0.2689 -0.5532 -0.2412
 3394TIP3    H131673   1.691   2.354   2.467 -0.9199  0.5492  0.5552
 3394TIP3    H231674   1.695   2.505   2.468  1.8038  0.5038 -0.1512
 3395TIP3   OH231675   4.978   3.606  11.941 -0.0658 -0.1229 -0.0778
 3395TIP3    H131676   5.022   3.593  12.025  1.2378  2.1592 -0.3714
 3395TIP3    H231677   4.946   3.696  11.945  2.4396  0.9871 -3.0616
 3396TIP3   OH231678   0.919   2.252  17.059 -0.4210 -0.1579  0.8149
 3396TIP3    H131679   1.014   2.267  17.058 -0.1755 -1.5036 -1.8220
 3396TIP3    H231680   0.882   2.333  17.024 -0.2296  0.2656  1.5866
 3397TIP3   OH231681   6.057   3.213  15.337  0.2714  0.2853 -0.3172
 3397TIP3    H131682   6.042   3.264  15.417  0.3834  2.4926 -1.6558
 3397TIP3    H231683   6.144   3.176  15.349  0.3313  0.6803  0.5355
 3398TIP3   OH231684   3.655   3.986   5.591  0.6095  0.1890  0.1568
 3398TIP3    H131685   3.721   4.022   5.650 -1.1696  3.7431  0.1273
 3398TIP3    H231686   3.692   3.998   5.503  1.0438 -0.3378  0.2628
 3399TIP3   OH231687   2.530   4.274  14.506  0.0778 -0.7834 -0.6772
 3399TIP3    H131688   2.538   4.362  14.543  1.6409 -0.7171 -1.1542
 3399TIP3    H231689   2.452   4.238  14.547  0.4428  0.1613  0.8832
 3400TIP3   OH231690   1.273   3.823  10.421  0.5559  0.1656 -0.1068
 3400TIP3    H131691   1.229   3.769  10.486  0.8443  0.1797  0.0987
 3400TIP3    H231692   1.207   3.889  10.396  1.3574  1.9338  2.2616
 3401TIP3   OH231693   5.717   1.348  17.099 -0.2329  0.1785 -0.1064
 3401TIP3    H131694   5.626   1.320  17.089  0.0946 -0.4634 -1.5051
 3401TIP3    H231695   5.753   1.292  17.167 -0.6945 -0.0322 -0.0368
 3402TIP3   OH231696   1.534   1.954   1.425  0.7415 -0.1175  0.4609
 3402TIP3    H131697   1.557   1.864   1.400  2.1036  0.6031 -0.9686
 3402TIP3    H231698   1.507   1.947   1.516 -1.1740 -2.3174 -0.2333
 3403TIP3   OH231699   0.207   3.416   4.402 -0.3327 -0.2347 -0.6057
 3403TIP3    H131700   0.119   3.377   4.408 -0.0515 -0.8184 -0.2388
 3403TIP3    H231701   0.209   3.482   4.471  0.2393 -1.6675  0.7704
 3404TIP3   OH231702   5.457   3.864   4.414 -0.2717  0.5404 -0.5865
 3404TIP3    H131703   5.430   3.953   4.434 -1.6625 -0.2634  1.2707
 3404TIP3    H231704   5.454   3.818   4.498  2.0102 -0.8707 -1.2025
 3405TIP3   OH231705   0.165   4.961  14.901 -0.1744  0.1244 -0.1451
 3405TIP3    H131706   0.153   5.056  14.901  0.3915  0.2327  2.0883
 3405TIP3    H231707   0.162   4.936  14.809  0.7086  2.4414 -0.8415
 3406TIP3   OH231708   4.383   3.451   3.786  0.1614  0.2514 -0.0250
 3406TIP3    H131709   4.407   3.486   3.700 -0.0142  1.9027  0.5701
 3406TIP3    H231710   4.287   3.450   3.785  0.1760 -1.2715 -0.4390
 3407TIP3   OH231711   4.993   3.895  15.946  0.3196  0.1335 -0.4117
 3407TIP3    H131712   4.981   3.928  15.857  0.6797  1.3921 -0.0089
 3407TIP3    H231713   5.084   3.864  15.947  0.7641  1.4171 -0.0861
 3408TIP3   OH231714   5.971   1.284  10.847  0.0923  1.1290 -0.2974
 3408TIP3    H131715   5.965   1.213  10.911 -1.2494 -1.1040 -2.8160
 3408TIP3    H231716   6.059   1.320  10.860 -0.3148  1.1273  3.1315
 3409TIP3   OH231717   0.083   1.955  10.576 -0.1371  0.1792  0.2639
 3409TIP3    H131718   0.091   1.860  10.565  0.5997  0.2982 -0.2566
 3409TIP3    H231719   0.011   1.980  10.518 -1.0236 -0.2069  1.1953
 3410TIP3   OH231720   1.182   1.484   2.682 -0.2821 -0.4254 -0.2165
 3410TIP3    H131721   1.159   1.422   2.613 -1.1648  0.5818 -0.8405
 3410TIP3    H231722   1.277   1.473   2.693 -0.5131 -2.2485  0.0566
 3411TIP3   OH231723   2.850   6.621   2.857 -0.3680 -0.3097  0.1761
 3411TIP3    H131724   2.774   6.611   2.914 -1.1732  2.9302 -0.2486
 3411TIP3    H231725   2.902   6.690   2.898  0.7076 -0.2423 -1.2599
 3412TIP3   OH231726   6.675   0.676  15.396  0.2250  0.6721  0.4146
 3412TIP3    H131727   6.660   0.771  15.397 -0.3649  0.5797  0.6392
 3412TIP3    H231728   6.686   0.654  15.489 -0.6896  0.3566  0.4497
 3413TIP3   OH231729   0.617   3.992  11.778 -0.6820  0.0387  0.0632
 3413TIP3    H131730   0.645   4.060  11.718  1.1349 -0.2655  0.5119
 3413TIP3    H231731   0.555   4.035  11.837  1.3454  1.6293  1.0855
 3414TIP3   OH231732   1.188   1.237  15.520  0.2047 -0.4216  0.3055
 3414TIP3    H131733   1.117   1.194  15.474  0.6247  0.3304 -1.0482
 3414TIP3    H231734   1.153   1.322  15.547 -0.0859 -0.9120  1.5173
 3415TIP3   OH231735   6.511   1.642   5.317 -0.1756 -0.4902  0.0157
 3415TIP3    H131736   6.509   1.737   5.311  0.6297 -0.3821  1.2192
 3415TIP3    H231737   6.431   1.619   5.364 -0.6132 -0.4441 -0.7097
 3416TIP3   OH231738   3.313   2.566   2.869  0.8833  0.6469 -0.5807
 3416TIP3    H131739   3.396   2.549   2.825  0.5735  1.1568 -1.3741
 3416TIP3    H231740   3.262   2.486   2.856  1.5675 -0.0133  0.6730
 3417TIP3   OH231741   4.991   4.842  11.140  0.2789  0.9650 -0.1320
 3417TIP3    H131742   5.051   4.854  11.066  0.1676  1.9132 -0.0810
 3417TIP3    H231743   4.962   4.751  11.133  1.4717  0.5848 -0.3427
 3418TIP3   OH231744   0.586   4.624  14.907  0.1502 -0.1788  0.0164
 3418TIP3    H131745   0.676   4.594  14.916  0.2882 -0.3628 -1.7027
 3418TIP3    H231746   0.594   4.712  14.870 -0.3693 -0.0903  0.1114
 3419TIP3   OH231747   4.779   2.291  10.700 -0.2352  0.4527  0.0019
 3419TIP3    H131748   4.740   2.220  10.750  1.6101  0.7723  1.9511
 3419TIP3    H231749   4.873   2.277  10.706  0.1277  2.3967 -0.5679
 3420TIP3   OH231750   4.990   6.763  13.286 -0.3081 -0.1157  0.4936
 3420TIP3    H131751   5.039   6.845  13.278  0.3161 -0.4779  0.6183
 3420TIP3    H231752   5.045   6.697  13.244  1.0913 -1.2685  3.9661
 3421TIP3   OH231753   0.697   6.051   2.739 -0.4363 -0.1002 -0.3060
 3421TIP3    H131754   0.682   6.137   2.700 -2.0780 -0.0060  0.5083
 3421TIP3    H231755   0.633   5.993   2.696 -0.9037 -0.4170  0.8158
 3422TIP3   OH231756   1.295   6.764   4.519 -0.0451  0.6705 -0.5240
 3422TIP3    H131757   1.321   6.751   4.428 -1.5282 -1.8207 -0.6241
 3422TIP3    H231758   1.211   6.810   4.513 -0.1006  0.5847 -0.4059
 3423TIP3   OH231759   3.659   4.883  14.988  0.0325  0.1939 -0.7282
 3423TIP3    H131760   3.738   4.843  14.952  0.3856 -0.7587  1.0466
 3423TIP3    H231761   3.648   4.964  14.938  0.9573 -0.6832 -2.3818
 3424TIP3   OH231762   5.520   1.738  17.254 -0.1757  0.0401 -0.0462
 3424TIP3    H131763   5.459   1.796  17.300 -0.5149 -0.5898  0.3019
 3424TIP3    H231764   5.605   1.756  17.293 -0.5970 -1.0903  1.4118
 3425TIP3   OH231765   3.581   4.306  12.819 -0.2502 -0.6208 -0.4359
 3425TIP3    H131766   3.565   4.212  12.813 -1.2872 -0.6733  2.6250
 3425TIP3    H231767   3.676   4.314  12.829  0.1085 -1.1559 -2.8884
 3426TIP3   OH231768   0.046   4.079  15.443 -0.3322  0.0470  0.3815
 3426TIP3    H131769   0.121   4.021  15.432  0.1899  1.0623 -1.8301
 3426TIP3    H231770   0.047   4.103  15.536  1.6574 -0.5288  0.5312
 3427TIP3   OH231771   2.628   6.548   0.132 -0.1494 -0.1931  0.0844
 3427TIP3    H131772   2.571   6.562   0.207  0.3452 -0.6515  0.5523
 3427TIP3    H231773   2.686   6.625   0.131  1.1765 -1.1540  1.3909
 3428TIP3   OH231774   0.881   3.463  16.241  0.2506 -0.0455  0.0705
 3428TIP3    H131775   0.898   3.552  16.209  1.1822  0.6470  2.4037
 3428TIP3    H231776   0.904   3.466  16.334 -0.3610 -2.5591  0.3315
 3429TIP3   OH231777   5.099   3.050   0.657  0.1591  0.2193  0.3361
 3429TIP3    H131778   5.123   2.969   0.613 -0.4476  0.3456 -0.2318
 3429TIP3    H231779   5.180   3.100   0.662  0.7428 -0.8134  1.5356
 3430TIP3   OH231780   4.737   5.406  11.806 -0.0429  0.1820  0.1700
 3430TIP3    H131781   4.759   5.474  11.869 -0.4978  0.0166  0.5118
 3430TIP3    H231782   4.642   5.394  11.816  0.2216 -1.3188  0.9283
 3431TIP3   OH231783   0.032   5.311  13.838  0.0097 -0.0799  0.2622
 3431TIP3    H131784   0.014   5.383  13.898  3.8217  0.3098  1.0595
 3431TIP3    H231785   0.056   5.238  13.894  1.7748 -0.2647 -0.6865
 3432TIP3   OH231786   0.904   4.540   0.145 -0.0829 -0.0277 -0.0567
 3432TIP3    H131787   0.816   4.542   0.182 -0.5684  2.4981 -1.2515
 3432TIP3    H231788   0.890   4.539   0.050  1.1354  2.8257 -0.3165
 3433TIP3   OH231789   0.793   5.711   3.796  0.5472  0.5361  0.2745
 3433TIP3    H131790   0.752   5.639   3.749 -0.6380  1.7572 -0.6115
 3433TIP3    H231791   0.884   5.712   3.764  0.5071 -0.3937  0.1177
 3434TIP3   OH231792   4.862   1.232   3.635  0.7466  0.1959 -0.4653
 3434TIP3    H131793   4.812   1.313   3.645  2.5856  1.4491 -1.2948
 3434TIP3    H231794   4.887   1.208   3.725 -1.2542 -0.4199 -0.0422
 3435TIP3   OH231795   1.928   1.263  15.598 -0.6061 -0.5436 -0.7454
 3435TIP3    H131796   1.859   1.279  15.662  0.3812  1.4497 -0.1602
 3435TIP3    H231797   2.008   1.253  15.650  0.1761  0.9024 -1.6394
 3436TIP3   OH231798   6.698   2.641  10.656 -0.2859  0.4775 -0.2522
 3436TIP3    H131799   6.718   2.623  10.748 -0.5153 -0.1351 -0.3167
 3436TIP3    H231800   6.707   2.556  10.613 -2.9511  0.2025 -0.3061
 3437TIP3   OH231801   2.867   2.681  16.395 -0.2866  0.2148 -0.1260
 3437TIP3    H131802   2.818   2.699  16.315 -2.0543 -0.1981  0.8094
 3437TIP3    H231803   2.862   2.586  16.405  0.5598  0.1900  0.0803
 3438TIP3   OH231804   3.618   0.391  17.046 -0.7465 -0.4305 -0.3725
 3438TIP3    H131805   3.553   0.322  17.030 -1.7152  0.5580 -0.7259
 3438TIP3    H231806   3.696   0.343  17.076 -0.9799 -1.7845 -1.8269
 3439TIP3   OH231807   6.358   1.780   4.075  0.2005  0.3125 -1.1318
 3439TIP3    H131808   6.316   1.864   4.093  2.1239  1.1144 -0.2984
 3439TIP3    H231809   6.428   1.800   4.014 -0.0685 -0.8793 -1.8473
 3440TIP3   OH231810   2.709   3.529  11.374 -0.0450  0.9047  0.7963
 3440TIP3    H131811   2.776   3.501  11.437  0.7004 -1.4126 -0.9527
 3440TIP3    H231812   2.758   3.547  11.294 -1.0857  2.9654  0.6035
 3441TIP3   OH231813   5.249   1.333   3.876 -0.5704 -0.1665  0.8277
 3441TIP3    H131814   5.257   1.257   3.933  1.5019  1.1458  2.3548
 3441TIP3    H231815   5.254   1.408   3.934  0.5938  1.1846 -0.9442
 3442TIP3   OH231816   0.822   4.741   0.999  0.5272 -0.2291 -0.6636
 3442TIP3    H131817   0.907   4.771   0.966 -0.3131  1.1122 -1.6599
 3442TIP3    H231818   0.764   4.816   0.988 -1.1323 -1.5681 -1.2743
 3443TIP3   OH231819   5.271   6.026  14.504 -0.2964 -0.7183  0.1708
 3443TIP3    H131820   5.263   6.121  14.496 -0.7405 -0.8141 -0.4907
 3443TIP3    H231821   5.366   6.011  14.507 -0.2504 -0.0969  2.2644
 3444TIP3   OH231822   3.561   4.411   4.616 -0.3139 -0.7569  0.3490
 3444TIP3    H131823   3.650   4.375   4.618  0.5554  1.3812  2.1602
 3444TIP3    H231824   3.531   4.397   4.527  2.0042 -1.1087 -0.4007
 3445TIP3   OH231825   1.557   1.108  16.909  0.2843 -0.3707 -0.2490
 3445TIP3    H131826   1.526   1.062  16.987 -1.4190  0.5344 -0.3700
 3445TIP3    H231827   1.551   1.042  16.839 -1.3086 -0.2436 -0.2500
 3446TIP3   OH231828   6.186   4.379  11.897  0.6141 -0.3457 -0.0183
 3446TIP3    H131829   6.197   4.286  11.917 -0.1842 -0.5938 -0.7096
 3446TIP3    H231830   6.138   4.414  11.971 -1.0327 -0.9564 -0.7621
 3447TIP3   OH231831   4.583   5.960   1.322 -0.4638 -0.0555  0.3580
 3447TIP3    H131832   4.666   5.993   1.354 -0.7733  2.0032 -0.8464
 3447TIP3    H231833   4.524   5.965   1.397 -0.1582  0.9304  0.5323
 3448TIP3   OH231834   5.238   3.578  14.346  0.8256  0.4935 -0.1488
 3448TIP3    H131835   5.222   3.672  14.354  0.5869  0.3254  1.5075
 3448TIP3    H231836   5.277   3.568  14.259  0.4093  2.0563 -0.5362
 3449TIP3   OH231837   0.536   3.973  14.316 -0.5167  0.4654  0.3814
 3449TIP3    H131838   0.495   4.042  14.263 -1.8081  0.3289  1.1745
 3449TIP3    H231839   0.622   3.960  14.277 -0.8774  1.4271 -0.7483
 3450TIP3   OH231840   5.417   2.095  15.183  0.7303  0.0176  0.5788
 3450TIP3    H131841   5.377   2.182  15.190 -0.5930 -0.6546  1.4812
 3450TIP3    H231842   5.345   2.038  15.158  1.9504 -0.5425 -1.8072
 3451TIP3   OH231843   1.996   5.659  15.975 -0.1863  0.1231  0.1187
 3451TIP3    H131844   1.933   5.642  16.045  0.1448 -1.3339  0.0674
 3451TIP3    H231845   1.975   5.747  15.945 -3.1591 -0.8996 -0.9150
 3452TIP3   OH231846   5.979   6.808  15.337  0.2889  0.6721 -0.1659
 3452TIP3    H131847   5.936   6.838  15.417  1.5445 -2.6549  1.8879
 3452TIP3    H231848   6.065   6.851  15.339 -0.3048  1.8943 -0.6217
 3453TIP3   OH231849   1.726   1.207   3.767  0.2204  0.5422  0.1318
 3453TIP3    H131850   1.682   1.147   3.829  0.3074 -0.5333 -0.8233
 3453TIP3    H231851   1.815   1.216   3.801  0.8145 -1.4934 -0.7950
 3454TIP3   OH231852   5.378   3.975   5.100  0.3950 -0.0764  0.4473
 3454TIP3    H131853   5.307   3.959   5.162 -0.2167 -1.2493 -0.5402
 3454TIP3    H231854   5.340   3.956   5.014  1.5668  0.4196 -0.1968
 3455TIP3   OH231855   2.238   0.205   6.328  0.7057  0.8856 -0.2302
 3455TIP3    H131856   2.295   0.279   6.306  1.0902  0.6319 -0.0895
 3455TIP3    H231857   2.249   0.195   6.423  3.4529 -1.6636 -0.7646
 3456TIP3   OH231858   1.572   3.980   5.073 -0.4082  0.2819 -0.7509
 3456TIP3    H131859   1.662   4.014   5.068  0.0977 -0.8099  0.4527
 3456TIP3    H231860   1.517   4.058   5.081  0.5014  0.9299 -0.6889
 3457TIP3   OH231861   2.274   6.440   4.955 -0.4774 -0.6542  0.2531
 3457TIP3    H131862   2.243   6.478   5.037 -0.9975 -0.1980 -0.1525
 3457TIP3    H231863   2.259   6.346   4.965 -1.6947 -0.4689  0.1821
 3458TIP3   OH231864   1.392   5.532   2.780 -0.3648 -0.2410  0.2500
 3458TIP3    H131865   1.342   5.582   2.715 -0.8260 -1.5322 -0.3984
 3458TIP3    H231866   1.416   5.597   2.846 -2.0276  0.6120  0.0601
 3459TIP3   OH231867   5.443   5.995  16.577 -0.3915 -0.3494  0.2619
 3459TIP3    H131868   5.427   5.912  16.623 -1.7345 -0.2969 -0.0971
 3459TIP3    H231869   5.394   5.987  16.496  0.6028  0.2484 -0.4071
 3460TIP3   OH231870   6.180   4.104   2.558 -0.0543 -0.0165 -0.0726
 3460TIP3    H131871   6.109   4.040   2.566  0.3471 -0.2747  1.3999
 3460TIP3    H231872   6.256   4.061   2.596  0.2919  1.2287  0.6530
 3461TIP3   OH231873   4.666   0.129  10.725 -0.0334 -0.4746  0.0784
 3461TIP3    H131874   4.680   0.215  10.763 -1.9727 -0.0304 -0.1530
 3461TIP3    H231875   4.636   0.074  10.798 -1.6711 -0.1716 -0.3417
 3462TIP3   OH231876   5.777   0.412   2.477  0.2231  0.2517  0.1294
 3462TIP3    H131877   5.698   0.368   2.509  1.6961 -0.8802  2.3566
 3462TIP3    H231878   5.792   0.375   2.390 -0.5254 -1.1222  0.5664
 3463TIP3   OH231879   0.942   4.300  13.329 -0.0740 -0.3071 -0.1647
 3463TIP3    H131880   0.867   4.309  13.271  0.0303  0.1407 -0.2315
 3463TIP3    H231881   0.975   4.211  13.314 -1.0789 -0.7943  0.4549
 3464TIP3   OH231882   4.298   6.304  11.916 -0.3174 -0.3463 -0.3971
 3464TIP3    H131883   4.394   6.310  11.922 -0.4243  0.8909  0.4114
 3464TIP3    H231884   4.269   6.395  11.916 -1.5177 -0.7209 -0.3997
 3465TIP3   OH231885   3.025   2.236  11.173  0.6162  0.3256 -0.1609
 3465TIP3    H131886   3.083   2.194  11.110 -0.5662 -0.3325 -0.8422
 3465TIP3    H231887   3.045   2.193  11.256 -0.2312 -1.2884 -0.7521
 3466TIP3   OH231888   4.721   1.713   0.001 -0.2884 -0.0947 -1.2894
 3466TIP3    H131889   4.795   1.668  -0.039  0.0207  0.7045 -1.6307
 3466TIP3    H231890   4.672   1.644   0.046 -0.9665 -1.1604 -3.5333
 3467TIP3   OH231891   3.478   3.368   2.600  0.1900  0.1255  0.0093
 3467TIP3    H131892   3.552   3.310   2.580  1.4611  1.0986  1.6899
 3467TIP3    H231893   3.448   3.400   2.515  1.8897 -0.0906 -0.6885
 3468TIP3   OH231894   5.631   3.522   4.698  0.2673  0.3912  0.1636
 3468TIP3    H131895   5.707   3.479   4.739  0.3972  1.3736  0.9680
 3468TIP3    H231896   5.609   3.466   4.624 -0.8149 -2.2374  2.3648
 3469TIP3   OH231897   5.559   6.093  12.939 -0.0812 -0.0486  0.2611
 3469TIP3    H131898   5.654   6.084  12.944 -0.2458 -2.5312 -0.4923
 3469TIP3    H231899   5.544   6.131  12.852  0.2367  1.0392  0.6659
 3470TIP3   OH231900   3.061   0.823  17.200 -0.0186 -0.0730 -0.4976
 3470TIP3    H131901   3.084   0.730  17.194  0.7032 -0.0220  1.2758
 3470TIP3    H231902   3.132   0.868  17.153  0.5093 -0.3144  0.0604
 3471TIP3   OH231903   2.434   3.504   0.093 -0.0242 -0.4757  0.0647
 3471TIP3    H131904   2.339   3.510   0.098  0.0219 -0.3058  0.9897
 3471TIP3    H231905   2.462   3.494   0.185  1.0436  2.6249  0.1423
 3472TIP3   OH231906   5.911   0.674   6.074 -0.5725  0.0601 -0.2989
 3472TIP3    H131907   5.857   0.632   6.007 -0.4285  0.1419 -0.4680
 3472TIP3    H231908   5.971   0.729   6.024  0.4128 -0.8910 -0.1798
 3473TIP3   OH231909   4.629   2.992  14.738 -0.3560 -0.0916 -0.2481
 3473TIP3    H131910   4.606   3.024  14.651 -0.1540 -0.8951 -0.6025
 3473TIP3    H231911   4.657   2.901  14.724  2.7052  0.7000  0.1729
 3474TIP3   OH231912   5.711   4.803  11.269  0.3547  0.3853  0.0945
 3474TIP3    H131913   5.679   4.861  11.199 -0.3509  0.2340  0.2912
 3474TIP3    H231914   5.778   4.750  11.226  0.1743  0.5370 -0.3831
 3475TIP3   OH231915   1.553   6.107  11.709 -0.0888  0.3511  0.1618
 3475TIP3    H131916   1.501   6.137  11.784 -1.5348  1.6949 -1.3445
 3475TIP3    H231917   1.567   6.185  11.657  0.0243 -0.7609 -1.5029
 3476TIP3   OH231918   3.770   1.379  17.142  0.2715 -0.3352  0.1450
 3476TIP3    H131919   3.793   1.294  17.104 -0.9022 -1.0841  1.0415
 3476TIP3    H231920   3.743   1.358  17.232 -0.5474  0.9110  0.2076
 3477TIP3   OH231921   0.079   1.210   5.409 -0.0289  0.1424 -0.2200
 3477TIP3    H131922   0.040   1.166   5.485 -0.8915  1.2250 -0.0243
 3477TIP3    H231923   0.053   1.156   5.334 -0.4873 -0.0665  0.0867
 3478TIP3   OH231924   2.273   0.365   1.211 -0.2093 -0.3755 -0.0585
 3478TIP3    H131925   2.263   0.292   1.149  0.3201  0.6774 -1.4151
 3478TIP3    H231926   2.365   0.363   1.236 -0.8515 -2.0513  2.3133
 3479TIP3   OH231927   4.155   2.969  16.864 -0.0845  0.0604  0.4363
 3479TIP3    H131928   4.181   2.877  16.856 -0.4776  0.0188 -0.4579
 3479TIP3    H231929   4.162   2.988  16.957 -0.5559 -1.0456  0.7078
 3480TIP3   OH231930   4.467   6.688  16.268  0.1564  0.2262  0.4650
 3480TIP3    H131931   4.552   6.644  16.266  0.2991  0.5205 -0.4541
 3480TIP3    H231932   4.446   6.702  16.175 -1.3862 -0.8057  0.6402
 3481TIP3   OH231933   2.909   0.198   4.755  0.2165  0.2425  0.3368
 3481TIP3    H131934   2.878   0.215   4.666 -0.3258 -1.3088  0.2141
 3481TIP3    H231935   2.838   0.150   4.796  0.9217 -0.0074  1.2648
 3482TIP3   OH231936   6.489   2.728   2.966 -0.1158 -0.7592  0.0563
 3482TIP3    H131937   6.463   2.720   2.875  0.0996 -2.4985  0.1244
 3482TIP3    H231938   6.582   2.706   2.967  0.8231  2.8646  0.1922
 3483TIP3   OH231939   2.635   6.053   0.031  0.0485  0.3742 -0.2050
 3483TIP3    H131940   2.618   6.041  -0.062 -1.6368 -2.4106  0.4072
 3483TIP3    H231941   2.723   6.019   0.045 -1.3599 -3.4951 -0.0779
 3484TIP3   OH231942   1.189   0.353  16.380  0.3866 -0.0097 -0.7884
 3484TIP3    H131943   1.190   0.295  16.456 -0.8681  0.9662 -0.0023
 3484TIP3    H231944   1.227   0.302  16.310 -0.7340 -1.8134 -0.1105
 3485TIP3   OH231945   0.275   4.642   3.496 -0.2581  0.4451 -0.5120
 3485TIP3    H131946   0.339   4.647   3.425 -0.4268  0.3133 -0.6752
 3485TIP3    H231947   0.303   4.709   3.558  0.3600  0.0010 -0.3106
 3486TIP3   OH231948   4.368   3.068  11.451 -0.1145 -0.2705  0.3291
 3486TIP3    H131949   4.453   3.090  11.491 -0.3729 -0.0399  0.7606
 3486TIP3    H231950   4.389   3.004  11.383  0.5291  0.4876 -0.2052
 3487TIP3   OH231951   4.273   4.563  11.197  0.2561  0.0646 -0.1293
 3487TIP3    H131952   4.293   4.577  11.290 -1.3620  3.5581 -0.2092
 3487TIP3    H231953   4.330   4.625  11.151  1.7656 -2.3459 -1.5923
 3488TIP3   OH231954   1.532   5.374   0.632  0.3870 -0.5879 -0.2266
 3488TIP3    H131955   1.541   5.448   0.692  0.4681 -0.2437 -0.6655
 3488TIP3    H231956   1.622   5.348   0.612  0.3594 -0.7340 -0.1641
 3489TIP3   OH231957   4.994   2.492   1.675 -0.2838 -0.1752  0.4466
 3489TIP3    H131958   5.054   2.555   1.637  1.0552 -1.6325  0.0958
 3489TIP3    H231959   4.989   2.421   1.611 -1.1752 -0.7864  1.1631
 3490TIP3   OH231960   6.210   3.292  13.379 -0.3602  0.1445 -0.3518
 3490TIP3    H131961   6.142   3.225  13.383 -1.8993  1.7452  1.1910
 3490TIP3    H231962   6.203   3.329  13.291 -2.5843  1.3747  0.3166
 3491TIP3   OH231963   1.212   6.616   1.217 -0.1390 -0.4523 -0.1660
 3491TIP3    H131964   1.251   6.687   1.267 -0.6982 -0.8496  0.8437
 3491TIP3    H231965   1.126   6.602   1.257 -0.3450 -1.1871 -0.8454
 3492TIP3   OH231966   6.528   4.601  12.503  0.3728 -0.0146 -0.3626
 3492TIP3    H131967   6.435   4.597  12.524  0.3493 -1.1317 -0.6242
 3492TIP3    H231968   6.538   4.547  12.425  0.8045  2.3709 -2.0055
 3493TIP3   OH231969   5.680   4.642  12.704  0.1804 -0.3465  0.3443
 3493TIP3    H131970   5.629   4.651  12.784 -1.0515  1.7157 -0.6187
 3493TIP3    H231971   5.705   4.732  12.681  2.5068 -1.1211 -0.3340
 3494TIP3   OH231972   2.849   5.609  14.512 -0.3325  0.6339  0.6905
 3494TIP3    H131973   2.845   5.544  14.582 -1.4208  0.3133  0.3444
 3494TIP3    H231974   2.760   5.642  14.505  0.3846  2.7284  1.3679
 3495TIP3   OH231975   4.678   4.969  14.409 -0.1146 -0.0874 -0.9594
 3495TIP3    H131976   4.637   4.987  14.325  0.7864  0.4263 -1.3031
 3495TIP3    H231977   4.771   4.959  14.389  0.2262  0.8487  0.0832
 3496TIP3   OH231978   5.290   0.480   5.418  0.3866  0.0875 -0.5175
 3496TIP3    H131979   5.295   0.395   5.461  0.7105  0.8817  1.0411
 3496TIP3    H231980   5.354   0.534   5.464 -0.9472  1.6306 -0.4164
 3497TIP3   OH231981   0.893   3.016  15.643 -0.3285 -0.1737  0.1225
 3497TIP3    H131982   0.987   3.000  15.638 -0.1444  1.1777 -1.0364
 3497TIP3    H231983   0.882   3.106  15.613 -2.1200 -0.7565 -1.0575
 3498TIP3   OH231984   3.145   4.861  16.082 -0.5089 -0.1977  0.1654
 3498TIP3    H131985   3.079   4.930  16.077 -0.3312  0.0231  0.8229
 3498TIP3    H231986   3.228   4.906  16.071 -0.2170  0.0706  3.0795
 3499TIP3   OH231987   2.133   1.319  14.674 -0.2275 -0.0741  0.0651
 3499TIP3    H131988   2.183   1.239  14.692 -1.4356 -0.6395  0.9460
 3499TIP3    H231989   2.061   1.317  14.737  0.2383  2.1592  0.6979
 3500TIP3   OH231990   0.505   4.364   6.459 -0.3836  0.0585  0.0765
 3500TIP3    H131991   0.479   4.342   6.548  1.4425  1.0737  0.8797
 3500TIP3    H231992   0.516   4.279   6.415  1.8888 -0.5633  1.7648
 3501TIP3   OH231993   3.823   3.836  16.511 -0.0723 -0.1131 -0.1978
 3501TIP3    H131994   3.915   3.821  16.532 -0.1399 -0.2235  0.0318
 3501TIP3    H231995   3.776   3.801  16.587 -0.1569  2.9988  1.3003
 3502TIP3   OH231996   1.146   4.806  14.269  0.0127  0.0115  0.0247
 3502TIP3    H131997   1.113   4.888  14.231 -0.8714  0.2991  1.3469
 3502TIP3    H231998   1.074   4.744  14.258  0.2759 -0.2840 -0.0169
 3503TIP3   OH231999   4.165   1.832  13.237  0.4915  0.2261 -0.6467
 3503TIP3    H132000   4.120   1.886  13.303 -0.5104 -0.1838 -0.9887
 3503TIP3    H232001   4.247   1.806  13.280 -0.4637 -0.6225  0.7225
 3504TIP3   OH232002   5.884   5.800   3.954 -0.4658 -0.5657  0.5402
 3504TIP3    H132003   5.823   5.727   3.948  1.1467 -1.9214  0.4758
 3504TIP3    H232004   5.963   5.763   3.994  0.1938  1.2395  0.9602
 3505TIP3   OH232005   1.525   3.267  11.236  0.4500  0.4715  0.4791
 3505TIP3    H132006   1.433   3.261  11.260  0.2184  1.5988 -0.0941
 3505TIP3    H232007   1.524   3.295  11.145  1.3556 -0.8801  0.0282
 3506TIP3   OH232008   2.694   1.102  14.028 -0.1917 -0.0078 -0.1423
 3506TIP3    H132009   2.743   1.183  14.041  0.7348 -0.6542  0.5703
 3506TIP3    H232010   2.747   1.052  13.966 -0.0604 -0.5992  0.4271
 3507TIP3   OH232011   3.327   3.596   5.540  0.3017 -0.5490 -0.6468
 3507TIP3    H132012   3.394   3.633   5.598  1.7441 -0.9629 -2.0000
 3507TIP3    H232013   3.245   3.612   5.585  1.1865  1.2585  0.3912
 3508TIP3   OH232014   5.498   1.425  12.444 -0.0427 -0.5361  0.2740
 3508TIP3    H132015   5.532   1.343  12.481 -1.3191 -1.1508  0.1045
 3508TIP3    H232016   5.456   1.398  12.362 -1.2103  0.1646  0.6354
 3509TIP3   OH232017   1.584   0.223  14.865 -0.0605  0.1518 -0.2634
 3509TIP3    H132018   1.615   0.166  14.936  1.2601  1.1896  0.0250
 3509TIP3    H232019   1.641   0.300  14.870 -0.1190  0.3552 -2.2980
 3510TIP3   OH232020   2.601   0.861   4.090  0.6622 -0.4677  0.6250
 3510TIP3    H132021   2.525   0.849   4.147 -0.6017 -0.2882 -1.0032
 3510TIP3    H232022   2.619   0.955   4.093  0.9769 -0.5379  1.1706
 3511TIP3   OH232023   1.389   6.780  14.140  0.1985  0.0392 -0.3612
 3511TIP3    H132024   1.294   6.796  14.144  0.2634  0.3192  0.0535
 3511TIP3    H232025   1.411   6.746  14.227  0.2613 -1.2257 -0.8551
 3512TIP3   OH232026   3.125   5.678   5.411 -0.0809  0.1627  0.3684
 3512TIP3    H132027   3.121   5.609   5.477 -1.2457 -1.0757 -0.9932
 3512TIP3    H232028   3.148   5.634   5.330  1.5356  1.7102 -0.0489
 3513TIP3   OH232029   6.532   3.889  12.085  0.6823  0.2218 -0.0204
 3513TIP3    H132030   6.529   3.957  12.152  1.5866  2.4379 -2.1496
 3513TIP3    H232031   6.440   3.873  12.063  0.4830  1.1965  0.0712
 3514TIP3   OH232032   2.910   0.202  14.009  0.2651  0.1147 -0.2800
 3514TIP3    H132033   2.830   0.189  13.958  0.6776  0.2254 -0.9577
 3514TIP3    H232034   2.911   0.129  14.071  0.3333 -0.6336 -1.1593
 3515TIP3   OH232035   3.090   4.374  13.896 -0.3830 -0.1158 -0.1560
 3515TIP3    H132036   3.148   4.428  13.842 -0.9217  0.1093 -0.5203
 3515TIP3    H232037   3.119   4.284  13.881 -0.4559 -0.0425 -0.7271
 3516TIP3   OH232038   4.776   3.248  11.777  0.2112  0.2833 -0.2108
 3516TIP3    H132039   4.791   3.196  11.856 -0.6505 -1.0496 -0.9019
 3516TIP3    H232040   4.844   3.218  11.716  0.5743  0.9684 -0.1493
 3517TIP3   OH232041   5.251   6.570   2.901 -0.3095  0.0515  0.2029
 3517TIP3    H132042   5.302   6.641   2.862  1.4582 -2.6952 -2.7807
 3517TIP3    H232043   5.316   6.515   2.945 -1.7090  0.4427  2.8922
 3518TIP3   OH232044   0.587   4.527   3.849  0.4184 -0.7930 -0.0939
 3518TIP3    H132045   0.627   4.501   3.767 -1.2122  0.0579 -1.1941
 3518TIP3    H232046   0.567   4.444   3.894  0.1796 -1.2983 -1.1248
 3519TIP3   OH232047   1.895   1.503   0.612  0.8779 -0.1983  0.0701
 3519TIP3    H132048   1.985   1.507   0.643  1.0131  1.4313 -0.4773
 3519TIP3    H232049   1.886   1.579   0.554 -1.4161  0.8597  1.7160
 3520TIP3   OH232050   6.139   2.883  16.605  0.3847  0.1720  0.5947
 3520TIP3    H132051   6.076   2.839  16.548  1.0552  1.2687 -1.0347
 3520TIP3    H232052   6.125   2.843  16.691 -1.5705 -0.5734 -0.0272
 3521TIP3   OH232053   5.851   2.396  13.649  0.1192  0.3600 -0.0866
 3521TIP3    H132054   5.784   2.464  13.634 -2.1780 -1.6470  0.8166
 3521TIP3    H232055   5.884   2.375  13.562 -0.4765  1.3127 -0.5499
 3522TIP3   OH232056   6.019   5.802   3.438 -0.5039  0.0610 -0.6284
 3522TIP3    H132057   5.968   5.731   3.478  3.0579 -1.8400  0.7809
 3522TIP3    H232058   6.029   5.866   3.508 -0.1207 -0.0584 -0.5702
 3523TIP3   OH232059   5.478   3.588   1.222 -0.4138  0.4310 -0.1250
 3523TIP3    H132060   5.430   3.654   1.273 -0.6090  0.0030  0.2566
 3523TIP3    H232061   5.494   3.629   1.138 -1.4466  0.5927 -0.2569
 3524TIP3   OH232062   4.543   0.788  13.271 -0.6613 -0.1376  0.1922
 3524TIP3    H132063   4.548   0.802  13.176 -1.9377  0.6443  0.2230
 3524TIP3    H232064   4.583   0.702  13.285 -2.0725 -1.0634 -1.2764
 3525TIP3   OH232065   6.080   3.658  11.636  0.5048 -0.5228 -0.4495
 3525TIP3    H132066   6.121   3.716  11.572  1.5172 -0.5815  0.1326
 3525TIP3    H232067   6.150   3.639  11.700 -0.4797 -0.4770  0.6561
 3526TIP3   OH232068   1.553   1.025   4.586 -0.2241  0.7795  0.3242
 3526TIP3    H132069   1.484   1.031   4.520  1.3700  1.4730 -1.3311
 3526TIP3    H232070   1.547   0.936   4.619  0.1734 -0.2227 -2.1780
 3527TIP3   OH232071   2.300   0.694   0.571  0.1512  0.2069 -0.0121
 3527TIP3    H132072   2.380   0.646   0.592 -0.6856 -1.5137 -0.6258
 3527TIP3    H232073   2.267   0.724   0.655  1.5044  1.0415  0.2367
 3528TIP3   OH232074   0.074   0.207  15.966 -0.5146  0.0656 -0.0673
 3528TIP3    H132075   0.147   0.151  15.990 -1.4211 -1.2432 -0.3299
 3528TIP3    H232076   0.016   0.205  16.042 -0.0694  1.4735  0.3234
 3529TIP3   OH232077   5.674   6.449   2.379 -0.1946  0.2103  0.5925
 3529TIP3    H132078   5.727   6.465   2.457  1.8669 -1.7808 -0.3481
 3529TIP3    H232079   5.613   6.380   2.404  0.9639 -0.9520  0.2455
 3530TIP3   OH232080   6.611   5.608   2.099 -0.2497 -0.5789  0.1053
 3530TIP3    H132081   6.568   5.685   2.062 -0.7276 -0.0465  1.7198
 3530TIP3    H232082   6.554   5.535   2.076  0.5075 -0.5628 -1.9418
 3531TIP3   OH232083   1.306   0.239  14.257 -0.4779 -0.1241  0.4863
 3531TIP3    H132084   1.342   0.163  14.303  1.9515  0.4819 -0.3673
 3531TIP3    H232085   1.299   0.307  14.325 -2.6564 -1.0517  1.2510
 3532TIP3   OH232086   5.989   6.376  14.154  0.0628  0.0787  0.4104
 3532TIP3    H132087   5.913   6.351  14.102 -1.1805  3.1168  0.6634
 3532TIP3    H232088   5.974   6.335  14.239 -0.8534 -0.0817  0.1803
 3533TIP3   OH232089   5.987   1.947  15.474 -0.5071  0.4835 -0.0331
 3533TIP3    H132090   6.080   1.940  15.452 -0.0593  2.0494  1.3056
 3533TIP3    H232091   5.983   1.935  15.569 -1.7259  0.0583 -0.1214
 3534TIP3   OH232092   2.912   4.728  12.147 -0.0369  0.0703 -0.2540
 3534TIP3    H132093   2.978   4.727  12.216 -2.1069 -0.9761  1.7830
 3534TIP3    H232094   2.921   4.642  12.104  0.4133  0.2247 -0.4728
 3535TIP3   OH232095   4.546   2.600   1.354 -0.3798 -0.3848 -0.4575
 3535TIP3    H132096   4.463   2.595   1.400 -0.6142 -1.3440 -0.9823
 3535TIP3    H232097   4.546   2.687   1.313 -0.5910  0.0849  0.5192
 3536TIP3   OH232098   3.521   6.100   5.378  0.2137 -0.7779  0.1675
 3536TIP3    H132099   3.541   6.013   5.412 -0.4777 -0.2804  1.8473
 3536TIP3    H232100   3.467   6.141   5.445 -0.5851  0.4676 -1.2155
 3537TIP3   OH232101   1.411   2.678  15.556  0.3385 -0.0302  0.4084
 3537TIP3    H132102   1.449   2.592  15.574  0.4368  0.2094  1.3699
 3537TIP3    H232103   1.444   2.701  15.469 -0.8203 -1.5860 -0.4641
 3538TIP3   OH232104   2.850   0.850  16.197  0.3014  0.0801  0.4091
 3538TIP3    H132105   2.915   0.878  16.133 -0.6479 -0.4808 -0.8335
 3538TIP3    H232106   2.901   0.803  16.263  1.3132  0.7724  0.1417
 3539TIP3   OH232107   1.181   0.652  10.600  0.1286 -0.0458 -0.4348
 3539TIP3    H132108   1.136   0.725  10.643  0.2406 -0.6606  0.7616
 3539TIP3    H232109   1.247   0.693  10.545 -0.4735  0.7879 -0.5449
 3540TIP3   OH232110   6.128   3.003   3.917  0.2975  0.1975  0.0054
 3540TIP3    H132111   6.102   2.912   3.930  0.9872 -0.0153 -0.0989
 3540TIP3    H232112   6.091   3.049   3.992  0.2186 -0.2179  0.2258
 3541TIP3   OH232113   2.405   5.319  12.771 -0.2649  0.5919 -0.1185
 3541TIP3    H132114   2.338   5.379  12.737  0.1769  0.8162 -0.6076
 3541TIP3    H232115   2.453   5.371  12.835 -0.2806  0.5679 -0.0871
 3542TIP3   OH232116   4.222   5.459  17.109 -0.8518  0.4245 -0.2233
 3542TIP3    H132117   4.189   5.379  17.069 -2.1774  0.7444  0.1989
 3542TIP3    H232118   4.316   5.459  17.090 -1.1882 -0.2188 -1.9341
 3543TIP3   OH232119   3.626   3.603  17.255 -0.0081 -0.2206 -0.1081
 3543TIP3    H132120   3.714   3.566  17.250  0.2208  0.5446 -2.0685
 3543TIP3    H232121   3.570   3.540  17.210 -0.5111 -0.7727  1.2564
 3544TIP3   OH232122   0.965   4.855   3.044  0.5146  0.0167  0.0477
 3544TIP3    H132123   0.997   4.930   2.993 -1.3778  0.6090 -0.2915
 3544TIP3    H232124   0.871   4.855   3.029  0.0315 -0.2885  2.9119
 3545TIP3   OH232125   3.919   3.146  16.217  0.5328 -0.1769  0.8802
 3545TIP3    H132126   3.868   3.123  16.294  1.3052 -0.7848  1.2240
 3545TIP3    H232127   3.864   3.208  16.169 -0.3260 -0.4777  1.4632
 3546TIP3   OH232128   3.187   0.503   2.213  0.1256 -0.3883  0.6428
 3546TIP3    H132129   3.244   0.468   2.281  1.3391 -1.6793 -0.9943
 3546TIP3    H232130   3.197   0.442   2.140 -0.1992  1.6426 -1.1315
 3547TIP3   OH232131   2.946   6.462  16.517  0.4150 -0.7408 -0.3914
 3547TIP3    H132132   2.944   6.476  16.611  1.0738 -0.5616 -0.4021
 3547TIP3    H232133   2.892   6.533  16.481  0.6171 -0.4831 -0.1891
 3548TIP3   OH232134   5.376   6.417   4.967 -0.2898  0.0656  0.0321
 3548TIP3    H132135   5.376   6.446   4.876  0.4646  0.9586  0.3037
 3548TIP3    H232136   5.285   6.428   4.995 -0.9250 -1.9646 -1.1331
 3549TIP3   OH232137   0.698   1.918   0.687  0.4216 -0.3609 -0.7547
 3549TIP3    H132138   0.617   1.957   0.653  1.4225  3.1993  0.7166
 3549TIP3    H232139   0.764   1.938   0.622  1.0867  1.0399  0.3266
 3550TIP3   OH232140   5.961   2.420  11.702 -0.0417  0.2067 -0.0456
 3550TIP3    H132141   6.022   2.493  11.713 -0.1543  0.0672  1.5102
 3550TIP3    H232142   5.875   2.463  11.694 -0.2905  0.2050  2.3032
 3551TIP3   OH232143   3.894   5.923  14.312 -0.0123 -0.1497 -0.9030
 3551TIP3    H132144   3.812   5.873  14.302  0.0873 -0.2046 -1.4137
 3551TIP3    H232145   3.865   6.011  14.336 -0.1868 -0.4702  0.0967
 3552TIP3   OH232146   3.659   4.736  11.519 -0.0183 -0.5153 -0.0858
 3552TIP3    H132147   3.603   4.678  11.468  1.2404 -0.7900 -1.1909
 3552TIP3    H232148   3.723   4.770  11.456  0.0877  1.0301  0.8179
 3553TIP3   OH232149   0.767   2.263   2.180  0.0265 -0.2519  0.6457
 3553TIP3    H132150   0.714   2.275   2.259 -0.1910  0.1448  0.4408
 3553TIP3    H232151   0.722   2.195   2.131 -0.3188  0.1111  0.4541
 3554TIP3   OH232152   0.201   2.407  13.529  0.2119 -0.5179 -0.1907
 3554TIP3    H132153   0.228   2.496  13.508  3.6392 -1.8408 -1.8037
 3554TIP3    H232154   0.144   2.381  13.457 -2.1866  0.8629  1.1286
 3555TIP3   OH232155   0.908   2.626  11.512 -0.1389 -0.0865 -0.0334
 3555TIP3    H132156   0.873   2.622  11.601  0.1450  2.8785  0.2443
 3555TIP3    H232157   0.968   2.551  11.506 -0.6470 -0.6784  2.0271
 3556TIP3   OH232158   6.474   1.225  15.476 -0.3942 -0.1576 -0.8360
 3556TIP3    H132159   6.396   1.188  15.434 -2.4956  1.6100  1.3588
 3556TIP3    H232160   6.457   1.319  15.478  2.0806  0.3135 -0.8189
 3557TIP3   OH232161   6.362   6.445   5.794  0.2495 -0.1442 -0.0156
 3557TIP3    H132162   6.396   6.358   5.774  3.3518  1.0605 -0.2861
 3557TIP3    H232163   6.326   6.437   5.883  1.0774 -1.5630  0.2016
 3558TIP3   OH232164   6.606   3.869  16.992  0.3135 -0.1323  0.1064
 3558TIP3    H132165   6.568   3.955  16.980  0.4056 -0.2154 -0.8159
 3558TIP3    H232166   6.531   3.809  16.993  0.3411 -0.1877 -0.6841
 3559TIP3   OH232167   6.335   3.418   6.438  0.2091 -0.3596  0.6781
 3559TIP3    H132168   6.394   3.344   6.421 -0.9380 -0.9710 -0.8282
 3559TIP3    H232169   6.313   3.451   6.350 -2.6406 -0.9280  1.1221
 3560TIP3   OH232170   3.970   2.681  11.322 -0.6433 -0.4114 -0.2675
 3560TIP3    H132171   3.879   2.666  11.348 -1.4955  1.2426 -2.1985
 3560TIP3    H232172   3.965   2.713  11.232  1.7425  1.2443  0.1306
 3561TIP3   OH232173   0.134   2.992   1.561  0.6745 -0.5921  0.3559
 3561TIP3    H132174   0.066   3.020   1.500  0.3869 -1.0157  0.4774
 3561TIP3    H232175   0.178   3.072   1.586  0.3601 -0.3391  0.1069
 3562TIP3   OH232176   6.242   5.324  11.326 -0.6092 -0.4329  0.4013
 3562TIP3    H132177   6.151   5.296  11.317 -0.1551 -1.6353 -0.6147
 3562TIP3    H232178   6.290   5.269  11.264  0.6462  0.9904  0.0835
 3563TIP3   OH232179   3.696   0.228  16.708 -0.3878 -0.3025  0.1962
 3563TIP3    H132180   3.708   0.168  16.781  1.8940 -0.6372 -0.4209
 3563TIP3    H232181   3.738   0.185  16.634 -0.7199  1.0432 -0.7976
 3564TIP3   OH232182   2.463   4.197  14.829  0.4286 -0.3277 -0.0522
 3564TIP3    H132183   2.403   4.240  14.768 -0.4664 -0.3147  0.8262
 3564TIP3    H232184   2.408   4.172  14.903  1.3048 -1.3205  0.2678
 3565TIP3   OH232185   0.833   6.775  11.367  0.4828 -0.4522 -0.2232
 3565TIP3    H132186   0.834   6.748  11.275 -1.5280 -0.7859 -0.1592
 3565TIP3    H232187   0.897   6.847  11.371 -0.1214  0.2188 -2.0892
 3566TIP3   OH232188   3.201   1.739  14.171 -0.0769  0.0607  0.1956
 3566TIP3    H132189   3.234   1.801  14.107  0.5092 -0.6054 -0.1579
 3566TIP3    H232190   3.229   1.774  14.256  2.0152 -0.7665 -0.1270
 3567TIP3   OH232191   1.073   1.031  14.611  0.6605 -0.5007 -0.4436
 3567TIP3    H132192   1.017   1.091  14.661  1.5940 -2.0737  2.5688
 3567TIP3    H232193   1.017   0.955  14.595  0.9523 -0.7561 -0.2307
 3568TIP3   OH232194   1.473   4.061  17.175 -0.0299 -0.2839 -0.4384
 3568TIP3    H132195   1.503   4.127  17.112 -0.0937 -1.6858 -1.9603
 3568TIP3    H232196   1.550   4.045  17.230 -0.5585  2.4472  1.2130
 3569TIP3   OH232197   2.443   4.310  12.369 -0.2259  0.0277  0.4794
 3569TIP3    H132198   2.526   4.315  12.322  0.5161  1.9398  1.9095
 3569TIP3    H232199   2.409   4.399  12.366 -2.4803 -0.8408 -0.4919
 3570TIP3   OH232200   0.643   3.427  15.111 -0.2662  0.1425 -0.6138
 3570TIP3    H132201   0.704   3.494  15.142 -2.0864  2.1950 -1.3340
 3570TIP3    H232202   0.562   3.444  15.159 -1.4853  0.0052 -2.5774
 3571TIP3   OH232203   3.871   2.410  15.666  0.0582 -0.0834 -0.7197
 3571TIP3    H132204   3.935   2.475  15.694 -1.6569  1.6528 -0.7510
 3571TIP3    H232205   3.912   2.366  15.591  1.7155  0.1339  0.0425
 3572TIP3   OH232206   4.395   5.017  11.305  0.2464  0.4718  0.0806
 3572TIP3    H132207   4.323   5.079  11.297  0.3508  0.4186 -1.5413
 3572TIP3    H232208   4.418   4.995  11.214 -1.4062 -3.8410  0.6204
 3573TIP3   OH232209   4.669   2.973  15.163 -0.2517 -0.2955 -0.0886
 3573TIP3    H132210   4.727   2.897  15.173 -0.0438 -0.2880 -1.1445
 3573TIP3    H232211   4.714   3.029  15.099 -0.4478  0.6761  0.6121
 3574TIP3   OH232212   0.581   0.141  15.068 -0.1000  0.5487  0.1002
 3574TIP3    H132213   0.582   0.188  15.151  0.7410  0.1271  0.3407
 3574TIP3    H232214   0.488   0.127  15.049 -0.2959 -2.9619  3.0599
 3575TIP3   OH232215   0.567   2.868   1.167 -0.4458  0.4888  0.0545
 3575TIP3    H132216   0.543   2.890   1.078 -1.5732  0.4223  0.3358
 3575TIP3    H232217   0.563   2.772   1.170  0.9057  0.4172 -0.1843
 3576TIP3   OH232218   6.234   0.684  13.088  0.0900 -0.0253 -0.1474
 3576TIP3    H132219   6.251   0.732  13.169 -2.9976  1.5630 -0.3632
 3576TIP3    H232220   6.204   0.750  13.027 -0.2725 -1.6427 -1.7650
 3577TIP3   OH232221   1.092   3.067   5.583 -0.5518 -0.3055 -0.4117
 3577TIP3    H132222   1.165   3.033   5.634 -0.1173 -0.9814 -1.4779
 3577TIP3    H232223   1.093   3.161   5.601 -0.4881 -0.5636  0.9291
 3578TIP3   OH232224   1.316   1.635   2.999  0.3890 -0.2689 -0.0445
 3578TIP3    H132225   1.329   1.678   2.915 -0.6584  2.0112  0.9102
 3578TIP3    H232226   1.405   1.617   3.031  0.8309  0.4591 -0.8421
 3579TIP3   OH232227   3.670   5.249  16.708  0.2359  0.0547  0.0013
 3579TIP3    H132228   3.736   5.310  16.673  1.5888  0.1466  2.5867
 3579TIP3    H232229   3.598   5.305  16.736 -1.1052 -0.0564 -2.9826
 3580TIP3   OH232230   5.513   4.021   3.178 -0.4606  0.3840 -0.5303
 3580TIP3    H132231   5.464   4.017   3.260 -0.8615 -0.0800 -0.7923
 3580TIP3    H232232   5.531   4.114   3.165  1.2602  0.3084  1.0720
 3581TIP3   OH232233   2.455   0.755  16.136  0.2862  0.1242 -0.0035
 3581TIP3    H132234   2.404   0.783  16.213 -1.5988 -1.6683 -0.5724
 3581TIP3    H232235   2.460   0.660  16.145  2.0775  0.1330 -0.8865
 3582TIP3   OH232236   2.161   6.313   2.370 -0.2042  0.5634  0.1830
 3582TIP3    H132237   2.170   6.308   2.465 -0.7485  0.4722  0.2358
 3582TIP3    H232238   2.110   6.393   2.356  0.0446  0.6836 -0.0446
 3583TIP3   OH232239   3.749   4.649  10.691  0.0409  0.2963 -0.1673
 3583TIP3    H132240   3.750   4.733  10.736 -2.8710  0.2240  0.1440
 3583TIP3    H232241   3.766   4.584  10.759 -0.7123  0.4309  0.1488
 3584TIP3   OH232242   5.088   0.888  15.440  0.0692 -0.4116 -0.1952
 3584TIP3    H132243   5.045   0.909  15.358 -0.3463 -0.6088 -0.0284
 3584TIP3    H232244   5.055   0.801  15.463 -1.8621  0.7459  1.5434
 3585TIP3   OH232245   6.333   3.811   5.965  0.2950 -0.4700 -0.1344
 3585TIP3    H132246   6.243   3.816   5.997  0.6594 -2.0618  1.2303
 3585TIP3    H232247   6.337   3.873   5.892 -1.8758 -0.3268 -0.1491
 3586TIP3   OH232248   1.511   5.167   5.515  0.0275 -0.1338  0.0384
 3586TIP3    H132249   1.421   5.157   5.484 -0.7491 -1.1752  2.4773
 3586TIP3    H232250   1.558   5.094   5.476 -0.9162 -1.3872  1.1737
 3587TIP3   OH232251   5.312   6.186  12.488  0.2784  0.3749  0.3009
 3587TIP3    H132252   5.363   6.120  12.534  0.8585 -0.0240 -0.8973
 3587TIP3    H232253   5.371   6.219  12.420  0.1938  2.5357  1.2346
 3588TIP3   OH232254   5.145   3.537   0.149 -0.1943  0.1460 -0.2092
 3588TIP3    H132255   5.203   3.613   0.141 -0.9596  0.7016 -0.5746
 3588TIP3    H232256   5.141   3.519   0.243  0.8169 -0.0932 -0.2100
 3589TIP3   OH232257   0.028   3.470   4.915  0.8238 -0.1638  0.2259
 3589TIP3    H132258   0.020   3.407   4.844  1.7093  0.9368 -0.8719
 3589TIP3    H232259  -0.063   3.494   4.935  0.3988 -2.6470  1.4879
 3590TIP3   OH232260   2.033   5.593   1.448  0.1282  0.0581 -0.0383
 3590TIP3    H132261   2.110   5.643   1.477  1.0976 -1.0033 -0.7175
 3590TIP3    H232262   2.009   5.632   1.364 -0.3586  0.6950  0.3992
 3591TIP3   OH232263   1.013   5.415  11.457 -0.3745 -0.0678 -0.1633
 3591TIP3    H132264   1.030   5.505  11.483 -0.5520  0.1292 -0.7286
 3591TIP3    H232265   0.969   5.422  11.373 -1.2097 -0.6530  0.2187
 3592TIP3   OH232266   4.784   1.226  11.692  0.0330  0.2610 -0.2701
 3592TIP3    H132267   4.795   1.306  11.743 -0.3455  0.8115 -1.0340
 3592TIP3    H232268   4.868   1.213  11.649 -0.0964  0.6109 -0.6409
 3593TIP3   OH232269   2.647   0.964  16.775 -0.2394  0.2696 -0.1405
 3593TIP3    H132270   2.636   0.869  16.775 -1.8297  0.4219 -0.6417
 3593TIP3    H232271   2.610   0.992  16.691  1.0621  1.2482 -0.4033
 3594TIP3   OH232272   6.699   5.035  13.446  0.1066 -0.2889  0.3210
 3594TIP3    H132273   6.725   5.031  13.354 -0.7408  0.1777  0.0581
 3594TIP3    H232274   6.726   4.950  13.482  0.1725 -0.5896 -0.4217
 3595TIP3   OH232275   0.677   5.550   0.844 -0.0587  0.3148 -0.0288
 3595TIP3    H132276   0.636   5.623   0.889 -1.9936 -1.5748  1.3852
 3595TIP3    H232277   0.635   5.546   0.759 -1.1203 -0.1247  0.5080
 3596TIP3   OH232278   5.032   4.319  13.911 -0.4257  0.2706  0.5373
 3596TIP3    H132279   5.035   4.261  13.835 -2.1252 -0.1169  0.7501
 3596TIP3    H232280   4.943   4.309  13.946  0.2960  0.5198  2.5208
 3597TIP3   OH232281   5.210   6.627   1.903 -0.4039  0.2712  0.1805
 3597TIP3    H132282   5.239   6.695   1.843  0.3242  0.7680  1.0713
 3597TIP3    H232283   5.275   6.629   1.974 -3.2604  2.2456  2.8823
 3598TIP3   OH232284   0.410   6.352   5.180 -0.1472  0.0705  0.0919
 3598TIP3    H132285   0.498   6.331   5.148 -0.7202 -0.7879 -0.9861
 3598TIP3    H232286   0.381   6.272   5.224 -0.5535  0.2015  0.0596
 3599TIP3   OH232287   0.487   3.234   2.756 -0.1235  0.2925 -0.3246
 3599TIP3    H132288   0.469   3.267   2.844 -2.2582  1.4194 -1.1521
 3599TIP3    H232289   0.456   3.144   2.758 -0.1136  0.2942  0.0925
 3600TIP3   OH232290   6.523   1.575   4.266  0.5089 -0.1628 -0.5980
 3600TIP3    H132291   6.485   1.500   4.311 -2.4110  1.8067  0.3436
 3600TIP3    H232292   6.496   1.564   4.174  0.7359 -0.6434 -0.6101
 3601TIP3   OH232293   1.438   3.133   2.499  0.6931 -0.4359  0.5347
 3601TIP3    H132294   1.435   3.103   2.408 -0.3047  0.0609  0.3894
 3601TIP3    H232295   1.530   3.129   2.523  0.9968 -0.3259 -0.5892
 3602TIP3   OH232296   5.103   5.227  17.202 -0.0074 -0.4072  0.0674
 3602TIP3    H132297   5.085   5.134  17.218  0.3781 -0.3949  0.6104
 3602TIP3    H232298   5.190   5.228  17.162  1.2295 -0.1263  2.6149
 3603TIP3   OH232299   5.722   2.320  16.856 -0.5022  0.4448 -0.5904
 3603TIP3    H132300   5.760   2.240  16.818  0.7175  0.5882  0.2914
 3603TIP3    H232301   5.648   2.289  16.908  0.6194 -0.2624  0.6339
 3604TIP3   OH232302   2.467   3.721  17.165  0.3410  0.0313  0.4763
 3604TIP3    H132303   2.376   3.751  17.161  0.2517 -0.4690 -1.7967
 3604TIP3    H232304   2.467   3.654  17.233 -0.9773  0.0495  0.5030
 3605TIP3   OH232305   2.624   6.646   3.621  0.4946  0.0776 -0.1766
 3605TIP3    H132306   2.540   6.634   3.665  1.0176 -1.1435  0.4959
 3605TIP3    H232307   2.679   6.575   3.653  1.3814  0.0912 -1.6086
 3606TIP3   OH232308   4.322   1.546   0.454  0.3089 -0.6311 -0.4310
 3606TIP3    H132309   4.411   1.578   0.441  0.6633 -0.6974  1.6082
 3606TIP3    H232310   4.304   1.491   0.377  1.0950  1.3684 -2.0694
 3607TIP3   OH232311   0.326   3.194   5.513  0.0725  0.2474  0.2309
 3607TIP3    H132312   0.402   3.149   5.550 -0.0934  0.0588  0.3408
 3607TIP3    H232313   0.299   3.138   5.440  1.4705  1.5092 -1.2858
 3608TIP3   OH232314   0.544   4.878   0.224 -0.1654  0.7591  0.5675
 3608TIP3    H132315   0.588   4.957   0.193 -0.9010  0.9017 -0.1255
 3608TIP3    H232316   0.451   4.898   0.216 -0.3827 -0.8935 -1.4928
 3609TIP3   OH232317   2.582   2.343   1.479  0.1561 -0.1678 -0.1813
 3609TIP3    H132318   2.550   2.258   1.509 -0.0433  0.2810  0.8718
 3609TIP3    H232319   2.599   2.329   1.385 -0.5550 -1.1634 -0.1805
 3610TIP3   OH232320   4.956   4.992   2.406  0.6497  0.2788  0.1789
 3610TIP3    H132321   4.920   5.016   2.491  2.1811  1.7133  0.4513
 3610TIP3    H232322   5.047   4.968   2.424  1.0584  0.8429 -1.0773
 3611TIP3   OH232323   0.359   3.251  13.640 -0.1203 -0.1599 -0.1102
 3611TIP3    H132324   0.275   3.292  13.660  0.6983  2.8085 -2.3055
 3611TIP3    H232325   0.367   3.261  13.545  1.6728 -2.5058 -0.2354
 3612TIP3   OH232326   1.136   5.090   3.678  0.0959 -0.1923 -0.7865
 3612TIP3    H132327   1.097   5.141   3.749 -1.9457 -0.0572 -1.9582
 3612TIP3    H232328   1.229   5.084   3.701 -0.5100 -0.1514  1.8673
 3613TIP3   OH232329   6.487   2.731  11.267 -0.2142  0.1144  0.2833
 3613TIP3    H132330   6.427   2.660  11.290  0.4947 -0.6930 -0.3093
 3613TIP3    H232331   6.571   2.688  11.252  0.3134  1.1268  0.2523
 3614TIP3   OH232332   5.619   0.115   2.042 -0.1320 -0.6441  0.0907
 3614TIP3    H132333   5.617   0.131   1.948  0.5958  2.3901  0.5528
 3614TIP3    H232334   5.710   0.093   2.061  0.2016  1.0238  0.4322
 3615TIP3   OH232335   5.172   0.942   0.981  0.1142  0.1851 -0.7141
 3615TIP3    H132336   5.267   0.936   0.977  0.1093 -1.5896  1.2800
 3615TIP3    H232337   5.141   0.867   0.931 -0.1948 -0.7688  0.8816
 3616TIP3   OH232338   4.781   2.391  15.560  0.1322  0.1743  0.2479
 3616TIP3    H132339   4.811   2.343  15.638 -1.2466 -0.6214  0.3199
 3616TIP3    H232340   4.734   2.466  15.596  0.2253  0.2652  0.1767
 3617TIP3   OH232341   0.961   2.830   5.238 -0.5700 -0.0947  0.0345
 3617TIP3    H132342   0.970   2.919   5.205  1.0369 -0.6442 -1.0590
 3617TIP3    H232343   0.937   2.841   5.330 -1.7889  1.4536 -0.4477
 3618TIP3   OH232344   0.932   6.357  11.496 -0.1549 -0.1230  0.4775
 3618TIP3    H132345   0.956   6.438  11.541  2.0551 -0.1758 -0.5119
 3618TIP3    H232346   0.877   6.310  11.559  0.0016  1.3532  1.7421
 3619TIP3   OH232347   4.420   2.654  14.168  0.2293 -0.5227 -0.1490
 3619TIP3    H132348   4.414   2.642  14.262 -1.6741 -1.2221 -0.3360
 3619TIP3    H232349   4.508   2.623  14.146  0.6980 -0.3219  1.3914
 3620TIP3   OH232350   5.675   4.734  15.551  0.1949 -0.0095  0.6450
 3620TIP3    H132351   5.691   4.822  15.583 -1.4981  0.5351  0.0312
 3620TIP3    H232352   5.645   4.685  15.628  0.1765  0.2110  0.7757
 3621TIP3   OH232353   2.759   4.361  13.256 -0.3902 -0.6626 -0.1124
 3621TIP3    H132354   2.702   4.438  13.266 -0.7474 -0.9056 -0.2630
 3621TIP3    H232355   2.726   4.299  13.321  0.1317 -0.5541  0.2620
 3622TIP3   OH232356   5.664   3.050  13.882 -0.1440 -0.7149  0.0681
 3622TIP3    H132357   5.642   3.139  13.911  3.2946  0.1831  0.1635
 3622TIP3    H232358   5.625   2.993  13.949  0.9746  0.9283  2.1864
 3623TIP3   OH232359   6.611   3.216   3.660 -0.5057 -0.0366 -0.4111
 3623TIP3    H132360   6.623   3.281   3.591 -2.1320  0.7786  0.0673
 3623TIP3    H232361   6.520   3.226   3.687 -0.2252 -1.2061  0.9953
 3624TIP3   OH232362   4.349   6.078  11.142 -0.4430  0.4297  0.4963
 3624TIP3    H132363   4.316   5.994  11.175  2.6640 -0.5406  1.2605
 3624TIP3    H232364   4.388   6.057  11.057 -1.9071  1.6093 -0.5037
 3625TIP3   OH232365   3.519   4.946  16.265  0.2371  0.5044 -0.0198
 3625TIP3    H132366   3.593   4.938  16.204  0.1972  2.0172 -0.2848
 3625TIP3    H232367   3.551   5.007  16.332  0.2651 -1.1220  1.4576
 3626TIP3   OH232368   5.797   6.386  15.869  0.2782 -0.2435  0.8225
 3626TIP3    H132369   5.851   6.372  15.791 -0.1483 -1.4680  0.7350
 3626TIP3    H232370   5.832   6.324  15.933 -0.8827 -0.8902  0.8348
 3627TIP3   OH232371   2.762   5.198   0.656  0.4300  0.2444  0.4508
 3627TIP3    H132372   2.677   5.224   0.621 -1.5893 -1.1083  4.0785
 3627TIP3    H232373   2.772   5.107   0.630  1.2411  0.6622 -0.7529
 3628TIP3   OH232374   3.707   0.021  12.595  0.1142 -0.0307 -0.2253
 3628TIP3    H132375   3.801   0.032  12.579  0.1373 -1.0806 -0.8510
 3628TIP3    H232376   3.702  -0.053  12.656 -0.3233 -0.1920 -0.4606
 3629TIP3   OH232377   2.175   0.891   1.026  0.0531  0.1501  0.8854
 3629TIP3    H132378   2.264   0.923   1.011  0.0123  0.4752  1.3427
 3629TIP3    H232379   2.123   0.970   1.041 -0.4616  0.0144 -0.1510
 3630TIP3   OH232380   4.792   6.259  12.733 -0.5963 -0.2410  0.2477
 3630TIP3    H132381   4.710   6.223  12.769 -0.5508  0.1017  0.7011
 3630TIP3    H232382   4.792   6.230  12.642 -0.5070 -1.5016  0.6288
 3631TIP3   OH232383   3.238   4.521   0.092 -0.1109 -0.2955 -0.0019
 3631TIP3    H132384   3.168   4.456   0.087 -0.6060  0.3152 -1.2691
 3631TIP3    H232385   3.315   4.475   0.060 -0.3838 -0.3550 -0.5719
 3632TIP3   OH232386   3.921   3.001  15.611  0.0358 -0.1743  0.2743
 3632TIP3    H132387   3.919   3.016  15.516 -0.4078  0.2847  0.3584
 3632TIP3    H232388   3.925   2.905  15.619 -3.2424 -0.4016 -0.1723
 3633TIP3   OH232389   2.063   4.927  15.173 -0.0162  0.0892 -0.5030
 3633TIP3    H132390   2.103   5.013  15.187 -1.5431  0.8158 -0.5576
 3633TIP3    H232391   2.133   4.865  15.195  1.6345  1.3345 -2.0782
 3634TIP3   OH232392   4.694   5.001  12.215 -1.0152 -0.0171  0.1562
 3634TIP3    H132393   4.748   4.966  12.286 -0.8679  0.2818  0.1910
 3634TIP3    H232394   4.756   5.025  12.146 -1.1723 -0.4897 -0.1538
 3635TIP3   OH232395   3.960   1.302   1.345 -0.0112 -0.4242  0.2932
 3635TIP3    H132396   4.013   1.310   1.425 -0.8421  0.5108  0.7652
 3635TIP3    H232397   4.005   1.235   1.293  2.2446  1.1020  0.2087
 3636TIP3   OH232398   5.298   5.795   3.569  0.4548  0.7367 -0.0788
 3636TIP3    H132399   5.209   5.771   3.595  0.6186 -0.0976 -0.2781
 3636TIP3    H232400   5.351   5.776   3.646  0.1283  3.4385  0.8686
 3637TIP3   OH232401   5.210   3.435   6.168 -0.1244 -0.4013  0.0973
 3637TIP3    H132402   5.261   3.515   6.181  0.6686 -0.4607 -2.3163
 3637TIP3    H232403   5.263   3.366   6.209  0.3265 -0.0322  0.1444
 3638TIP3   OH232404   3.959   5.846   0.089 -0.0271  0.8358 -0.4846
 3638TIP3    H132405   4.015   5.894   0.028  0.1838  2.3004  0.8300
 3638TIP3    H232406   3.981   5.754   0.075  0.4023  1.1817 -2.2267
 3639TIP3   OH232407   2.134   2.656  14.815  0.0927  0.1497 -0.2349
 3639TIP3    H132408   2.061   2.709  14.846 -2.5343 -2.5065 -1.7327
 3639TIP3    H232409   2.111   2.566  14.838  3.2089 -0.6991 -0.1526
 3640TIP3   OH232410   2.581   4.284   1.353  0.2196 -0.5278  0.2105
 3640TIP3    H132411   2.513   4.334   1.399  0.1002 -0.8753  0.4075
 3640TIP3    H232412   2.663   4.322   1.384  0.1111  0.1864 -0.3529
 3641TIP3   OH232413   0.926   3.759  14.158  0.0122  0.0845  0.0484
 3641TIP3    H132414   0.905   3.732  14.068 -0.5737  0.6882 -0.0024
 3641TIP3    H232415   1.015   3.794  14.152 -0.0054  0.0810 -0.2928
 3642TIP3   OH232416   6.642   5.009  15.960  0.3222 -0.1079 -0.1057
 3642TIP3    H132417   6.632   4.944  15.890  0.8069  0.9599 -1.1640
 3642TIP3    H232418   6.558   5.005  16.007  0.2320 -1.2854 -0.3308
 3643TIP3   OH232419   2.920   2.765   4.287 -0.1078  0.5348 -0.0449
 3643TIP3    H132420   2.913   2.726   4.201 -0.3102 -1.8378  1.0171
 3643TIP3    H232421   2.991   2.717   4.330 -1.4261  0.2018  1.8513
 3644TIP3   OH232422   3.964   4.013   0.953  0.3285  0.1530  0.0863
 3644TIP3    H132423   3.982   4.012   1.047 -2.7804 -0.2505  0.7176
 3644TIP3    H232424   4.020   3.944   0.917  0.6565 -0.4841  1.8017
 3645TIP3   OH232425   5.102   0.613   4.002 -0.2815 -0.5093 -0.0837
 3645TIP3    H132426   5.028   0.591   3.946 -0.2165 -0.8352 -0.0429
 3645TIP3    H232427   5.138   0.693   3.964 -0.1121 -0.8421 -0.6331
 3646TIP3   OH232428   6.055   1.136   3.807 -0.1444  0.5207 -0.3898
 3646TIP3    H132429   5.990   1.066   3.816 -0.0671  0.3404 -1.2139
 3646TIP3    H232430   6.117   1.103   3.742  1.0857  0.4614  0.7890
 3647TIP3   OH232431   4.377   1.384  16.138 -0.0660  0.2508  0.4778
 3647TIP3    H132432   4.429   1.360  16.062 -1.3231  0.3240 -0.4165
 3647TIP3    H232433   4.306   1.438  16.103  0.9717  2.7356  2.0542
 3648TIP3   OH232434   0.306   3.584  15.967 -0.3433 -0.1764  0.0596
 3648TIP3    H132435   0.306   3.489  15.968 -1.6737 -0.2240 -1.4550
 3648TIP3    H232436   0.372   3.608  15.902 -1.4830 -0.1525 -1.1332
 3649TIP3   OH232437   1.966   6.640   3.956 -0.5944  0.2799 -0.1303
 3649TIP3    H132438   1.886   6.693   3.959  0.4796  1.9525 -0.4215
 3649TIP3    H232439   1.978   6.620   3.863 -1.4208 -1.1354  0.0657
 3650TIP3   OH232440   2.039   6.654   5.972 -0.6008  0.7407 -0.6354
 3650TIP3    H132441   2.106   6.710   6.012  0.8213 -0.0908 -1.8158
 3650TIP3    H232442   2.074   6.634   5.885 -1.4886 -1.2913 -0.5413
 3651TIP3   OH232443   0.479   6.474   6.256 -0.3825  0.1326  0.1009
 3651TIP3    H132444   0.491   6.548   6.197 -0.0184  0.2618  0.3419
 3651TIP3    H232445   0.470   6.513   6.343 -0.6071 -0.0787  0.1751
 3652TIP3   OH232446   5.554   5.208   4.735  0.0780 -1.1321  0.3337
 3652TIP3    H132447   5.574   5.175   4.648 -0.8467  0.0563 -0.3443
 3652TIP3    H232448   5.596   5.147   4.795 -0.8363 -3.0120 -0.9132
 3653TIP3   OH232449   4.788   4.163   0.640 -0.2009  0.0875  0.1183
 3653TIP3    H132450   4.751   4.113   0.713 -0.0768  0.0212  0.1377
 3653TIP3    H232451   4.803   4.250   0.676 -3.1311  0.9872 -0.7521
 3654TIP3   OH232452   4.685   5.324   1.675  0.9321 -0.1546 -0.1031
 3654TIP3    H132453   4.709   5.322   1.582  0.1231 -0.6627 -0.3079
 3654TIP3    H232454   4.694   5.233   1.704  1.1047 -0.0103  0.2952
 3655TIP3   OH232455   2.175   5.343   1.071  0.2103 -0.1431  0.0331
 3655TIP3    H132456   2.178   5.438   1.081  0.6243 -0.4019  2.5596
 3655TIP3    H232457   2.082   5.321   1.077 -0.0362  0.2243 -2.0561
 3656TIP3   OH232458   4.462   5.810  14.369  0.6718  0.5634  0.5166
 3656TIP3    H132459   4.541   5.794  14.316 -0.0643 -1.9270  0.0656
 3656TIP3    H232460   4.394   5.829  14.305  0.4083  0.4158  0.7519
 3657TIP3   OH232461   3.196   0.152   4.675  0.2176  0.2156  0.0464
 3657TIP3    H132462   3.242   0.209   4.738 -1.2149  1.1251  0.2845
 3657TIP3    H232463   3.104   0.156   4.701 -0.2961  0.0343 -1.6738
 3658TIP3   OH232464   5.780   1.333   1.876 -0.6184 -0.0597  0.4912
 3658TIP3    H132465   5.759   1.357   1.785 -0.6701  0.7025  0.7080
 3658TIP3    H232466   5.724   1.388   1.929  1.0352  1.1298  1.0469
 3659TIP3   OH232467   1.014   6.232   0.925 -0.0668  0.1858  0.4118
 3659TIP3    H132468   1.084   6.200   0.982 -1.4094 -3.4625  0.1449
 3659TIP3    H232469   1.050   6.225   0.837  0.0703  0.5906  0.4352
 3660TIP3   OH232470   6.213   5.323   4.590  0.3435 -0.0403 -0.5740
 3660TIP3    H132471   6.182   5.402   4.633  3.6202  0.3283  1.3008
 3660TIP3    H232472   6.191   5.253   4.652  3.6829  0.3061  1.0916
 3661TIP3   OH232473   2.698   2.894  13.468  0.2790 -0.2095 -0.0680
 3661TIP3    H132474   2.739   2.980  13.477  0.6046 -0.0543 -2.5554
 3661TIP3    H232475   2.748   2.837  13.526 -0.3937  1.3983  2.1661
 3662TIP3   OH232476   6.714   0.867   4.594 -0.5341 -0.0581 -0.2734
 3662TIP3    H132477   6.639   0.921   4.569  0.0954  0.5662 -0.8414
 3662TIP3    H232478   6.723   0.804   4.522 -0.3019  0.0912 -0.3765
 3663TIP3   OH232479   5.781   5.051  17.143  0.1627 -0.5502  0.2295
 3663TIP3    H132480   5.781   4.982  17.077 -1.3396  0.0300 -0.3766
 3663TIP3    H232481   5.737   5.012  17.219  0.1079 -0.5347  0.2050
 3664TIP3   OH232482   4.562   1.034  13.797 -0.3636  1.1419 -0.3088
 3664TIP3    H132483   4.537   1.037  13.705 -0.7259 -1.2312 -0.3241
 3664TIP3    H232484   4.651   0.999  13.798 -1.1669 -0.9900  0.3160
 3665TIP3   OH232485   4.399   5.617  14.794  0.2609  0.6630 -0.6504
 3665TIP3    H132486   4.330   5.585  14.852  0.8642 -0.8579 -0.7467
 3665TIP3    H232487   4.425   5.701  14.831 -2.5441  1.8921 -1.3533
 3666TIP3   OH232488   4.693   1.668  14.664 -0.2223 -0.0980  0.2952
 3666TIP3    H132489   4.660   1.583  14.691  1.6304 -0.8280  0.3517
 3666TIP3    H232490   4.620   1.710  14.619 -0.7962 -2.1918 -0.7592
 3667TIP3   OH232491   1.868   2.870  16.235  0.2386 -0.1560  0.4079
 3667TIP3    H132492   1.885   2.776  16.242  0.9302 -0.0804 -0.2661
 3667TIP3    H232493   1.785   2.877  16.189 -0.1526 -0.4511  1.0639
 3668TIP3   OH232494   5.246   0.464   0.007 -0.1332  0.1063  0.1383
 3668TIP3    H132495   5.164   0.416   0.016 -0.7336  1.1206  0.0852
 3668TIP3    H232496   5.274   0.448  -0.083 -0.9184  0.7959 -0.2281
 3669TIP3   OH232497   2.542   3.199  10.952  0.3750  0.0642 -0.6894
 3669TIP3    H132498   2.504   3.191  10.864 -0.0245 -2.8182 -0.2865
 3669TIP3    H232499   2.634   3.179  10.940  0.0779 -1.6195 -0.2683
 3670TIP3   OH232500   5.578   0.677  11.732 -0.0837 -0.0109 -0.3623
 3670TIP3    H132501   5.540   0.617  11.668 -0.7842 -0.1120  0.1414
 3670TIP3    H232502   5.502   0.720  11.772  0.3382 -0.0946  0.5352
 3671TIP3   OH232503   2.423   1.529  17.263  0.0322 -0.5517  0.4163
 3671TIP3    H132504   2.472   1.494  17.337 -1.1303 -0.9293  1.0318
 3671TIP3    H232505   2.349   1.469  17.253 -2.0072  1.6871  1.5055
 3672TIP3   OH232506   2.424   4.319   3.977  0.0597  0.2720  0.0429
 3672TIP3    H132507   2.512   4.313   4.015 -0.7231 -1.4130  1.6504
 3672TIP3    H232508   2.372   4.363   4.044 -0.7771 -0.5218 -0.0803
 3673TIP3   OH232509   2.146   5.109   2.525  0.0385 -0.4281 -0.3260
 3673TIP3    H132510   2.214   5.136   2.588 -1.5333 -0.5265  1.4709
 3673TIP3    H232511   2.193   5.098   2.443  2.1415 -0.0854  0.7764
 3674TIP3   OH232512   0.336   6.491  14.152 -0.6132 -0.3624 -0.4464
 3674TIP3    H132513   0.399   6.510  14.221  1.1690 -0.0192 -2.1251
 3674TIP3    H232514   0.327   6.396  14.152 -1.5083 -0.3090  0.9692
 3675TIP3   OH232515   1.218   2.846  13.275  0.0366 -0.5199  0.1408
 3675TIP3    H132516   1.233   2.817  13.186 -0.5605 -2.4160  0.6415
 3675TIP3    H232517   1.305   2.860  13.312  0.2806  0.1350 -0.6790
 3676TIP3   OH232518   2.227   5.505   5.137  0.1756  0.4238  0.0911
 3676TIP3    H132519   2.245   5.412   5.127  1.7652  0.7513 -0.2883
 3676TIP3    H232520   2.159   5.510   5.205  1.3985 -0.9076  1.4353
 3677TIP3   OH232521   3.407   1.354  12.131  0.1659 -0.7735  0.0163
 3677TIP3    H132522   3.349   1.386  12.062 -0.0338 -2.3482 -0.5696
 3677TIP3    H232523   3.476   1.420  12.138 -0.4729 -0.0116 -0.8457
 3678TIP3   OH232524   5.203   3.348   0.497  0.3198 -0.0747  0.9332
 3678TIP3    H132525   5.262   3.274   0.508  1.6344  0.9252  0.7313
 3678TIP3    H232526   5.226   3.409   0.567  0.4333  0.8978  0.0707
 3679TIP3   OH232527   5.138   0.457  14.107 -0.3965  0.2527 -0.4339
 3679TIP3    H132528   5.155   0.363  14.113  0.7246  0.5820  1.9509
 3679TIP3    H232529   5.165   0.481  14.018  1.0466 -1.3407 -0.4389
 3680TIP3   OH232530   6.168   2.168  12.085 -0.1532  0.0231  0.0875
 3680TIP3    H132531   6.163   2.218  12.004  2.0387 -0.5757 -0.4525
 3680TIP3    H232532   6.121   2.087  12.066  0.4815 -0.1764 -0.6294
 3681TIP3   OH232533   2.196   3.354  11.353 -0.1848 -0.0562  0.3604
 3681TIP3    H132534   2.259   3.427  11.351 -0.4154  0.1883  1.7345
 3681TIP3    H232535   2.187   3.328  11.261 -0.2543  1.7765 -0.1698
 3682TIP3   OH232536   5.638   4.038  14.590 -0.3266  0.7114 -0.2611
 3682TIP3    H132537   5.572   4.043  14.659 -0.9839 -0.2043 -0.8198
 3682TIP3    H232538   5.705   4.102  14.616  0.4065 -1.0324  2.2509
 3683TIP3   OH232539   3.925   2.011  13.995 -0.0255  0.0179 -0.4348
 3683TIP3    H132540   3.988   2.046  14.057 -1.1814  2.0436 -0.3701
 3683TIP3    H232541   3.921   2.076  13.925 -3.0305  0.6403  0.2315
 3684TIP3   OH232542   6.797   3.705   4.275  0.5020  0.8582  0.0666
 3684TIP3    H132543   6.703   3.717   4.269  0.1164 -1.7052  0.7349
 3684TIP3    H232544   6.820   3.736   4.363 -0.1384 -0.9811  0.9036
 3685TIP3   OH232545   5.844   1.645   0.719  0.0631  0.3453  0.0124
 3685TIP3    H132546   5.937   1.653   0.738  0.1812  0.7450 -0.7326
 3685TIP3    H232547   5.805   1.726   0.753 -0.1900 -0.3224  1.3558
 3686TIP3   OH232548   2.368   5.677  12.304 -0.0758  0.0424  0.1224
 3686TIP3    H132549   2.396   5.672  12.396  0.4805 -2.0718 -0.1480
 3686TIP3    H232550   2.314   5.600  12.291  0.1185  0.1544 -1.4281
 3687TIP3   OH232551   4.292   3.161   2.267  0.0050  0.1050 -0.5369
 3687TIP3    H132552   4.307   3.083   2.213  1.2348  0.5489 -0.8790
 3687TIP3    H232553   4.228   3.134   2.332 -1.9440 -0.2923 -2.5683
 3688TIP3   OH232554   4.982   4.972  12.871  0.0816 -0.7746  0.5585
 3688TIP3    H132555   4.894   4.999  12.899 -0.4387 -1.3319 -0.4940
 3688TIP3    H232556   4.988   5.003  12.780  0.7171 -1.3443  0.4086
 3689TIP3   OH232557   4.124   3.159  14.744 -0.2875  0.3697 -0.1655
 3689TIP3    H132558   4.216   3.134  14.735 -0.5212 -0.9186  0.8986
 3689TIP3    H232559   4.084   3.088  14.795 -1.8108  1.0511 -0.3655
 3690TIP3   OH232560   1.242   6.652  14.363  0.7217 -0.7974 -0.0054
 3690TIP3    H132561   1.295   6.579  14.394 -2.3650 -1.1441  5.1873
 3690TIP3    H232562   1.283   6.729  14.403 -0.7215 -0.7256  1.4155
 3691TIP3   OH232563   1.926   0.224  14.042 -0.6600 -0.8758 -0.2033
 3691TIP3    H132564   1.977   0.188  13.969  0.3947  0.0485  0.0532
 3691TIP3    H232565   1.835   0.216  14.015 -0.2454  0.2035 -1.9824
 3692TIP3   OH232566   5.841   4.997   3.399 -0.2433 -0.0781 -0.0278
 3692TIP3    H132567   5.876   5.044   3.474  0.3801 -0.3143 -0.1717
 3692TIP3    H232568   5.910   4.936   3.374 -1.4870 -1.9093  0.8844
 3693TIP3   OH232569   0.326   2.791   4.412 -0.0673 -0.0845  0.3131
 3693TIP3    H132570   0.336   2.803   4.507 -2.2880  0.0119  0.5412
 3693TIP3    H232571   0.375   2.710   4.394 -0.2564 -0.5176  1.6600
 3694TIP3   OH232572   0.269   5.585   1.691 -0.2143 -0.5155  0.2647
 3694TIP3    H132573   0.232   5.655   1.744  0.0149 -1.1731  1.2943
 3694TIP3    H232574   0.341   5.550   1.743 -0.8768 -2.0996  0.1357
 3695TIP3   OH232575   6.290   6.501   1.368 -0.2594  0.0900  0.5936
 3695TIP3    H132576   6.315   6.520   1.278  0.5620  1.6831  1.1384
 3695TIP3    H232577   6.359   6.444   1.401 -0.5684 -0.5043  0.2095
 3696TIP3   OH232578   4.930   1.887  12.729 -0.9737  0.1835  0.0318
 3696TIP3    H132579   4.988   1.869  12.655 -0.4432 -1.2282  0.7525
 3696TIP3    H232580   4.987   1.877  12.806 -2.2502 -1.6529  0.7754
 3697TIP3   OH232581   2.206   3.295   0.300  0.2607  0.0597  0.1960
 3697TIP3    H132582   2.184   3.230   0.233  2.4968  1.8166 -2.3298
 3697TIP3    H232583   2.164   3.375   0.270  0.6432  0.6962  1.3221
 3698TIP3   OH232584   1.876   3.518  12.196  0.3880  0.1628  0.3050
 3698TIP3    H132585   1.822   3.598  12.198 -1.7540 -1.2452  0.1761
 3698TIP3    H232586   1.916   3.520  12.109 -1.6596 -0.1623 -0.6803
 3699TIP3   OH232587   2.219   2.124   1.663 -0.5014 -0.4884  0.0705
 3699TIP3    H132588   2.313   2.142   1.655 -0.6663 -0.4451 -2.2332
 3699TIP3    H232589   2.177   2.207   1.639 -1.1285 -0.3573  1.6052
 3700TIP3   OH232590   4.959   3.743   1.649 -0.3960 -0.3014 -0.3666
 3700TIP3    H132591   4.930   3.760   1.559 -0.4066  3.6950  0.2911
 3700TIP3    H232592   4.879   3.746   1.701 -0.2523 -1.4696 -0.0689
 3701TIP3   OH232593   6.144   4.285   3.081  0.1791 -0.3704 -0.2659
 3701TIP3    H132594   6.194   4.256   3.005  0.0284 -0.3758 -0.3621
 3701TIP3    H232595   6.128   4.205   3.131 -2.5228 -0.8831 -1.8626
 3702TIP3   OH232596   6.488   0.262   5.161  0.2824 -0.1529  0.1468
 3702TIP3    H132597   6.571   0.303   5.187  0.0637 -0.4053  1.2679
 3702TIP3    H232598   6.434   0.265   5.240 -1.5943  2.0123 -1.1626
 3703TIP3   OH232599   3.994   3.015  14.458 -0.3657  0.5592  0.3023
 3703TIP3    H132600   3.921   3.005  14.398 -0.7418 -0.7188  0.9435
 3703TIP3    H232601   3.975   3.095  14.507 -1.1732  0.4075  0.2343
 3704TIP3   OH232602   1.713   3.227  11.436  0.0550 -0.6452 -0.2859
 3704TIP3    H132603   1.644   3.287  11.406 -0.4902 -0.6926  0.8510
 3704TIP3    H232604   1.727   3.168  11.362  0.8549  1.0840 -1.5773
 3705TIP3   OH232605   3.563   0.079  15.098 -0.0013 -0.0549 -0.5089
 3705TIP3    H132606   3.544  -0.014  15.109  0.4216 -0.0272  0.4967
 3705TIP3    H232607   3.528   0.100  15.012 -3.1833 -0.3429  0.6659
 3706TIP3   OH232608   6.272   2.867   4.233  0.1918  0.0590  0.3553
 3706TIP3    H132609   6.201   2.929   4.215 -0.4831 -0.0072  2.6411
 3706TIP3    H232610   6.228   2.783   4.246  0.7121 -0.0830  1.2738
 3707TIP3   OH232611   2.511   0.197   0.893  0.3812  0.3028  0.1543
 3707TIP3    H132612   2.464   0.153   0.964 -1.4089  3.3093  0.9311
 3707TIP3    H232613   2.443   0.214   0.827  1.9335 -2.0740 -2.1612
 3708TIP3   OH232614   5.438   3.332   1.579 -0.0057  0.2537  0.2529
 3708TIP3    H132615   5.458   3.239   1.583 -0.8083  0.1280  1.9528
 3708TIP3    H232616   5.401   3.346   1.492  0.0960 -1.0176  0.0014
 3709TIP3   OH232617   2.246   3.501  13.433 -0.7537 -0.0965 -0.1622
 3709TIP3    H132618   2.227   3.449  13.511  2.3551 -0.3356  0.4950
 3709TIP3    H232619   2.247   3.437  13.362  0.6125 -0.5762  0.2698
 3710TIP3   OH232620   5.559   4.638   0.173  0.1670  0.2360 -0.3567
 3710TIP3    H132621   5.483   4.684   0.207 -0.0528  0.3818 -1.0341
 3710TIP3    H232622   5.525   4.554   0.141  0.3063  0.2604 -0.5728
 3711TIP3   OH232623   1.335   0.295   3.427  0.3964  0.1898 -0.0037
 3711TIP3    H132624   1.299   0.361   3.486 -1.2681 -0.3693 -0.3637
 3711TIP3    H232625   1.312   0.211   3.468  0.5395 -0.1846 -0.6771
 3712TIP3   OH232626   2.066   5.954   2.880 -0.6840 -0.4392  0.1903
 3712TIP3    H132627   2.014   5.955   2.800 -0.0384 -0.0515 -0.2229
 3712TIP3    H232628   2.021   5.890   2.936 -2.0054  0.3793  0.1095
 3713TIP3   OH232629   2.798   2.473   3.144 -0.7471 -0.3660 -0.2854
 3713TIP3    H132630   2.877   2.525   3.161 -2.4278  2.0988  0.2280
 3713TIP3    H232631   2.819   2.385   3.176  1.1031  0.7312  1.6211
 3714TIP3   OH232632   3.564   5.525  14.678  0.3966  0.0269 -0.0384
 3714TIP3    H132633   3.644   5.519  14.626  1.1919 -0.3953  1.2081
 3714TIP3    H232634   3.595   5.540  14.767 -0.9318  0.2706  0.3870
 3715TIP3   OH232635   5.013   5.751  16.728 -0.5122 -0.4113  0.6241
 3715TIP3    H132636   4.944   5.817  16.738  0.4641  0.6049  0.6978
 3715TIP3    H232637   5.085   5.797  16.685  0.1194 -1.4694  0.5261
 3716TIP3   OH232638   6.529   0.357   3.896  0.5701 -0.0457 -0.3873
 3716TIP3    H132639   6.515   0.451   3.890  0.8766  0.0170 -0.1615
 3716TIP3    H232640   6.478   0.329   3.972 -0.5070 -0.2648 -1.1858
 3717TIP3   OH232641   2.315   2.394  17.012 -0.1390 -0.9277  0.9248
 3717TIP3    H132642   2.372   2.459  17.052  2.3338 -1.8918 -0.8746
 3717TIP3    H232643   2.350   2.310  17.042  0.1971 -1.5719 -1.1521
 3718TIP3   OH232644   4.380   3.369  15.978  0.0331 -0.8257 -0.4228
 3718TIP3    H132645   4.446   3.359  16.046  0.1657 -1.0121 -0.5779
 3718TIP3    H232646   4.324   3.292  15.988 -0.1936 -0.6401 -0.2553
 3719TIP3   OH232647   5.064   0.205   6.687 -0.0774  0.3529  0.2270
 3719TIP3    H132648   5.087   0.217   6.595 -0.2627 -2.0830 -0.1514
 3719TIP3    H232649   4.970   0.224   6.691 -0.2212 -0.2675 -0.2138
 3720TIP3   OH232650   0.485   5.065  10.996  0.4118 -0.4035 -0.2008
 3720TIP3    H132651   0.410   5.105  10.953  0.5108 -1.1770 -1.0876
 3720TIP3    H232652   0.450   4.986  11.038  0.3217  0.3182  1.1076
 3721TIP3   OH232653   3.781   0.178  16.428  0.1185  0.9003 -0.1999
 3721TIP3    H132654   3.701   0.152  16.381 -1.0335  0.7938  1.7390
 3721TIP3    H232655   3.806   0.262  16.388  0.1366  0.0034 -2.1085
 3722TIP3   OH232656   0.152   1.964   1.432 -0.4676 -0.1928  0.5337
 3722TIP3    H132657   0.235   1.920   1.416 -0.5156 -0.8213  1.9207
 3722TIP3    H232658   0.125   1.933   1.518 -1.0746  1.6616  1.0313
 3723TIP3   OH232659   0.584   1.858  16.341 -0.4132 -0.2458 -0.1812
 3723TIP3    H132660   0.653   1.894  16.397  0.4105 -2.2620  0.1312
 3723TIP3    H232661   0.513   1.836  16.402 -0.4986 -0.1501 -0.2440
 3724TIP3   OH232662   3.051   6.637   0.062 -0.2055  0.9117 -0.2240
 3724TIP3    H132663   3.033   6.604   0.150 -1.3667  1.0216 -0.4070
 3724TIP3    H232664   3.108   6.571   0.023 -0.3125  0.4736  0.3468
 3725TIP3   OH232665   1.296   2.389   5.200 -0.2259 -0.0054 -0.3470
 3725TIP3    H132666   1.263   2.299   5.203 -1.5115  0.3751 -2.1009
 3725TIP3    H232667   1.224   2.443   5.231  0.0739  0.5351 -0.5759
 3726TIP3   OH232668   2.150   5.706   5.399  0.3099 -0.2253  0.4448
 3726TIP3    H132669   2.238   5.729   5.367 -0.2926  0.5435 -0.6924
 3726TIP3    H232670   2.091   5.762   5.349 -0.8014 -0.3371  1.6053
 3727TIP3   OH232671   6.001   2.591   0.523 -0.3237 -0.6439 -0.3701
 3727TIP3    H132672   6.061   2.617   0.453 -0.4655 -0.4947 -0.4378
 3727TIP3    H232673   6.058   2.564   0.595 -0.1737 -0.4295 -0.4078
 3728TIP3   OH232674   2.703   1.869   6.241 -0.0695  0.4206 -0.2612
 3728TIP3    H132675   2.638   1.875   6.171  0.2926 -0.5668 -0.6845
 3728TIP3    H232676   2.763   1.941   6.224  0.7518 -0.5819 -1.7359
 3729TIP3   OH232677   1.786   5.980   5.754  0.1547  0.3371  0.5348
 3729TIP3    H132678   1.799   5.994   5.848 -1.7983  1.0442  0.7111
 3729TIP3    H232679   1.847   5.909   5.732  0.5432  0.0826  2.3533
 3730TIP3   OH232680   0.189   1.700   3.118  0.1229 -0.5975  0.4834
 3730TIP3    H132681   0.143   1.756   3.181 -1.0509 -1.1553  0.1387
 3730TIP3    H232682   0.280   1.728   3.122 -0.2808  0.6385  1.0689
 3731TIP3   OH232683   1.261   0.798  16.267 -0.1036  0.5677 -0.1992
 3731TIP3    H132684   1.169   0.815  16.245  0.5040  1.8996 -1.8070
 3731TIP3    H232685   1.309   0.867  16.222  1.6729  0.0439  0.8689
 3732TIP3   OH232686   5.910   4.235   6.148 -0.2906  0.3146 -0.4291
 3732TIP3    H132687   5.838   4.297   6.133  1.6970  2.4762 -1.3590
 3732TIP3    H232688   5.931   4.246   6.241  1.1222  2.2984 -0.9466
 3733TIP3   OH232689   5.019   3.045  10.901 -0.3820 -0.3399  0.3381
 3733TIP3    H132690   5.067   3.107  10.845 -1.1783 -0.4026 -0.4285
 3733TIP3    H232691   4.952   3.009  10.844 -1.4269 -0.1542  1.4301
 3734TIP3   OH232692   5.784   5.445   6.636 -0.1113 -0.0841  0.3688
 3734TIP3    H132693   5.720   5.399   6.690 -1.3384 -0.1189 -1.1033
 3734TIP3    H232694   5.791   5.532   6.676 -0.1014 -0.5128  1.3045
 3735TIP3   OH232695   0.464   5.196   1.773 -0.0373 -0.7453  0.3257
 3735TIP3    H132696   0.409   5.152   1.838 -1.9231 -0.0544 -0.7811
 3735TIP3    H232697   0.452   5.146   1.693  1.6590 -1.1040  0.2697
 3736TIP3   OH232698   4.643   0.650  12.805  0.3189  0.2467  0.1254
 3736TIP3    H132699   4.578   0.589  12.840  0.9853 -1.8280 -2.1315
 3736TIP3    H232700   4.728   0.610  12.827  0.7696  0.5585 -1.0276
 3737TIP3   OH232701   4.002   3.530  11.352  0.0082 -0.9841 -0.1549
 3737TIP3    H132702   3.999   3.601  11.416  3.7828  0.0506 -1.0053
 3737TIP3    H232703   3.938   3.555  11.285  0.3451  0.9754  0.2309
 3738TIP3   OH232704   6.609   0.339  11.036 -0.4333 -0.2673  0.5680
 3738TIP3    H132705   6.596   0.301  10.949  1.1572 -1.3644  0.7972
 3738TIP3    H232706   6.691   0.387  11.029 -1.0244  0.8298  1.0749
 3739TIP3   OH232707   0.235   2.755  12.508  0.3199 -0.1675 -0.7854
 3739TIP3    H132708   0.199   2.761  12.597 -0.5964  0.2964 -1.1809
 3739TIP3    H232709   0.284   2.836  12.498  0.8492 -0.4533 -0.5209
 3740TIP3   OH232710   1.777   4.206   3.386  0.1869  0.9045  0.6855
 3740TIP3    H132711   1.852   4.214   3.328 -0.0001  3.4578  0.7255
 3740TIP3    H232712   1.735   4.124   3.362  2.7190 -0.3044  0.3446
 3741TIP3   OH232713   4.325   2.898  12.299 -0.2654 -0.8262  1.0477
 3741TIP3    H132714   4.317   2.821  12.242 -0.4819  1.3928 -2.0628
 3741TIP3    H232715   4.417   2.923  12.291  0.4049 -2.0877  3.9796
 3742TIP3   OH232716   0.235   0.345   4.605  0.7125 -0.4755  0.0141
 3742TIP3    H132717   0.321   0.382   4.582  0.4562  0.6998  0.8776
 3742TIP3    H232718   0.255   0.281   4.673  0.9247 -0.2572  0.1619
 3743TIP3   OH232719   6.311   6.065   4.423  0.2617 -0.2673  0.1711
 3743TIP3    H132720   6.273   6.141   4.380  0.0989 -0.9021 -0.8228
 3743TIP3    H232721   6.400   6.092   4.445  0.0252  0.3936  0.3322
 3744TIP3   OH232722   0.599   0.821  12.335 -0.0372  0.1750  0.0736
 3744TIP3    H132723   0.524   0.802  12.279  0.5687  3.9633 -2.1868
 3744TIP3    H232724   0.672   0.775  12.293 -0.7638 -2.5553  1.6372
 3745TIP3   OH232725   1.982   2.631  13.207  0.7537  0.0950 -0.5027
 3745TIP3    H132726   1.987   2.592  13.294 -0.1487 -0.3434 -0.6383
 3745TIP3    H232727   1.909   2.585  13.164  0.5295  1.0050 -1.1275
 3746TIP3   OH232728   3.974   1.583  16.593  0.4844  0.8410  0.1926
 3746TIP3    H132729   3.917   1.640  16.543  1.4252 -1.0116 -3.1462
 3746TIP3    H232730   3.916   1.516  16.629  0.1541  0.6749 -0.6539
 3747TIP3   OH232731   4.714   1.125  16.271  0.4165 -0.0699  0.4961
 3747TIP3    H132732   4.664   1.075  16.336  1.0354  0.5275  1.4403
 3747TIP3    H232733   4.689   1.086  16.187  0.8163 -1.9188  1.1952
 3748TIP3   OH232734   6.225   0.290   5.000 -0.1421  0.8913 -0.0184
 3748TIP3    H132735   6.241   0.325   4.912 -1.9210 -2.0001 -1.5861
 3748TIP3    H232736   6.313   0.276   5.037  0.7395 -0.7500 -2.5835
 3749TIP3   OH232737   1.720   4.619  14.943 -0.1371  0.3238  0.0252
 3749TIP3    H132738   1.686   4.608  14.854  1.6158 -1.3508 -0.4719
 3749TIP3    H232739   1.786   4.688  14.934 -0.3235  0.5196  0.1449
 3750TIP3   OH232740   1.068   6.477   6.906 -0.4898 -0.2060  0.2950
 3750TIP3    H132741   1.060   6.388   6.940 -0.5758 -0.4015 -0.2329
 3750TIP3    H232742   1.161   6.498   6.916  0.0599 -1.3570 -2.0363
 3751TIP3   OH232743   2.987   0.480  15.907 -0.2331  0.0739  0.5483
 3751TIP3    H132744   2.929   0.478  15.831  0.5413 -1.3248 -0.0325
 3751TIP3    H232745   3.056   0.417  15.885  1.0931  1.1718  1.5458
 3752TIP3   OH232746   3.444   3.132   4.821  0.5605 -0.3562 -0.4458
 3752TIP3    H132747   3.407   3.153   4.736  0.5780 -1.2065 -0.6595
 3752TIP3    H232748   3.510   3.065   4.804 -0.0579 -1.1889  0.3336
 3753TIP3   OH232749   0.380   5.183   2.407  0.0249  0.0330 -0.6352
 3753TIP3    H132750   0.439   5.234   2.462  0.3141 -1.4130  0.4299
 3753TIP3    H232751   0.302   5.171   2.460  0.2845 -1.3302 -0.5281
 3754TIP3   OH232752   0.607   6.448  14.887  0.1208 -0.2368  0.8393
 3754TIP3    H132753   0.514   6.472  14.884 -0.1031 -0.7886  2.7062
 3754TIP3    H232754   0.653   6.531  14.899  0.0191  0.2365 -1.7716
 3755TIP3   OH232755   1.979   4.060   4.328  0.0692  0.2579 -0.6064
 3755TIP3    H132756   2.065   4.074   4.368 -0.3810  0.0036  0.4638
 3755TIP3    H232757   1.986   4.101   4.241  1.2948  0.1591 -0.5632
 3756TIP3   OH232758   6.195   4.513  16.204  0.4540 -0.3219  0.2803
 3756TIP3    H132759   6.102   4.537  16.207  0.5286  0.0642 -0.4314
 3756TIP3    H232760   6.210   4.466  16.286 -0.2164  0.1654  0.6934
 3757TIP3   OH232761   2.071   2.328   6.412 -0.0689  0.0904 -0.0338
 3757TIP3    H132762   2.091   2.384   6.337 -0.4602 -1.1455 -1.0859
 3757TIP3    H232763   1.978   2.343   6.430 -0.3703 -0.7438 -0.8014
 3758TIP3   OH232764   5.176   1.601  10.511 -0.4451 -0.4776 -0.8127
 3758TIP3    H132765   5.173   1.507  10.491  1.7126 -0.5347 -1.0586
 3758TIP3    H232766   5.085   1.629  10.509 -1.1056 -2.5232 -0.9704
 3759TIP3   OH232767   2.673   0.769  11.104 -0.0788  0.1641 -0.0866
 3759TIP3    H132768   2.735   0.774  11.176 -0.7924 -0.2848  0.5592
 3759TIP3    H232769   2.683   0.853  11.058  0.9254  0.1351  0.0688
 3760TIP3   OH232770   2.463   3.128  12.837 -0.5982 -0.5684 -0.1882
 3760TIP3    H132771   2.384   3.089  12.875  0.0288 -2.6589 -0.9819
 3760TIP3    H232772   2.475   3.210  12.885 -2.2280 -1.1119  1.1764
 3761TIP3   OH232773   3.941   4.008   1.631 -0.5192 -0.1991  0.5382
 3761TIP3    H132774   3.996   4.053   1.567 -1.0960 -1.0979 -0.6030
 3761TIP3    H232775   3.965   3.916   1.622 -2.3902 -0.6370 -0.1705
 3762TIP3   OH232776   1.269   3.949  13.156  0.1513  0.1905 -0.3048
 3762TIP3    H132777   1.289   4.035  13.120  0.1834  0.6999  0.8926
 3762TIP3    H232778   1.269   3.891  13.081  1.5989  0.9827 -0.9476
 3763TIP3   OH232779   4.677   5.700  14.646 -0.2267 -0.0609  0.0731
 3763TIP3    H132780   4.691   5.695  14.740  1.4985 -1.8807 -0.2550
 3763TIP3    H232781   4.642   5.788  14.631  1.7496  1.0990  2.1164
 3764TIP3   OH232782   3.184   5.142  13.878  0.3145 -0.0480 -0.0066
 3764TIP3    H132783   3.176   5.232  13.846  1.1328 -0.7841 -2.4237
 3764TIP3    H232784   3.097   5.119  13.908 -0.3308  0.9817 -1.0281
 3765TIP3   OH232785   1.171   6.553   2.830 -0.4495 -0.5743 -0.1651
 3765TIP3    H132786   1.228   6.608   2.777 -1.1963 -0.9983 -1.4500
 3765TIP3    H232787   1.225   6.477   2.853  0.1544  0.0352  0.4414
 3766TIP3   OH232788   0.751   4.970  16.850  0.0229 -0.1456  0.1549
 3766TIP3    H132789   0.730   4.974  16.944 -3.4738 -1.1837 -0.4998
 3766TIP3    H232790   0.704   5.045  16.813 -1.4881 -1.7119 -1.1925
 3767TIP3   OH232791   4.903   0.551  15.913  0.1094 -0.7795  0.1880
 3767TIP3    H132792   4.962   0.492  15.961 -0.1233 -0.8119  0.4310
 3767TIP3    H232793   4.928   0.540  15.821  2.1537  1.0227  0.4830
 3768TIP3   OH232794   2.307   6.820   5.852 -0.1859 -0.1039 -0.3715
 3768TIP3    H132795   2.378   6.793   5.911 -2.0591  0.7243  2.3604
 3768TIP3    H232796   2.264   6.738   5.827 -0.8501 -0.3144  1.3833
 3769TIP3   OH232797   2.240   1.940  13.059  0.2326  0.3880  0.4845
 3769TIP3    H132798   2.279   1.855  13.036  2.3536  1.3336  0.5010
 3769TIP3    H232799   2.269   1.955  13.149 -0.2036  1.1131  0.5018
 3770TIP3   OH232800   2.895   6.179  16.071  0.3903 -0.3448  0.2818
 3770TIP3    H132801   2.928   6.248  16.129 -0.9867  0.3420  0.2806
 3770TIP3    H232802   2.800   6.191  16.073  0.3318 -0.0655 -2.4109
 3771TIP3   OH232803   4.364   5.060  14.125 -0.1129 -0.8485 -0.0879
 3771TIP3    H132804   4.333   4.988  14.180 -0.4803  0.3333  1.2809
 3771TIP3    H232805   4.459   5.050  14.123 -0.1723 -1.4253  0.0313
 3772TIP3   OH232806   5.411   4.155  11.892 -0.5632 -0.9811  0.6104
 3772TIP3    H132807   5.474   4.191  11.954 -1.7534  1.4913  0.4250
 3772TIP3    H232808   5.451   4.072  11.863  0.7822 -1.3601  3.3632
 3773TIP3   OH232809   5.648   2.765   0.804  0.3928  0.0868 -0.2700
 3773TIP3    H132810   5.579   2.719   0.852  1.2059 -1.8786 -0.8982
 3773TIP3    H232811   5.696   2.695   0.759  0.0932  1.7799 -3.3878
 3774TIP3   OH232812   1.089   0.691  11.732 -0.1620  0.4075  0.2068
 3774TIP3    H132813   1.150   0.629  11.694 -1.4304  0.8147 -2.6359
 3774TIP3    H232814   1.021   0.636  11.773  0.5830 -0.0435  0.8477
 3775TIP3   OH232815   1.760   1.259  15.074  0.4017  0.1778 -0.0093
 3775TIP3    H132816   1.676   1.294  15.045 -0.1385 -0.6915  0.4671
 3775TIP3    H232817   1.758   1.266  15.169  0.6936 -0.2402  0.0302
 3776TIP3   OH232818   0.375   3.711   3.379  0.1935 -0.2889  0.8080
 3776TIP3    H132819   0.462   3.674   3.366 -0.3929 -1.1161 -0.8740
 3776TIP3    H232820   0.348   3.680   3.466  0.8621 -1.4870  0.5892
 3777TIP3   OH232821   4.276   3.210  13.004 -0.4036  0.3799  0.2687
 3777TIP3    H132822   4.329   3.272  12.953  0.3953  0.5505  1.2982
 3777TIP3    H232823   4.339   3.166  13.062 -0.9367 -1.4684 -0.5054
 3778TIP3   OH232824   3.741   1.403  11.259  0.3534  0.2413 -0.9133
 3778TIP3    H132825   3.806   1.352  11.306 -1.6217  0.8276  2.5770
 3778TIP3    H232826   3.776   1.492  11.259 -1.3808  1.0283  3.0151
 3779TIP3   OH232827   3.447   1.567   6.136 -0.3654 -0.1636 -0.2293
 3779TIP3    H132828   3.411   1.604   6.216  0.6198  0.6873 -0.1670
 3779TIP3    H232829   3.379   1.581   6.070 -0.7410  0.1183  0.2162
 3780TIP3   OH232830   4.329   2.039   3.154  0.3561  0.6311 -0.0263
 3780TIP3    H132831   4.363   2.127   3.138  0.2680  0.8743  1.0866
 3780TIP3    H232832   4.385   1.982   3.102  0.1174  1.3814 -1.1334
 3781TIP3   OH232833   1.593   6.423  14.953 -0.0927  0.0291 -0.4210
 3781TIP3    H132834   1.530   6.410  15.024 -0.4881  1.7577 -0.4124
 3781TIP3    H232835   1.653   6.349  14.959 -0.2645  0.0378  1.5712
 3782TIP3   OH232836   0.017   5.446  12.976  0.0826  0.1037 -0.0367
 3782TIP3    H132837  -0.017   5.463  13.064  0.9720  3.2577 -0.2390
 3782TIP3    H232838   0.109   5.423  12.990  0.1119  0.1659 -0.1306
 3783TIP3   OH232839   0.550   6.360   0.116  0.5969  0.1939  0.2255
 3783TIP3    H132840   0.467   6.407   0.120  0.5086  0.2700 -2.2156
 3783TIP3    H232841   0.588   6.372   0.204 -0.9098  2.0610  0.6595
 3784TIP3   OH232842   3.792   2.660   4.321 -0.2262  0.2318 -0.0503
 3784TIP3    H132843   3.753   2.731   4.372 -0.9673 -0.3167  0.1650
 3784TIP3    H232844   3.764   2.580   4.367  1.1946 -0.1695  0.1277
 3785TIP3   OH232845   4.507   4.085  14.204 -0.1849 -0.3700 -0.5325
 3785TIP3    H132846   4.533   4.176  14.217  1.6388 -0.9720  0.2168
 3785TIP3    H232847   4.574   4.050  14.145 -0.3296 -1.4784 -0.0416
 3786TIP3   OH232848   4.213   2.574  13.024  0.6205  0.0624  0.1075
 3786TIP3    H132849   4.138   2.586  13.082  1.0763 -2.5722  1.3013
 3786TIP3    H232850   4.195   2.493  12.977  1.1758  1.1528 -2.0352
 3787TIP3   OH232851   0.614   5.227   6.289  0.2403  0.2849  0.5322
 3787TIP3    H132852   0.658   5.145   6.311  1.9957  0.8478 -0.8074
 3787TIP3    H232853   0.665   5.294   6.334 -0.9419  0.7032  1.2741
 3788TIP3   OH232854   5.474   1.799  15.028 -0.4407 -0.0901  0.0995
 3788TIP3    H132855   5.543   1.767  14.969  0.4390  1.1649  0.4207
 3788TIP3    H232856   5.514   1.796  15.115 -0.7336  0.7716  0.2692
 3789TIP3   OH232857   6.085   2.846  11.506  0.5014 -0.2002 -0.1506
 3789TIP3    H132858   6.151   2.857  11.438 -0.3095 -0.2280 -0.9632
 3789TIP3    H232859   6.020   2.787  11.467 -1.3410  1.9086 -0.3808
 3790TIP3   OH232860   0.940   1.657   3.505 -0.3177 -0.0283  0.2815
 3790TIP3    H132861   1.024   1.666   3.552  0.5791 -2.3787 -0.7885
 3790TIP3    H232862   0.878   1.629   3.573  0.7468 -2.4215  0.3149
 3791TIP3   OH232863   4.638   0.929   2.727 -0.2128 -0.6185  0.2054
 3791TIP3    H132864   4.629   0.933   2.632 -0.9087 -3.1613  0.1407
 3791TIP3    H232865   4.726   0.894   2.742 -1.0167 -2.6123  0.4281
 3792TIP3   OH232866   3.438   6.401   0.271 -0.2513  0.1257 -0.1567
 3792TIP3    H132867   3.346   6.373   0.272 -0.0189 -0.6312 -0.0461
 3792TIP3    H232868   3.487   6.322   0.293  0.2741  1.1008  2.2762
 3793TIP3   OH232869   0.669   3.345   4.272 -0.3138 -0.0531 -0.0795
 3793TIP3    H132870   0.638   3.254   4.274  1.1174 -0.6472 -2.9939
 3793TIP3    H232871   0.740   3.347   4.336  0.8465 -1.4889 -1.2670
 3794TIP3   OH232872   6.760   3.463   2.526  0.3325 -0.0900 -0.0769
 3794TIP3    H132873   6.809   3.540   2.555  0.4278 -0.3297  0.4109
 3794TIP3    H232874   6.826   3.408   2.484  0.4230 -0.2602  0.2808
 3795TIP3   OH232875   3.049   0.052   0.250 -0.2767 -0.5140  0.2999
 3795TIP3    H132876   3.081   0.073   0.162  0.3674 -0.0665  0.6375
 3795TIP3    H232877   2.963   0.013   0.235 -0.3928  0.0265 -0.4988
 3796TIP3   OH232878   1.337   0.291  10.808 -0.1192  0.0413 -0.5384
 3796TIP3    H132879   1.297   0.242  10.736  0.2836 -1.4270  0.2011
 3796TIP3    H232880   1.420   0.322  10.772 -0.2422 -0.0805 -0.9337
 3797TIP3   OH232881   3.450   5.293  10.906  0.0285 -0.1503  0.5973
 3797TIP3    H132882   3.360   5.267  10.882  0.2825  1.3799 -2.2635
 3797TIP3    H232883   3.447   5.388  10.908  0.9239 -0.1386  3.4898
 3798TIP3   OH232884   2.057   0.145   0.074  0.5228 -0.2239 -0.1234
 3798TIP3    H132885   2.038   0.214   0.011  0.0103  0.4783  0.7835
 3798TIP3    H232886   2.078   0.192   0.155 -1.1232 -1.1485  0.8564
 3799TIP3   OH232887   2.064   5.759  16.986 -0.7735 -0.2301 -0.3874
 3799TIP3    H132888   2.127   5.721  16.924 -0.0186  0.0359  0.2075
 3799TIP3    H232889   2.058   5.694  17.056  0.1240  0.4934  0.3769
 3800TIP3   OH232890   1.697   0.917   0.170  0.0635 -0.0178 -0.0813
 3800TIP3    H132891   1.747   0.972   0.230 -1.2011  1.7076 -0.5989
 3800TIP3    H232892   1.753   0.911   0.092  0.0598  0.7869 -0.1474
 3801TIP3   OH232893   6.206   5.558  11.905  0.3891 -0.3064 -0.2407
 3801TIP3    H132894   6.121   5.516  11.899  0.4771 -0.6331  0.6704
 3801TIP3    H232895   6.260   5.496  11.953 -0.0547  1.7092  3.0038
 3802TIP3   OH232896   2.882   0.730  15.173  0.2197 -0.0639  0.4874
 3802TIP3    H132897   2.829   0.809  15.185  2.1173  1.5502 -1.4824
 3802TIP3    H232898   2.954   0.740  15.236  1.1367  0.3829 -0.6285
 3803TIP3   OH232899   0.086   2.756  14.623 -0.3178 -0.1123 -0.1261
 3803TIP3    H132900   0.120   2.690  14.684  0.3120 -0.4759 -0.8639
 3803TIP3    H232901   0.003   2.783  14.662 -0.2624 -0.8577  0.5359
 3804TIP3   OH232902   1.473   2.031  13.700  0.1699 -0.1776  0.5094
 3804TIP3    H132903   1.462   1.958  13.761  0.1165 -0.0400  0.6633
 3804TIP3    H232904   1.513   1.991  13.623 -1.4482 -0.7019 -0.0802
 3805TIP3   OH232905   0.773   4.356   5.101 -0.7169  0.0278  0.6757
 3805TIP3    H132906   0.728   4.428   5.146 -0.5776  0.7022 -0.2430
 3805TIP3    H232907   0.858   4.393   5.077 -1.2537  0.1042 -1.2355
 3806TIP3   OH232908   6.015   2.994   4.465  0.0742 -0.0188 -0.1721
 3806TIP3    H132909   6.052   3.025   4.383 -1.6334 -0.0118 -0.9601
 3806TIP3    H232910   5.987   3.073   4.510 -1.9375 -0.2116 -1.0400
 3807TIP3   OH232911   0.628   4.377  14.293  0.5268  0.0626 -0.1450
 3807TIP3    H132912   0.716   4.399  14.323  0.7291 -1.6293  0.5198
 3807TIP3    H232913   0.582   4.348  14.371 -0.6294  0.9093 -0.4949
 3808TIP3   OH232914   1.795   2.647  11.757  0.4702  0.4030  0.0585
 3808TIP3    H132915   1.746   2.587  11.701 -1.2587  1.5540  0.3015
 3808TIP3    H232916   1.826   2.593  11.829 -1.7207 -0.0597  0.6681
 3809TIP3   OH232917   4.262   1.406   2.430 -0.2350 -0.1672  0.0723
 3809TIP3    H132918   4.301   1.325   2.462 -1.7299 -1.1125 -0.4233
 3809TIP3    H232919   4.320   1.434   2.359  0.9712 -0.1289  1.0638
 3810TIP3   OH232920   2.180   4.649  16.662 -0.2345  0.2965 -0.3563
 3810TIP3    H132921   2.133   4.653  16.745 -1.4148  1.2016 -1.0583
 3810TIP3    H232922   2.209   4.739  16.647  0.9956 -0.0916 -0.3480
 3811TIP3   OH232923   2.969   0.853   1.791  0.0141 -0.1549 -0.3688
 3811TIP3    H132924   2.912   0.793   1.744  0.1199 -0.4429 -0.1300
 3811TIP3    H232925   3.013   0.799   1.856  0.2296  0.1496 -0.2583
 3812TIP3   OH232926   2.307   6.598   4.108 -0.2838  0.2569 -0.7643
 3812TIP3    H132927   2.398   6.606   4.139 -0.6458  0.8078  0.1758
 3812TIP3    H232928   2.299   6.507   4.081  0.2171 -0.0793  0.2050
 3813TIP3   OH232929   4.781   5.407   0.071 -0.2520  0.3032  0.5383
 3813TIP3    H132930   4.792   5.492   0.114  0.5779 -0.0499  1.0405
 3813TIP3    H232931   4.821   5.419  -0.015  0.5136  0.2151  0.8750
 3814TIP3   OH232932   2.318   3.249  11.093  0.1812 -0.6263  0.4492
 3814TIP3    H132933   2.388   3.242  11.028  4.2909  2.5797  4.1965
 3814TIP3    H232934   2.266   3.323  11.063 -0.6622 -1.9368 -1.4509
 3815TIP3   OH232935   3.267   5.817  12.109 -0.2299  0.1332  0.5538
 3815TIP3    H132936   3.173   5.827  12.100 -0.2018 -0.1846 -0.0842
 3815TIP3    H232937   3.302   5.906  12.099 -0.1208 -0.2765 -3.4856
 3816TIP3   OH232938   2.404   3.572   1.035  0.0810 -0.0247  0.1405
 3816TIP3    H132939   2.428   3.563   1.127 -0.6043  1.1662  0.4482
 3816TIP3    H232940   2.478   3.620   0.996 -0.0245  0.2318  0.2553
 3817TIP3   OH232941   5.858   0.441  13.468 -0.1810  0.8560 -0.1482
 3817TIP3    H132942   5.910   0.502  13.415 -0.2489  1.2305  0.2156
 3817TIP3    H232943   5.768   0.473  13.461 -0.3166  0.4118 -0.4926
 3818TIP3   OH232944   3.517   0.637   6.487 -0.3551  0.8043 -0.0675
 3818TIP3    H132945   3.510   0.730   6.509  1.2585  1.0543 -0.5440
 3818TIP3    H232946   3.553   0.635   6.398 -1.0606 -0.2768 -0.3498
 3819TIP3   OH232947   0.567   5.376  16.925  0.2697 -0.2481 -0.3796
 3819TIP3    H132948   0.639   5.421  16.969  0.9860  0.6241 -2.3676
 3819TIP3    H232949   0.610   5.313  16.867 -0.5901 -0.0182 -1.2783
 3820TIP3   OH232950   4.455   3.364  14.758 -0.0833 -0.2771 -0.4406
 3820TIP3    H132951   4.503   3.282  14.744 -0.0606 -0.6700  1.7315
 3820TIP3    H232952   4.517   3.420  14.804 -0.8777  0.0879  0.1942
 3821TIP3   OH232953   0.376   0.881   3.060  0.7612 -0.1237  0.0822
 3821TIP3    H132954   0.430   0.948   3.102  0.8199  0.1483 -0.4112
 3821TIP3    H232955   0.395   0.801   3.108 -0.0943  0.4133  1.3543
 3822TIP3   OH232956   0.064   0.443   5.744  0.1068 -0.3926  0.0817
 3822TIP3    H132957   0.122   0.487   5.682 -0.0420 -1.7290 -1.0341
 3822TIP3    H232958  -0.011   0.502   5.754  1.1921  0.8866  0.7836
 3823TIP3   OH232959   2.121   3.790  16.769  0.3034  0.0088  0.1901
 3823TIP3    H132960   2.042   3.738  16.782  1.1416 -0.9511  1.5572
 3823TIP3    H232961   2.090   3.873  16.733 -1.3949 -0.0943  1.3972
 3824TIP3   OH232962   1.513   0.644  13.864 -0.0744 -0.0449 -0.0061
 3824TIP3    H132963   1.578   0.608  13.804 -1.3517 -1.4034 -0.6192
 3824TIP3    H232964   1.534   0.737  13.870  1.3124 -0.2883 -0.9608
 3825TIP3   OH232965   1.085   4.144  17.207 -0.4453  0.6584  0.1579
 3825TIP3    H132966   1.074   4.178  17.118 -0.3107  0.5251  0.0893
 3825TIP3    H232967   1.147   4.071  17.197 -1.6913 -0.4142  0.1193
 3826TIP3   OH232968   0.470   1.460  11.751  0.2943  0.4266 -0.1178
 3826TIP3    H132969   0.428   1.450  11.665  3.1857  1.8295 -1.8200
 3826TIP3    H232970   0.493   1.553  11.755  1.1955  0.1469  1.7022
 3827TIP3   OH232971   5.499   1.137  12.023  0.0001  0.3923  0.2828
 3827TIP3    H132972   5.593   1.151  12.017 -0.2919  1.8489 -1.3125
 3827TIP3    H232973   5.478   1.082  11.947 -0.5473  0.7719  0.1530
 3828TIP3   OH232974   5.440   1.929   5.304 -0.2019  0.0549  0.3413
 3828TIP3    H132975   5.482   1.949   5.220 -0.8235  0.5305  0.1318
 3828TIP3    H232976   5.439   2.013   5.350  0.6272 -0.3168  1.0570
 3829TIP3   OH232977   1.566   2.076   0.870  0.2597  0.5699  0.5909
 3829TIP3    H132978   1.547   2.170   0.879 -0.4649  0.2781  2.2532
 3829TIP3    H232979   1.657   2.068   0.898  0.5264  0.8585 -0.1671
 3830TIP3   OH232980   5.212   3.089   4.921  0.3444  0.6602 -0.0186
 3830TIP3    H132981   5.238   3.055   5.007  1.1613 -0.2033 -0.6069
 3830TIP3    H232982   5.263   3.168   4.910  1.1967  0.0773 -0.2679
 3831TIP3   OH232983   1.234   6.491   0.961  0.0010  0.2196  0.2456
 3831TIP3    H132984   1.187   6.411   0.939  0.1014  0.4526 -0.8728
 3831TIP3    H232985   1.204   6.514   1.049 -1.7194  0.1690 -0.3078
 3832TIP3   OH232986   2.686   3.604   6.498 -0.8039 -0.2774 -0.1248
 3832TIP3    H132987   2.617   3.628   6.436 -0.7807 -0.0579 -0.0625
 3832TIP3    H232988   2.709   3.514   6.473  0.3842  0.3814 -1.5370
 3833TIP3   OH232989   2.760   1.535   3.883  0.3605  0.5373 -0.0274
 3833TIP3    H132990   2.850   1.562   3.902  0.1552  1.9324 -0.9913
 3833TIP3    H232991   2.770   1.464   3.819  0.8345 -0.6114  1.2987
 3834TIP3   OH232992   0.423   1.761  15.847 -0.3881  0.1058 -0.2236
 3834TIP3    H132993   0.409   1.666  15.839  1.5012 -0.3474  1.4739
 3834TIP3    H232994   0.451   1.773  15.937  1.2294  2.0611 -0.9718
 3835TIP3   OH232995   2.785   4.740   2.107  0.2967  0.5054  0.3346
 3835TIP3    H132996   2.868   4.716   2.067  0.4611 -0.0632  1.0039
 3835TIP3    H232997   2.809   4.796   2.181  0.0850  0.3673  0.5103
 3836TIP3   OH232998   5.080   1.345  13.424  0.5293 -0.1472 -0.0672
 3836TIP3    H132999   5.007   1.384  13.376  1.7495  2.8179  0.3302
 3836TIP3    H233000   5.042   1.317  13.507 -0.1372  1.7481  0.2987
 3837TIP3   OH233001   0.518   3.996   0.807 -0.3881 -0.1400  0.0370
 3837TIP3    H133002   0.608   4.020   0.787 -0.9914  0.9329 -1.5553
 3837TIP3    H233003   0.493   4.055   0.878  0.1419 -0.4113  0.4537
 3838TIP3   OH233004   5.554   0.798   0.582 -0.6328 -0.7108 -0.1781
 3838TIP3    H133005   5.547   0.828   0.673  0.4583  1.2846 -0.7376
 3838TIP3    H233006   5.640   0.757   0.577 -0.3008  0.0238 -0.5435
 3839TIP3   OH233007   2.338   4.380  15.309  0.6475  0.7027  0.4345
 3839TIP3    H133008   2.274   4.410  15.374 -0.6206 -1.8137  0.4307
 3839TIP3    H233009   2.395   4.455  15.294  0.3383  1.6530  3.6757
 3840TIP3   OH233010   2.484   6.499  15.754 -0.5448 -0.2571  0.4749
 3840TIP3    H133011   2.507   6.514  15.662  0.7596 -1.6048  0.5570
 3840TIP3    H233012   2.566   6.512  15.801 -1.1983  0.3514  1.4468
 3841TIP3   OH233013   0.861   6.355  15.447  0.7148 -0.2111  0.1594
 3841TIP3    H133014   0.806   6.396  15.513 -0.7791 -1.3958 -0.3192
 3841TIP3    H233015   0.843   6.262  15.455  1.6847 -0.5013 -0.8806
 3842TIP3   OH233016   0.747   0.945  16.497 -0.0053 -0.3028  0.1556
 3842TIP3    H133017   0.720   1.027  16.455  1.9711  0.0873 -0.3782
 3842TIP3    H233018   0.733   0.961  16.591  1.5543  1.1023  0.1646
 3843TIP3   OH233019   4.492   3.217   1.545  0.0137  0.5929  0.0797
 3843TIP3    H133020   4.429   3.254   1.482 -0.6707 -1.6839 -0.6495
 3843TIP3    H233021   4.437   3.178   1.613  0.5680 -1.7284 -0.7465
 3844TIP3   OH233022   4.531   1.796  15.299 -0.4303  0.4452  0.2641
 3844TIP3    H133023   4.473   1.751  15.237  0.7410  1.3372 -1.5009
 3844TIP3    H233024   4.592   1.728  15.328 -1.1509 -0.0397  0.6518
 3845TIP3   OH233025   3.132   1.037   3.104 -0.0285  0.3856 -0.1179
 3845TIP3    H133026   3.076   1.031   3.181  1.4454 -1.1514  0.8675
 3845TIP3    H233027   3.073   1.064   3.033 -1.9853 -1.0079  0.9326
 3846TIP3   OH233028   3.353   0.850   5.693 -0.1070 -0.3784  0.4056
 3846TIP3    H133029   3.342   0.856   5.787 -0.8184 -0.6168  0.3416
 3846TIP3    H233030   3.433   0.900   5.674 -0.2476  0.0925  1.0692
 3847TIP3   OH233031   6.479   0.380   3.253 -0.3519 -0.3269  0.0039
 3847TIP3    H133032   6.470   0.451   3.316  0.3667 -0.3297  0.1244
 3847TIP3    H233033   6.485   0.424   3.168 -0.4822 -0.2738  0.0224
 3848TIP3   OH233034   6.491   4.582  12.996  0.5242 -0.1517 -0.3213
 3848TIP3    H133035   6.525   4.663  13.034  1.2999 -0.7132  0.2101
 3848TIP3    H233036   6.461   4.607  12.908  0.8184  0.6908 -0.1877
 3849TIP3   OH233037   4.377   4.038   5.464 -0.5511 -0.2084 -0.0061
 3849TIP3    H133038   4.405   3.956   5.503 -0.6715 -1.8011 -3.1249
 3849TIP3    H233039   4.282   4.027   5.451 -0.2726 -0.2776 -2.0245
 3850TIP3   OH233040   6.401   3.358   4.613 -0.1862  0.2126  0.1891
 3850TIP3    H133041   6.344   3.309   4.553 -0.4455  1.0159 -0.2452
 3850TIP3    H233042   6.471   3.391   4.557  1.1309 -1.4092  0.8703
 3851TIP3   OH233043   4.432   2.789   1.606  0.3163  0.1488  0.0938
 3851TIP3    H133044   4.457   2.709   1.559  0.9143 -0.2188  1.0297
 3851TIP3    H233045   4.356   2.765   1.658 -1.3020  0.9549 -1.8172
 3852TIP3   OH233046   2.617   5.761  12.403 -0.3121 -0.1005  0.4063
 3852TIP3    H133047   2.672   5.717  12.467 -1.2706 -1.5306  0.2743
 3852TIP3    H233048   2.540   5.789  12.452 -0.3621  0.1586  0.1851
 3853TIP3   OH233049   6.657   3.918   0.693 -1.0148  0.0913  0.7383
 3853TIP3    H133050   6.611   4.001   0.702  0.7477  1.4917 -2.4565
 3853TIP3    H233051   6.639   3.890   0.604  0.5652 -1.6187  0.9219
 3854TIP3   OH233052   1.884   0.697   2.665  0.1842  0.0265  0.1994
 3854TIP3    H133053   1.891   0.625   2.603 -3.4576  0.3199 -0.6434
 3854TIP3    H233054   1.879   0.654   2.751 -1.3183 -0.7102 -0.2481
 3855TIP3   OH233055   0.992   0.086  12.878  0.2773  0.2354  0.2116
 3855TIP3    H133056   0.897   0.100  12.883  0.0971 -0.7215 -0.5853
 3855TIP3    H233057   1.002  -0.007  12.858  1.3491  0.6440 -1.2139
 3856TIP3   OH233058   4.505   3.121  13.144  0.0537 -0.6203 -0.8094
 3856TIP3    H133059   4.559   3.095  13.219 -2.0780  1.3239  1.4911
 3856TIP3    H233060   4.550   3.198  13.108  0.9890 -1.4537 -1.4513
 3857TIP3   OH233061   1.050   6.398   1.844  0.3755  0.3430 -0.2762
 3857TIP3    H133062   1.081   6.309   1.825 -0.1383  0.0039  0.4328
 3857TIP3    H233063   1.053   6.404   1.939 -0.7224  0.6760 -0.2578
 3858TIP3   OH233064   0.125   3.980   5.638  0.1579 -0.4480  0.3125
 3858TIP3    H133065   0.196   4.037   5.667 -0.1957 -0.0698  0.4443
 3858TIP3    H233066   0.061   4.040   5.598 -1.1036 -0.5179  2.1800
 3859TIP3   OH233067   5.488   4.511  12.917 -0.2823  0.4558 -0.5790
 3859TIP3    H133068   5.424   4.477  12.980 -0.2668 -0.4738 -1.0557
 3859TIP3    H233069   5.571   4.475  12.946 -0.3066 -0.1468 -1.2498
 3860TIP3   OH233070   0.894   3.414  13.709  0.0439  0.3024  0.4843
 3860TIP3    H133071   0.856   3.488  13.757 -1.3790 -1.8634  2.8201
 3860TIP3    H233072   0.988   3.424  13.719 -0.0966  2.3885 -0.1505
 3861TIP3   OH233073   4.714   4.714   2.165  0.3995 -0.3246  0.3597
 3861TIP3    H133074   4.749   4.629   2.136 -0.3914 -0.4438 -0.2414
 3861TIP3    H233075   4.695   4.701   2.258  0.3007 -0.8060  0.2766
 3862TIP3   OH233076   2.102   0.034  11.400 -0.4384  0.0429  0.4673
 3862TIP3    H133077   2.119   0.028  11.494  2.5382  1.0341  0.0455
 3862TIP3    H233078   2.127   0.123  11.377 -1.8522  0.0423 -1.1538
 3863TIP3   OH233079   0.461   5.673  15.172 -0.1662  0.2680  0.3076
 3863TIP3    H133080   0.446   5.755  15.219  1.1202  2.1441 -2.4301
 3863TIP3    H233081   0.543   5.640  15.208  0.2446  1.1200  0.1782
 3864TIP3   OH233082   6.360   0.775   2.058 -0.3646  0.2668 -0.8757
 3864TIP3    H133083   6.345   0.738   2.145 -1.1921  1.2663 -0.5908
 3864TIP3    H233084   6.300   0.727   2.001 -0.2281  0.0100 -0.8092
 3865TIP3   OH233085   6.122   4.040  15.547 -0.2409  0.1521  0.1744
 3865TIP3    H133086   6.195   4.090  15.584 -1.0407  2.2532 -0.9749
 3865TIP3    H233087   6.142   3.949  15.567  3.5875  0.5021 -1.5667
 3866TIP3   OH233088   3.578   0.823  16.797  0.0082  0.1624 -0.0123
 3866TIP3    H133089   3.490   0.849  16.770  0.7226  0.4693 -2.1091
 3866TIP3    H233090   3.571   0.729  16.813 -1.0461  0.4477  1.2780
 3867TIP3   OH233091   6.290   5.009   0.382  0.2111 -0.3653 -0.6252
 3867TIP3    H133092   6.318   5.030   0.293 -0.6370  0.1967 -0.7751
 3867TIP3    H233093   6.326   5.079   0.436 -0.9821  0.4382 -0.8389
 3868TIP3   OH233094   0.374   6.055  11.734  0.6270  0.0744  0.0350
 3868TIP3    H133095   0.383   5.975  11.682  2.9431  0.2905  0.0430
 3868TIP3    H233096   0.444   6.049  11.799 -0.1138  1.4079  0.9727
 3869TIP3   OH233097   4.187   2.466   0.081  0.1889 -0.1755 -0.3304
 3869TIP3    H133098   4.110   2.474   0.137  0.9445 -0.7294  0.8077
 3869TIP3    H233099   4.185   2.376   0.049  1.5609 -0.8885  1.5086
 3870TIP3   OH233100   6.536   2.270  13.139  0.7988 -0.1694  0.5359
 3870TIP3    H133101   6.464   2.210  13.162  0.0280  0.8024  0.7134
 3870TIP3    H233102   6.544   2.328  13.215  2.7018 -1.1323  1.0917
 3871TIP3   OH233103   1.389   1.341  11.425  0.1602  0.0455 -0.5001
 3871TIP3    H133104   1.321   1.404  11.398  0.2727  0.7063  0.7086
 3871TIP3    H233105   1.359   1.309  11.510 -0.1913 -2.0067 -1.3618
 3872TIP3   OH233106   3.529   2.925  10.401  0.6933 -0.3417 -0.3396
 3872TIP3    H133107   3.495   2.840  10.373 -2.5520  0.9194 -0.4314
 3872TIP3    H233108   3.567   2.910  10.487 -1.8681 -1.4769  0.6249
 3873TIP3   OH233109   0.870   6.264   5.001 -0.1531  0.4531  0.5105
 3873TIP3    H133110   0.964   6.250   4.993  0.0106  1.0577  1.2978
 3873TIP3    H233111   0.860   6.321   5.078 -1.1714  0.2231  0.5664
 3874TIP3   OH233112   4.171   2.365  11.933  0.8392 -0.2356 -0.1795
 3874TIP3    H133113   4.231   2.390  12.004 -0.3639  0.0612  0.7483
 3874TIP3    H233114   4.201   2.414  11.857  0.1583  1.9788  0.9496
 3875TIP3   OH233115   0.061   1.572   6.813  0.9197  0.0074 -0.0944
 3875TIP3    H133116  -0.025   1.583   6.854  0.6270  1.6946 -1.0851
 3875TIP3    H233117   0.123   1.582   6.885  0.3518  1.0685  0.2674
 3876TIP3   OH233118   5.864   1.158   5.721 -0.3666 -0.0211  0.4091
 3876TIP3    H133119   5.830   1.247   5.727  0.8415  0.3506  1.8027
 3876TIP3    H233120   5.796   1.104   5.762 -1.4061  0.1456 -1.0303
 3877TIP3   OH233121   3.487   2.346  12.549  0.7162  0.3711  0.3837
 3877TIP3    H133122   3.466   2.334  12.641  0.0555 -0.3149  0.1548
 3877TIP3    H233123   3.408   2.317  12.503  0.5563  1.9024 -0.3516
 3878TIP3   OH233124   1.685   2.898   3.133 -0.0484 -0.7575  0.1188
 3878TIP3    H133125   1.746   2.824   3.132 -0.1757 -0.8915  1.9880
 3878TIP3    H233126   1.740   2.974   3.149 -0.0004 -0.4967 -1.1911
 3879TIP3   OH233127   2.155   3.621   3.625  0.2525  0.2273  0.0192
 3879TIP3    H133128   2.149   3.700   3.678 -0.9169 -0.1348  0.4354
 3879TIP3    H233129   2.064   3.593   3.613  0.4965  0.2873 -2.1344
 3880TIP3   OH233130   1.775   5.184   2.257 -0.0464 -0.2258  0.2003
 3880TIP3    H133131   1.688   5.221   2.242  0.2446  0.1020 -0.6835
 3880TIP3    H233132   1.829   5.219   2.186  1.3337  1.2820  1.9169
 3881TIP3   OH233133   2.669   4.518   5.494 -0.6808  0.7129 -0.2706
 3881TIP3    H133134   2.604   4.508   5.563 -1.3657 -1.4992 -1.1742
 3881TIP3    H233135   2.747   4.550   5.539 -0.8488 -1.5179  1.7181
 3882TIP3   OH233136   6.493   2.864  10.845  0.1479  0.2162  0.2176
 3882TIP3    H133137   6.435   2.898  10.914 -0.2914 -1.0463  0.4916
 3882TIP3    H233138   6.475   2.920  10.770 -1.4668 -0.1643  0.2912
 3883TIP3   OH233139   3.089   2.386  11.531 -0.2375 -0.2472  0.5849
 3883TIP3    H133140   3.169   2.426  11.497  0.2161 -1.1826  0.5170
 3883TIP3    H233141   3.120   2.327  11.600 -0.9597  0.0823  1.1947
 3884TIP3   OH233142   0.829   1.363   5.207 -0.0434 -0.1126  0.1512
 3884TIP3    H133143   0.880   1.442   5.189  1.1342 -1.1750 -1.1657
 3884TIP3    H233144   0.801   1.332   5.121  1.4263 -2.4180  0.4730
 3885TIP3   OH233145   0.418   4.232   4.120  0.1514  0.1695  0.0617
 3885TIP3    H133146   0.428   4.163   4.186  0.8010  0.3704  0.1761
 3885TIP3    H233147   0.344   4.284   4.151 -1.1053 -1.1505 -0.6342
 3886TIP3   OH233148   5.667   3.300  16.687 -0.0999  0.1529  0.1484
 3886TIP3    H133149   5.690   3.269  16.600 -0.9722 -0.2007  0.0314
 3886TIP3    H233150   5.726   3.373  16.704  0.5366 -0.2200 -0.4554
 3887TIP3   OH233151   5.079   4.850   6.495 -0.1346  0.0371  0.3964
 3887TIP3    H133152   5.029   4.780   6.452 -0.8332  1.3283 -0.9469
 3887TIP3    H233153   5.031   4.867   6.576 -0.6336 -0.2326  0.1618
 3888TIP3   OH233154   1.150   3.847  16.298 -0.3356 -0.5166 -0.0085
 3888TIP3    H133155   1.092   3.895  16.357 -1.6437  0.5200 -2.0904
 3888TIP3    H233156   1.155   3.900  16.219  2.7413 -1.0528 -0.2520
 3889TIP3   OH233157   3.539   1.756   2.201 -0.2972 -0.2851 -0.1678
 3889TIP3    H133158   3.457   1.728   2.160 -1.2429 -0.4001  1.7538
 3889TIP3    H233159   3.569   1.678   2.249 -0.2376  0.4159  0.9487
 3890TIP3   OH233160   1.148   5.568  11.100  0.1160  0.1098  0.4968
 3890TIP3    H133161   1.140   5.490  11.154  0.3396 -1.9761 -2.3537
 3890TIP3    H233162   1.063   5.576  11.057  0.0978  1.4406  0.7598
 3891TIP3   OH233163   6.410   2.876   2.480  0.1060  0.3451 -0.0282
 3891TIP3    H133164   6.451   2.848   2.398 -0.5090  0.3186 -0.3280
 3891TIP3    H233165   6.379   2.964   2.463  1.0108  0.7812  0.5487
 3892TIP3   OH233166   6.759   0.628  11.959 -0.3141 -0.4786 -0.3269
 3892TIP3    H133167   6.703   0.559  11.996  1.3243  0.2440  3.7630
 3892TIP3    H233168   6.705   0.670  11.892 -3.4107 -1.9758  1.1625
 3893TIP3   OH233169   2.824   3.627   2.955  0.2594 -0.3395 -0.1010
 3893TIP3    H133170   2.860   3.543   2.926 -1.5461 -0.8066 -1.0416
 3893TIP3    H233171   2.807   3.614   3.049 -0.2675 -1.1298 -0.2996
 3894TIP3   OH233172   0.475   1.597   6.144  0.1448  0.2614  0.3469
 3894TIP3    H133173   0.496   1.673   6.090 -1.9416  1.3603  1.0140
 3894TIP3    H233174   0.438   1.533   6.084  1.3014  0.0073 -0.1101
 3895TIP3   OH233175   5.385   0.263  15.568 -0.3712 -0.1255  0.6239
 3895TIP3    H133176   5.422   0.208  15.499 -2.3763  1.0315 -1.3923
 3895TIP3    H233177   5.453   0.328  15.586 -0.2803  0.2696 -1.0794
 3896TIP3   OH233178   2.574   6.034   2.760 -0.2673  0.6465  0.4680
 3896TIP3    H133179   2.502   5.982   2.795  0.2473 -1.0780 -0.9578
 3896TIP3    H233180   2.594   5.994   2.676  3.4673 -0.0166  1.5570
 3897TIP3   OH233181   2.937   2.292   6.039  0.5241  0.0653 -0.1988
 3897TIP3    H133182   2.986   2.374   6.030  1.2852 -0.4494 -0.7579
 3897TIP3    H233183   2.998   2.224   6.011  0.6484 -0.9203  2.3608
 3898TIP3   OH233184   3.354   4.215  13.825 -0.2304 -0.0406  0.3468
 3898TIP3    H133185   3.372   4.208  13.919  2.8915  0.6664 -0.1421
 3898TIP3    H233186   3.375   4.128  13.790 -0.4903 -0.0373  0.1860
 3899TIP3   OH233187   4.695   0.687  13.946 -0.0534 -0.1839  0.5694
 3899TIP3    H133188   4.742   0.726  13.873  0.6675 -1.8295  0.1279
 3899TIP3    H233189   4.762   0.677  14.015  0.2428 -2.3071  0.0232
 3900TIP3   OH233190   0.753   3.531   5.128 -0.0159  0.1253  0.4512
 3900TIP3    H133191   0.670   3.569   5.098  1.1497  0.2179 -2.8562
 3900TIP3    H233192   0.813   3.606   5.133  1.0816 -0.5624 -1.7243
 3901TIP3   OH233193   0.124   1.287   2.742  0.1643 -0.8059  0.8725
 3901TIP3    H133194   0.208   1.332   2.735  0.3348 -1.3611 -0.8186
 3901TIP3    H233195   0.069   1.327   2.674 -0.1354 -2.1582  0.2960
 3902TIP3   OH233196   0.193   5.200   5.639  0.6153  0.2215  0.7340
 3902TIP3    H133197   0.229   5.120   5.676  0.2316 -0.0274  0.5636
 3902TIP3    H233198   0.098   5.186   5.638  0.5177  0.8322  1.0807
 3903TIP3   OH233199   6.779   4.681  12.560 -0.2858  0.1943  0.5142
 3903TIP3    H133200   6.717   4.617  12.595  1.5334 -0.0624  3.3881
 3903TIP3    H233201   6.725   4.737  12.504 -2.2143 -2.7980 -0.7759
 3904TIP3   OH233202   1.335   4.054   6.570 -0.4975  0.3402  0.1702
 3904TIP3    H133203   1.325   4.147   6.592  0.6028  0.5757 -0.2787
 3904TIP3    H233204   1.303   4.047   6.480 -1.4845  0.0913  0.5325
 3905TIP3   OH233205   5.570   2.352  13.789  0.5609 -0.5475 -0.4035
 3905TIP3    H133206   5.624   2.432  13.792  1.8101 -1.3963  0.6620
 3905TIP3    H233207   5.482   2.382  13.814  1.2036  0.3680  0.8484
 3906TIP3   OH233208   1.610   4.698  14.675  0.0551 -0.0390  0.1454
 3906TIP3    H133209   1.659   4.627  14.632  0.5819 -1.4096  2.8738
 3906TIP3    H233210   1.533   4.710  14.620  1.2022 -0.9946 -1.7445
 3907TIP3   OH233211   5.422   3.021  10.823 -0.1047 -0.0853  0.4845
 3907TIP3    H133212   5.510   3.042  10.790 -0.2930  1.7674  1.1310
 3907TIP3    H233213   5.365   3.087  10.783 -1.5125 -2.3032 -1.3250
 3908TIP3   OH233214   6.034   1.867   6.020 -0.5167 -0.5501  0.2740
 3908TIP3    H133215   6.107   1.807   6.033  0.2020 -0.3661 -2.5758
 3908TIP3    H233216   6.063   1.950   6.059  0.9610 -0.4007 -1.0786
 3909TIP3   OH233217   1.453   1.350  14.870 -0.4367  0.1519 -0.1997
 3909TIP3    H133218   1.448   1.255  14.881 -1.7769  0.0774 -1.3982
 3909TIP3    H233219   1.362   1.379  14.876 -0.3128  1.0665 -2.3620
 3910TIP3   OH233220   5.489   4.215  12.342  0.1757 -0.2158  0.1842
 3910TIP3    H133221   5.399   4.246  12.347 -0.0923 -0.7921 -1.1223
 3910TIP3    H233222   5.532   4.256  12.417 -0.6612  1.7095 -0.3695
 3911TIP3   OH233223   4.932   4.364   5.784  0.0267  0.4588 -0.1432
 3911TIP3    H133224   4.958   4.281   5.744 -1.6637 -0.0457 -0.2101
 3911TIP3    H233225   5.007   4.422   5.769  1.3838 -1.1611  0.2613
 3912TIP3   OH233226   2.365   4.324  11.887 -0.6364 -0.2484 -0.0547
 3912TIP3    H133227   2.303   4.354  11.820  1.3051 -1.5954 -2.5439
 3912TIP3    H233228   2.309   4.292  11.958 -2.7681  0.7858 -1.2064
 3913TIP3   OH233229   4.360   2.658  12.045  0.3764 -0.4996 -0.3880
 3913TIP3    H133230   4.268   2.633  12.054  0.2099  0.6600  1.4574
 3913TIP3    H233231   4.357   2.740  11.995  0.2962  0.1475  0.6530
 3914TIP3   OH233232   2.892   3.999  12.053  0.3502 -0.7848 -0.4310
 3914TIP3    H133233   2.926   4.079  12.013 -1.2263 -0.8993 -2.0597
 3914TIP3    H233234   2.814   4.027  12.101 -0.1069 -1.3263 -0.8594
 3915TIP3   OH233235   6.117   4.273  11.644 -0.1953  0.2334  0.0733
 3915TIP3    H133236   6.031   4.232  11.640 -0.0023 -0.0865 -1.1653
 3915TIP3    H233237   6.165   4.224  11.710 -0.6129 -0.2660  0.0073
 3916TIP3   OH233238   0.947   6.786  11.625  0.2223  0.3469 -0.5395
 3916TIP3    H133239   1.005   6.859  11.648  1.2737 -0.4206 -0.7319
 3916TIP3    H233240   0.906   6.814  11.543 -1.4924  1.9218  0.8143
 3917TIP3   OH233241   6.342   1.951  12.083 -0.2861 -0.0813  0.8259
 3917TIP3    H133242   6.274   1.904  12.035 -0.0802  0.3308  0.1274
 3917TIP3    H233243   6.298   1.983  12.162 -0.8433 -0.0189  0.4933
 3918TIP3   OH233244   3.511   1.470   4.030 -0.1020  0.3070  0.1609
 3918TIP3    H133245   3.439   1.408   4.028  1.1498 -1.1726  0.0122
 3918TIP3    H233246   3.585   1.422   3.993  0.7688  2.0470 -0.4095
 3919TIP3   OH233247   4.063   2.163   6.553  0.0652  0.3028  0.0665
 3919TIP3    H133248   4.061   2.094   6.620 -0.9905  2.0459  1.8745
 3919TIP3    H233249   4.144   2.211   6.570 -0.5792  1.2131  0.5762
 3920TIP3   OH233250   1.786   4.521  15.684 -0.5272  0.4000 -0.7370
 3920TIP3    H133251   1.844   4.501  15.757 -1.6191 -1.1412 -0.2760
 3920TIP3    H233252   1.734   4.596  15.715  0.0022  0.6758 -0.4988
 3921TIP3   OH233253   4.668   4.859   5.216 -0.1478 -0.0719 -0.4509
 3921TIP3    H133254   4.687   4.857   5.123  1.4389  0.8345 -0.1839
 3921TIP3    H233255   4.753   4.844   5.258 -0.5806  0.9354  0.8349
 3922TIP3   OH233256   3.845   0.833   0.957  0.2848 -0.4056  0.2674
 3922TIP3    H133257   3.820   0.925   0.968 -0.8690 -0.4856 -1.4082
 3922TIP3    H233258   3.819   0.792   1.039 -1.0236  0.3975  0.2795
 3923TIP3   OH233259   5.381   0.643   0.429  0.0447 -0.3884  0.2433
 3923TIP3    H133260   5.403   0.654   0.521 -0.8260 -0.6207  0.4890
 3923TIP3    H233261   5.459   0.604   0.389  0.3936 -0.3612  0.8950
 3924TIP3   OH233262   1.858   3.162   2.325  0.0445 -0.4185  0.4910
 3924TIP3    H133263   1.807   3.126   2.397  0.5519 -0.7690  0.6784
 3924TIP3    H233264   1.879   3.087   2.270  0.6546 -0.3308  0.6042
 3925TIP3   OH233265   5.948   0.358   5.064 -0.1323  0.2418  0.1591
 3925TIP3    H133266   5.982   0.442   5.034  1.5117 -0.1100  0.9582
 3925TIP3    H233267   6.021   0.297   5.052 -1.2777 -1.0597 -0.3489
 3926TIP3   OH233268   2.377   5.896   1.268  0.4266 -0.2450  0.5245
 3926TIP3    H133269   2.355   5.965   1.206 -2.5007 -0.5536  1.1768
 3926TIP3    H233270   2.365   5.936   1.354  3.4556 -0.1392  0.9626
 3927TIP3   OH233271   4.683   3.277  11.273 -0.0940  0.0175  0.5129
 3927TIP3    H133272   4.725   3.295  11.188  2.0384  0.3961  1.6082
 3927TIP3    H233273   4.742   3.317  11.337 -1.7864 -0.0994  2.1737
 3928TIP3   OH233274   1.539   2.419  13.271  0.4901 -0.0271 -0.1341
 3928TIP3    H133275   1.565   2.449  13.358 -1.2079  0.5498  0.1862
 3928TIP3    H233276   1.581   2.482  13.211 -1.3069  1.7779  0.4415
 3929TIP3   OH233277   2.310   0.309   1.711  0.2116  0.5644  0.4767
 3929TIP3    H133278   2.321   0.267   1.626 -1.3629 -1.5749  1.2680
 3929TIP3    H233279   2.359   0.254   1.772 -0.1124  1.0761  1.2109
 3930TIP3   OH233280   2.446   4.582  12.661  0.7039  0.5182 -0.3414
 3930TIP3    H133281   2.496   4.659  12.634  2.1605 -0.5123 -0.6390
 3930TIP3    H233282   2.383   4.569  12.591 -0.4544  2.2145  0.3437
 3931TIP3   OH233283   1.199   1.880   6.006 -0.1907  0.9775 -0.1135
 3931TIP3    H133284   1.248   1.827   5.942 -0.2312  1.1589 -0.2936
 3931TIP3    H233285   1.265   1.905   6.071  0.0953  1.7879 -0.7133
 3932TIP3   OH233286   1.299   2.090  14.974  0.0615  0.3903  0.8243
 3932TIP3    H133287   1.237   2.020  14.953 -1.6280  1.0830  3.3706
 3932TIP3    H233288   1.378   2.043  15.002 -0.0482 -0.4801 -0.2598
 3933TIP3   OH233289   4.627   4.786  13.263 -0.2132  0.1543  0.3743
 3933TIP3    H133290   4.708   4.830  13.291  0.5891 -0.2226 -1.2554
 3933TIP3    H233291   4.587   4.847  13.202 -0.3122 -0.3472 -0.0706
 3934TIP3   OH233292   5.433   1.558   3.370  0.4457 -0.2917  0.3541
 3934TIP3    H133293   5.486   1.481   3.353  1.2911  0.2570  0.4452
 3934TIP3    H233294   5.465   1.591   3.454  0.4514  0.4443  0.0728
 3935TIP3   OH233295   1.865   3.865   1.818 -0.3886  0.0671  0.2539
 3935TIP3    H133296   1.837   3.906   1.736 -1.7393 -0.1573  0.5818
 3935TIP3    H233297   1.862   3.771   1.800  1.2277  0.0672 -0.0355
 3936TIP3   OH233298   4.381   5.652   4.608  0.5520 -0.2137  0.3180
 3936TIP3    H133299   4.448   5.706   4.652  0.3304 -0.2400  0.6928
 3936TIP3    H233300   4.300   5.673   4.655  0.5236 -1.1332  0.6898
 3937TIP3   OH233301   0.271   6.507   4.510 -0.1738 -1.1414  0.1688
 3937TIP3    H133302   0.234   6.582   4.556  0.9544 -0.2571 -0.3517
 3937TIP3    H233303   0.323   6.461   4.576  0.9488 -0.2161 -0.0767
 3938TIP3   OH233304   3.515   3.780  13.306  0.1166  0.5098 -0.0273
 3938TIP3    H133305   3.461   3.702  13.292 -0.7994  0.7811  1.9315
 3938TIP3    H233306   3.511   3.827  13.222 -1.4305 -0.2485 -0.3932
 3939TIP3   OH233307   1.350   5.040  12.788 -0.1217 -0.4726 -0.1892
 3939TIP3    H133308   1.377   5.132  12.786  0.6008 -0.7078 -1.8838
 3939TIP3    H233309   1.257   5.043  12.763  0.0352 -0.2459 -0.7620
 3940TIP3   OH233310   5.519   5.303  16.670 -0.1017 -0.5551 -0.0811
 3940TIP3    H133311   5.516   5.220  16.622  0.7884 -0.3426 -0.5178
 3940TIP3    H233312   5.612   5.322  16.679 -0.3080  0.6006 -0.3389
 3941TIP3   OH233313   1.662   1.497  15.520 -0.3382 -0.0109  0.2191
 3941TIP3    H133314   1.613   1.545  15.455 -1.6970 -0.1610  1.1066
 3941TIP3    H233315   1.746   1.543  15.527  0.5475 -1.0561 -2.9007
 3942TIP3   OH233316   2.492   5.262   0.566 -0.3061 -0.7895 -0.4445
 3942TIP3    H133317   2.499   5.298   0.477 -2.2899 -2.2255 -1.2297
 3942TIP3    H233318   2.452   5.332   0.617 -0.2127 -0.3664 -0.9421
 3943TIP3   OH233319   1.450   3.182   2.009 -0.4186  0.4554  0.2829
 3943TIP3    H133320   1.480   3.205   2.097  1.3940 -0.0123 -0.1983
 3943TIP3    H233321   1.521   3.209   1.951 -2.0800  1.8315 -1.1811
 3944TIP3   OH233322   6.691   3.790  14.719 -0.1707  0.4992 -0.7697
 3944TIP3    H133323   6.627   3.844  14.767  1.7261  2.1562 -0.0141
 3944TIP3    H233324   6.736   3.852  14.662  0.7567 -0.6491 -1.2925
 3945TIP3   OH233325   4.353   2.144  13.452  0.4609 -0.3004  0.3116
 3945TIP3    H133326   4.435   2.125  13.406  1.4662 -0.2867  2.0582
 3945TIP3    H233327   4.357   2.091  13.531 -1.6119 -0.9331  0.0296
 3946TIP3   OH233328   5.319   2.676  14.903 -0.0278 -0.1799 -0.6206
 3946TIP3    H133329   5.391   2.693  14.844 -0.5194  1.3223 -0.8105
 3946TIP3    H233330   5.332   2.586  14.933  1.1512 -0.3653 -1.6956
 3947TIP3   OH233331   3.304   5.829  14.319 -0.0136 -0.5809 -0.0617
 3947TIP3    H133332   3.228   5.805  14.372  0.2421 -1.1270  0.0646
 3947TIP3    H233333   3.298   5.771  14.243 -0.9409  0.8942 -1.1357
 3948TIP3   OH233334   1.587   3.880  14.167  0.0174 -0.3129 -0.3372
 3948TIP3    H133335   1.555   3.925  14.245 -0.0450 -0.0175 -0.5336
 3948TIP3    H233336   1.668   3.926  14.144  1.3159 -1.8926  0.9448
 3949TIP3   OH233337   4.912   1.981  15.816 -0.0438  0.1699 -0.2153
 3949TIP3    H133338   4.901   1.973  15.911 -1.0251 -2.9307 -0.5108
 3949TIP3    H233339   4.984   1.921  15.796  0.5953  1.3186 -1.3477
 3950TIP3   OH233340   6.436   3.566   2.690 -0.2729  0.1473 -0.0512
 3950TIP3    H133341   6.407   3.498   2.751 -2.2256  0.8370 -0.1631
 3950TIP3    H233342   6.433   3.525   2.604  0.7249 -0.2895  0.1212
 3951TIP3   OH233343   3.239   2.056  13.090 -0.3503  0.2452 -0.1629
 3951TIP3    H133344   3.163   2.023  13.138 -0.9703  0.6682 -0.8461
 3951TIP3    H233345   3.234   2.013  13.005  0.1543  0.3199 -0.2312
 3952TIP3   OH233346   1.934   0.172  16.749 -0.5513 -0.3026 -0.0256
 3952TIP3    H133347   1.958   0.079  16.745 -1.1161 -0.5435  1.5872
 3952TIP3    H233348   2.014   0.219  16.725 -0.8697 -1.2196 -3.1173
 3953TIP3   OH233349   0.071   4.355   4.771 -0.3966  0.1263  0.2498
 3953TIP3    H133350   0.038   4.293   4.706  0.2905 -0.7177  0.6907
 3953TIP3    H233351   0.159   4.377   4.741 -0.3096  0.2102  0.5583
 3954TIP3   OH233352   0.568   2.922   5.355 -0.2727 -0.0903 -0.0294
 3954TIP3    H133353   0.562   2.923   5.451  1.8877  0.0926  0.1385
 3954TIP3    H233354   0.612   3.004   5.333  0.0803 -0.5588 -1.0923
 3955TIP3   OH233355   3.268   1.041   0.273 -0.4892  0.7758  0.3569
 3955TIP3    H133356   3.286   1.129   0.305  0.4340  0.7530 -0.0737
 3955TIP3    H233357   3.237   0.993   0.350  0.1604  1.1535  0.8605
 3956TIP3   OH233358   2.015   3.975   5.101  0.1935  0.4385 -1.1712
 3956TIP3    H133359   2.037   3.943   5.189 -2.7001 -3.7594 -1.8335
 3956TIP3    H233360   2.100   3.992   5.060  1.6681  0.2581  1.6478
 3957TIP3   OH233361   3.924   6.400  15.123  0.6369 -1.0794  0.2938
 3957TIP3    H133362   3.875   6.334  15.075  0.5723 -0.4513 -0.5068
 3957TIP3    H233363   4.010   6.402  15.081  0.2654  0.1614 -0.4490
 3958TIP3   OH233364   4.770   3.705  12.557 -0.0692  0.6143 -0.0843
 3958TIP3    H133365   4.837   3.670  12.615  0.3664  0.4603 -0.6686
 3958TIP3    H233366   4.813   3.709  12.471 -0.4992  1.4145 -0.2741
 3959TIP3   OH233367   3.232   6.008   1.807  0.2635 -0.4729 -0.1602
 3959TIP3    H133368   3.288   6.007   1.884  0.7035 -1.8291 -0.4865
 3959TIP3    H233369   3.143   6.018   1.842  0.3493 -2.1651  0.6111
 3960TIP3   OH233370   5.770   3.031   5.407 -0.3350 -0.1435  0.0194
 3960TIP3    H133371   5.825   3.085   5.464 -1.0671  0.4852  0.1373
 3960TIP3    H233372   5.804   2.942   5.418  0.1019  0.1096  0.7510
 3961TIP3   OH233373   6.348   3.711   1.262 -0.5449  0.1027  0.0994
 3961TIP3    H133374   6.262   3.712   1.306 -0.6097 -1.3801  0.0327
 3961TIP3    H233375   6.330   3.674   1.176  0.1466 -0.0602  0.0274
 3962TIP3   OH233376   5.545   3.569  13.366  0.3029  0.4250 -0.1754
 3962TIP3    H133377   5.553   3.515  13.445  0.6915 -0.2653 -0.6876
 3962TIP3    H233378   5.452   3.565  13.345  0.7739 -2.5665 -1.9605
 3963TIP3   OH233379   1.998   0.569   0.097 -0.1858 -0.1329 -0.0869
 3963TIP3    H133380   1.968   0.508   0.164  0.3015 -0.5085 -0.2036
 3963TIP3    H233381   1.994   0.518   0.015 -1.1899  0.4556 -0.4061
 3964TIP3   OH233382   1.776   6.255  11.973 -0.2351  0.3279 -0.6350
 3964TIP3    H133383   1.764   6.165  12.002  3.0716 -0.3016 -1.0598
 3964TIP3    H233384   1.703   6.303  12.012 -1.7181 -2.4042  0.0531
 3965TIP3   OH233385   0.713   4.924   3.986  0.3639  0.1949 -0.1026
 3965TIP3    H133386   0.792   4.920   3.932 -1.9133 -0.6043 -3.5280
 3965TIP3    H233387   0.675   5.009   3.966 -1.9763 -1.2496 -2.0088
 3966TIP3   OH233388   2.285   3.077   1.157 -0.2072 -0.4365  0.0798
 3966TIP3    H133389   2.239   3.049   1.079 -2.2175  0.8888  0.7489
 3966TIP3    H233390   2.280   3.003   1.217 -0.3948 -0.7493 -0.3274
 3967TIP3   OH233391   3.879   4.563  10.922  0.3800  0.3445  0.4253
 3967TIP3    H133392   3.899   4.472  10.902  1.4939  0.7497 -0.3055
 3967TIP3    H233393   3.901   4.572  11.015  1.2107  0.1222  0.2549
 3968TIP3   OH233394   2.203   1.194   3.237 -0.6589  0.3895 -0.1152
 3968TIP3    H133395   2.161   1.111   3.214  0.1843 -0.0348 -0.1074
 3968TIP3    H233396   2.175   1.255   3.169  0.8821 -0.5590 -1.6379
 3969TIP3   OH233397   5.960   2.240   2.702  0.3914  0.1996  0.1945
 3969TIP3    H133398   5.991   2.160   2.660 -0.2062 -0.4322  0.9431
 3969TIP3    H233399   5.866   2.242   2.683 -0.0862 -0.6180  2.2995
 3970TIP3   OH233400   4.825   5.960   2.793 -0.8769  0.0008 -0.0138
 3970TIP3    H133401   4.834   5.930   2.702  1.4708 -0.2609  0.2803
 3970TIP3    H233402   4.854   5.885   2.846 -3.7339 -0.4343  1.0416
 3971TIP3   OH233403   2.200   4.212  16.876 -0.2337  0.2281 -0.3569
 3971TIP3    H133404   2.203   4.178  16.786 -0.0398 -1.4608  0.2743
 3971TIP3    H233405   2.112   4.188  16.907  0.4095 -0.9906  0.5758
 3972TIP3   OH233406   5.367   3.055   1.517  0.2724  0.6989 -0.2999
 3972TIP3    H133407   5.318   2.996   1.459 -2.1677  0.8866  1.4770
 3972TIP3    H233408   5.390   3.001   1.592  0.8926  1.1905 -0.1362
 3973TIP3   OH233409   4.970   5.907  16.342  0.2407  0.8587 -0.4167
 3973TIP3    H133410   5.013   5.984  16.305  0.4773  0.3224 -1.2700
 3973TIP3    H233411   4.877   5.931  16.346  0.3960  1.4135 -0.1067
 3974TIP3   OH233412   5.710   6.138   0.372  0.2391  0.0662 -0.0528
 3974TIP3    H133413   5.758   6.084   0.309  2.2005  1.0046  0.5852
 3974TIP3    H233414   5.678   6.076   0.437  0.7818 -0.5698 -0.3849
 3975TIP3   OH233415   5.699   3.756  11.201  0.7143 -0.7479  0.1866
 3975TIP3    H133416   5.776   3.713  11.239  1.0844  0.3240  0.7011
 3975TIP3    H233417   5.722   3.849  11.201  0.5105 -0.6688 -2.2333
 3976TIP3   OH233418   2.903   2.224  12.010 -0.0684 -0.2600  0.3262
 3976TIP3    H133419   2.838   2.245  11.943  1.0651  0.3153 -0.6173
 3976TIP3    H233420   2.908   2.302  12.065  0.6620  0.1417 -0.3020
 3977TIP3   OH233421   4.848   4.147  15.377 -0.3311  0.4216  0.2822
 3977TIP3    H133422   4.840   4.235  15.414  0.3341 -0.3525  2.3351
 3977TIP3    H233423   4.758   4.118  15.363 -0.5385  1.7616 -1.2685
 3978TIP3   OH233424   3.960   5.335  13.439  0.2944 -0.2043  0.6568
 3978TIP3    H133425   4.036   5.391  13.456 -0.2746  0.4875  0.9807
 3978TIP3    H233426   3.996   5.247  13.427  1.1188  0.0767  1.0504
 3979TIP3   OH233427   3.687   1.286  16.376  0.3329  0.2631  1.0095
 3979TIP3    H133428   3.776   1.256  16.398  0.1954  0.9681  2.5901
 3979TIP3    H233429   3.657   1.224  16.310  1.9921 -0.0128  0.4785
 3980TIP3   OH233430   0.093   2.959  11.165 -0.0497  0.3386  0.4395
 3980TIP3    H133431  -0.002   2.957  11.156 -0.2388  0.8485  2.1913
 3980TIP3    H233432   0.124   3.005  11.086 -1.2127 -0.1878 -0.3359
 3981TIP3   OH233433   1.466   1.030  11.732 -0.1645 -0.0727 -0.3679
 3981TIP3    H133434   1.449   1.075  11.649  0.0737 -0.3374 -0.5637
 3981TIP3    H233435   1.543   1.072  11.768 -0.5644  0.3786 -0.0315
 3982TIP3   OH233436   0.649   3.783   2.635 -0.0633 -0.0989  0.1685
 3982TIP3    H133437   0.603   3.775   2.719 -1.5873 -0.2010 -0.6430
 3982TIP3    H233438   0.648   3.694   2.599 -1.2357  0.3101 -0.8571
 3983TIP3   OH233439   1.062   4.213  11.681  0.1943 -0.6028  0.2867
 3983TIP3    H133440   1.004   4.287  11.697  0.9239 -0.2475  1.3174
 3983TIP3    H233441   1.121   4.243  11.611 -0.4158 -0.7240 -0.2848
 3984TIP3   OH233442   2.945   4.461   4.939  0.0353 -0.4666  0.6084
 3984TIP3    H133443   2.947   4.411   5.021  1.5267 -2.2357 -0.4438
 3984TIP3    H233444   2.853   4.484   4.927 -0.7522 -3.1336  1.0671
 3985TIP3   OH233445   0.528   5.305  14.453  0.5619 -0.2028  0.6125
 3985TIP3    H133446   0.525   5.394  14.488  1.3572  0.7036 -1.5713
 3985TIP3    H233447   0.608   5.267  14.490  0.9243  0.4465  0.5025
 3986TIP3   OH233448   1.657   2.544  15.784 -0.1986 -0.4263 -0.8119
 3986TIP3    H133449   1.656   2.491  15.704 -1.3098  0.1720 -1.2208
 3986TIP3    H233450   1.748   2.572  15.793 -0.0866 -0.3727 -1.9668
 3987TIP3   OH233451   3.538   0.647  12.489 -0.5264  0.7391  0.3799
 3987TIP3    H133452   3.516   0.567  12.537 -0.2122  0.2588 -0.2741
 3987TIP3    H233453   3.461   0.665  12.435 -0.1438  0.2206 -0.3493
 3988TIP3   OH233454   5.980   2.039   0.044  0.1788 -0.6318 -0.3536
 3988TIP3    H133455   5.889   2.060   0.021 -0.3084  0.4796  2.3508
 3988TIP3    H233456   6.032   2.086  -0.021 -1.1203  2.7617  0.9076
 3989TIP3   OH233457   6.375   2.796  11.877 -0.8651  0.8498  1.2013
 3989TIP3    H133458   6.397   2.841  11.959 -2.7781  1.2427  1.5134
 3989TIP3    H233459   6.299   2.742  11.898 -2.2028  1.9631 -0.6020
 3990TIP3   OH233460   2.843   6.149   5.248 -0.1655  0.1807  0.0668
 3990TIP3    H133461   2.846   6.142   5.153 -0.8443  1.2731 -0.0360
 3990TIP3    H233462   2.798   6.069   5.276 -1.2987  0.5652 -0.6319
 3991TIP3   OH233463   5.437   6.780  14.823 -0.2518  0.0324  1.1358
 3991TIP3    H133464   5.382   6.723  14.875 -1.5160  1.0067  0.9004
 3991TIP3    H233465   5.421   6.868  14.858  0.2967  0.4633  0.3303
 3992TIP3   OH233466   2.311   0.836  14.169  0.1158  0.0111  0.4525
 3992TIP3    H133467   2.308   0.916  14.115 -0.2447  1.5171  2.6355
 3992TIP3    H233468   2.229   0.791  14.149 -0.2913  0.8606  0.1779
 3993TIP3   OH233469   3.923   5.980  12.359 -0.5381  0.1424  0.0683
 3993TIP3    H133470   3.869   5.913  12.317 -0.2289 -0.7431  1.0764
 3993TIP3    H233471   4.008   5.973  12.315 -0.7075  0.3472 -0.2992
 3994TIP3   OH233472   0.737   4.161  11.568  0.1725  0.3621  0.3422
 3994TIP3    H133473   0.656   4.144  11.520 -0.8301  0.1086  2.0741
 3994TIP3    H233474   0.783   4.076  11.569 -0.8153 -0.1775  1.6387
 3995TIP3   OH233475   5.283   6.339   2.710 -0.7115 -0.3307 -0.0783
 3995TIP3    H133476   5.283   6.407   2.777 -1.8204 -0.3693 -0.0291
 3995TIP3    H233477   5.230   6.376   2.639  0.7556 -0.1448 -1.0798
 3996TIP3   OH233478   2.041   4.422   4.279 -0.1000  0.1522  0.1158
 3996TIP3    H133479   1.978   4.477   4.232 -0.5687 -0.3389  0.1687
 3996TIP3    H233480   2.123   4.434   4.231 -1.0816 -2.1105 -2.2647
 3997TIP3   OH233481   1.328   5.749  15.926  0.6029  0.0455 -0.6681
 3997TIP3    H133482   1.349   5.742  16.019 -2.0827 -1.1055 -0.0890
 3997TIP3    H233483   1.387   5.687  15.883 -0.2572 -1.7666  0.6805
 3998TIP3   OH233484   3.442   0.307   3.215 -0.6328 -0.1685  0.8117
 3998TIP3    H133485   3.434   0.240   3.283 -2.8355 -2.2038 -1.3869
 3998TIP3    H233486   3.537   0.323   3.209 -0.1274 -2.6255  1.8033
 3999TIP3   OH233487   6.512   0.443  11.531  0.3656 -0.6966  0.3322
 3999TIP3    H133488   6.484   0.399  11.451 -1.6473 -0.0934  0.6968
 3999TIP3    H233489   6.557   0.522  11.501 -0.3936 -0.4663 -0.2155
 4000TIP3   OH233490   6.589   0.066   3.670 -0.8566 -0.2955  0.9086
 4000TIP3    H133491   6.652  -0.003   3.690 -1.6681 -1.0122  1.0025
 4000TIP3    H233492   6.531   0.070   3.747 -0.9485  0.3464  0.8163
 4001TIP3   OH233493   2.052   1.853   2.237 -0.0722  0.2042  0.6851
 4001TIP3    H133494   2.085   1.927   2.185 -0.5021 -0.5464 -0.6816
 4001TIP3    H233495   2.070   1.776   2.183 -1.7707 -0.4608  1.0294
 4002TIP3   OH233496   4.668   1.761   0.286  0.0822  0.5002  0.3432
 4002TIP3    H133497   4.699   1.674   0.312  0.2884  0.2986 -0.5674
 4002TIP3    H233498   4.699   1.772   0.196 -0.2978  1.3500  0.3087
 4003TIP3   OH233499   6.793   2.297   1.880 -0.0250  0.0456 -0.2414
 4003TIP3    H133500   6.869   2.257   1.838  0.1338 -0.4008  0.4531
 4003TIP3    H233501   6.719   2.275   1.823  0.3136  0.1836 -0.7352
 4004TIP3   OH233502   0.281   2.908  13.331 -0.4825 -0.3853 -0.4125
 4004TIP3    H133503   0.303   2.869  13.246 -1.1946  1.7002 -1.6175
 4004TIP3    H233504   0.363   2.948  13.360  0.0043 -1.9161  0.3632
 4005TIP3   OH233505   3.614   6.366   2.374  0.0905  0.4341 -0.7578
 4005TIP3    H133506   3.525   6.338   2.352  0.3003  0.2137 -1.3326
 4005TIP3    H233507   3.637   6.429   2.306 -0.1427  1.5482  0.1760
 4006TIP3   OH233508   0.520   0.291   1.370 -0.1625 -0.1563  0.4899
 4006TIP3    H133509   0.549   0.203   1.347  1.7560  0.4203  0.5484
 4006TIP3    H233510   0.590   0.325   1.426 -0.2753  1.8285 -0.5028
 4007TIP3   OH233511   5.368   0.920  13.063 -0.4778  0.6984 -0.1180
 4007TIP3    H133512   5.457   0.954  13.066 -0.2499  0.2415 -1.2011
 4007TIP3    H233513   5.315   0.984  13.110  0.7703 -0.2008  2.6447
 4008TIP3   OH233514   6.669   2.873  10.517  0.0881  0.4093 -0.0114
 4008TIP3    H133515   6.682   2.795  10.571  0.5837  0.8120  0.4601
 4008TIP3    H233516   6.575   2.891  10.522  0.0170  0.0118  0.1117
 4009TIP3   OH233517   5.589   5.647  16.045 -0.5482 -0.8135  0.1730
 4009TIP3    H133518   5.630   5.561  16.054  1.7585  0.2177 -0.2310
 4009TIP3    H233519   5.608   5.674  15.956  0.3909  0.9157  0.8711
 4010TIP3   OH233520   2.479   0.302   2.187 -0.4279  0.0435  0.0890
 4010TIP3    H133521   2.411   0.256   2.138  0.0245  1.0278 -1.4799
 4010TIP3    H233522   2.438   0.385   2.211 -0.4403 -0.1836  0.8593
 4011TIP3   OH233523   6.005   1.519  14.211 -0.2457 -0.6651  0.6077
 4011TIP3    H133524   5.991   1.475  14.295  1.4692 -0.9738  0.7489
 4011TIP3    H233525   6.085   1.570  14.224 -1.5276  1.5701  0.0636
 4012TIP3   OH233526   3.343   0.541  14.232 -0.2188  0.2253 -0.4077
 4012TIP3    H133527   3.321   0.478  14.301 -0.0936  1.0727  0.4130
 4012TIP3    H233528   3.282   0.613  14.245 -0.5823  0.1254 -1.5607
 4013TIP3   OH233529   6.591   2.410   0.029 -0.2965 -0.0891 -0.1615
 4013TIP3    H133530   6.617   2.457  -0.051 -1.6579  1.0539  0.0452
 4013TIP3    H233531   6.650   2.444   0.096  0.8842 -1.0874 -0.6670
 4014TIP3   OH233532   6.071   3.576   1.670 -0.7353 -0.0268  0.6837
 4014TIP3    H133533   5.989   3.625   1.670 -0.9890 -0.4390  0.0971
 4014TIP3    H233534   6.045   3.484   1.666 -0.2429 -0.1084 -1.4603
 4015TIP3   OH233535   6.745   5.471  15.381  0.0481 -0.4492 -0.2904
 4015TIP3    H133536   6.667   5.516  15.349 -0.8688 -1.9303 -0.1962
 4015TIP3    H233537   6.818   5.514  15.337 -0.9284 -0.0336 -1.5194
 4016TIP3   OH233538   1.444   0.116  12.737  0.9422 -0.0168 -0.2250
 4016TIP3    H133539   1.441   0.021  12.743  2.0390 -0.0744 -0.5504
 4016TIP3    H233540   1.468   0.145  12.825  1.5139 -0.0832 -0.3612
 4017TIP3   OH233541   4.898   2.338   4.484 -0.2584  0.5507  0.3740
 4017TIP3    H133542   4.904   2.249   4.518 -1.0737  0.6322  0.7414
 4017TIP3    H233543   4.969   2.344   4.419  0.0257 -0.2428  0.6085
 4018TIP3   OH233544   2.858   3.252   2.043  0.3159 -0.5608  0.2540
 4018TIP3    H133545   2.948   3.285   2.039  0.9998 -2.4575 -0.4360
 4018TIP3    H233546   2.826   3.258   1.953 -0.4213  0.5553  0.5846
 4019TIP3   OH233547   2.321   0.425   0.362 -0.6213 -0.1114 -0.0192
 4019TIP3    H133548   2.277   0.510   0.368 -0.7719 -0.1816 -0.1166
 4019TIP3    H233549   2.362   0.413   0.448 -0.9514 -0.1292  0.1385
 4020TIP3   OH233550   2.597   5.884  13.582 -0.3190  0.5414 -0.0170
 4020TIP3    H133551   2.541   5.939  13.527 -0.2328  0.3103 -0.3400
 4020TIP3    H233552   2.685   5.919  13.570 -0.2440  0.2425 -0.3351
 4021TIP3   OH233553   1.981   4.227  16.600 -0.1601 -0.1465 -0.5500
 4021TIP3    H133554   2.024   4.154  16.555 -0.7484  0.2286 -1.7557
 4021TIP3    H233555   2.016   4.306  16.558 -1.2135  0.1874 -0.8247
 4022TIP3   OH233556   0.478   2.533   4.098 -0.1421 -0.0596  0.0246
 4022TIP3    H133557   0.481   2.546   4.193  2.5290 -1.1196  0.1432
 4022TIP3    H233558   0.491   2.620   4.062 -0.2531  0.2188  0.6499
 4023TIP3   OH233559   0.590   0.606  10.615 -0.5782  0.6576  0.1081
 4023TIP3    H133560   0.559   0.640  10.699 -0.3011  0.8116  0.1469
 4023TIP3    H233561   0.511   0.573  10.572 -0.7198  0.5937  0.4223
 4024TIP3   OH233562   6.207   0.507   3.837 -0.0291  0.3850 -0.1238
 4024TIP3    H133563   6.270   0.547   3.897 -1.9504  0.6359  1.7941
 4024TIP3    H233564   6.219   0.555   3.754  1.2674  1.4235  0.6508
 4025TIP3   OH233565   0.115   6.333   1.473 -0.3752 -0.1059  0.1703
 4025TIP3    H133566   0.096   6.426   1.471  0.7162  0.1530  1.1767
 4025TIP3    H233567   0.209   6.328   1.456 -0.4104 -1.0140  0.2096
 4026TIP3   OH233568   2.857   1.610  10.753  0.0194  0.0241  0.0177
 4026TIP3    H133569   2.813   1.525  10.749 -0.4532  0.3023 -1.0576
 4026TIP3    H233570   2.825   1.650  10.834 -0.4338 -0.4640  0.0868
 4027TIP3   OH233571   6.067   3.768   5.698  0.2529 -0.5653  0.0968
 4027TIP3    H133572   6.060   3.860   5.721 -0.0973 -1.2903  2.9752
 4027TIP3    H233573   6.130   3.767   5.626 -1.3861  2.1102 -1.4560
 4028TIP3   OH233574   1.515   1.123   0.118  0.1239  0.9970 -0.1691
 4028TIP3    H133575   1.560   1.038   0.124 -3.2357 -1.0168 -1.5893
 4028TIP3    H233576   1.583   1.185   0.095  2.2868 -1.8185 -1.7086
 4029TIP3   OH233577   5.574   5.848  11.806  0.4719 -0.6510  0.7784
 4029TIP3    H133578   5.636   5.783  11.773  0.8955  0.7301 -1.2734
 4029TIP3    H233579   5.527   5.878  11.728 -0.3161  0.8636  1.8073
 4030TIP3   OH233580   5.041   5.835   4.830 -0.3790 -0.0755  0.1164
 4030TIP3    H133581   5.091   5.916   4.816 -1.8234  0.7475 -0.3621
 4030TIP3    H233582   4.981   5.856   4.901 -1.3132 -0.4752 -0.5515
 4031TIP3   OH233583   4.894   0.709  16.308 -0.0696 -0.1397  0.3156
 4031TIP3    H133584   4.879   0.690  16.401 -0.3342  2.9009  0.9439
 4031TIP3    H233585   4.816   0.675  16.264 -0.3021 -0.9012  1.2982
 4032TIP3   OH233586   1.825   0.015   0.416 -0.3882  0.0989  0.0045
 4032TIP3    H133587   1.772  -0.062   0.399 -0.0871 -0.3760  1.1778
 4032TIP3    H233588   1.787   0.054   0.496  1.6068 -0.8083  1.4451
 4033TIP3   OH233589   6.058   2.702  16.414 -0.4663 -0.4394  0.0581
 4033TIP3    H133590   6.039   2.648  16.338  0.5830 -0.5543 -0.1228
 4033TIP3    H233591   6.120   2.650  16.466 -1.8071 -0.7252  1.4099
 4034TIP3   OH233592   2.081   5.170   0.611  0.5013 -0.1199 -0.3049
 4034TIP3    H133593   2.115   5.233   0.548 -1.1858  0.7598 -0.3812
 4034TIP3    H233594   2.138   5.178   0.687  1.4181  0.1674 -1.0264
 4035TIP3   OH233595   0.831   6.068  15.469  0.0993 -0.2147  0.2133
 4035TIP3    H133596   0.762   6.059  15.403 -0.3311 -2.0683  0.8740
 4035TIP3    H233597   0.820   5.991  15.525  2.5266 -0.4110  0.4755
 4036TIP3   OH233598   0.291   3.408  12.506  0.4801  0.2359 -0.1069
 4036TIP3    H133599   0.383   3.418  12.483  0.7112 -0.5804  0.4445
 4036TIP3    H233600   0.260   3.497  12.520  1.1092  0.5359 -0.5874
 4037TIP3   OH233601   2.458   2.997  17.251  0.5058 -0.1607  0.0858
 4037TIP3    H133602   2.530   3.003  17.314 -0.6529  0.0076  1.4068
 4037TIP3    H233603   2.441   3.088  17.226 -0.3583 -0.0667  1.0330
 4038TIP3   OH233604   5.828   5.340  16.678 -0.6265  0.3252 -0.3452
 4038TIP3    H133605   5.862   5.280  16.744 -1.5840  1.2266  0.9992
 4038TIP3    H233606   5.842   5.295  16.595 -2.1093 -2.1520  0.6913
 4039TIP3   OH233607   0.743   3.108   6.124  0.0382  0.1409  0.2575
 4039TIP3    H133608   0.821   3.163   6.122  0.5263 -0.4699  2.0038
 4039TIP3    H233609   0.669   3.169   6.118  0.5990  0.8835  0.9655
 4040TIP3   OH233610   5.044   6.151   0.169 -0.0850 -0.1913  0.5028
 4040TIP3    H133611   5.131   6.141   0.130 -0.0489  0.5236  0.3957
 4040TIP3    H233612   4.993   6.196   0.102 -0.3492 -0.0055  0.8282
 4041TIP3   OH233613   2.927   1.183   1.038  0.4779 -0.3667 -0.1008
 4041TIP3    H133614   2.875   1.207   1.114  0.3039 -3.4359  0.8009
 4041TIP3    H233615   2.882   1.108   0.999  0.8302  0.8297 -2.9624
 4042TIP3   OH233616   1.234   3.048  16.502 -0.6416 -0.2524  0.8669
 4042TIP3    H133617   1.211   3.133  16.463 -0.1069 -1.1791 -1.5286
 4042TIP3    H233618   1.314   3.065  16.551 -0.8851  0.7613  0.9234
 4043TIP3   OH233619   3.123   2.397   3.092  0.4986  0.2373  0.0824
 4043TIP3    H133620   3.119   2.379   2.998  3.0829 -1.7700  0.2839
 4043TIP3    H233621   3.215   2.416   3.109  0.2467 -0.3756  2.3517
 4044TIP3   OH233622   3.566   2.899  12.724  0.1194  0.3862 -0.6096
 4044TIP3    H133623   3.528   2.984  12.745  0.3625 -0.1773  2.4180
 4044TIP3    H233624   3.497   2.836  12.744  0.8958 -0.3039 -0.0675
 4045TIP3   OH233625   1.674   3.210   5.411 -0.9550  0.3570  0.0371
 4045TIP3    H133626   1.588   3.235   5.444 -0.6867  1.3395  0.0042
 4045TIP3    H233627   1.673   3.114   5.412 -0.9736  0.3552  2.8378
 4046TIP3   OH233628   3.619   1.565  16.372 -0.4898 -0.4857 -0.4433
 4046TIP3    H133629   3.538   1.546  16.418 -1.7300 -0.6981 -2.6445
 4046TIP3    H233630   3.652   1.480  16.344  0.6993 -0.4316  0.7721
 4047TIP3   OH233631   6.349   0.304  13.913  0.3034 -0.3419 -0.0198
 4047TIP3    H133632   6.394   0.272  13.992  0.2097 -0.7918 -0.1483
 4047TIP3    H233633   6.275   0.355  13.947 -1.3745 -2.8083  0.2072
 4048TIP3   OH233634   2.300   4.508   4.189 -0.2220  0.2704  0.1476
 4048TIP3    H133635   2.275   4.600   4.179 -2.9775 -0.1296  2.6959
 4048TIP3    H233636   2.390   4.511   4.221  0.1245  2.0405 -0.9387
 4049TIP3   OH233637   2.351   6.254  10.968  0.2600  0.2069 -0.1732
 4049TIP3    H133638   2.334   6.160  10.959 -1.7867  0.3362  1.7519
 4049TIP3    H233639   2.263   6.293  10.971  1.1034  2.2685 -1.6472
 4050TIP3   OH233640   3.933   0.554   5.660 -0.3789  0.4494  0.1199
 4050TIP3    H133641   3.848   0.528   5.624 -0.7427  1.3399  0.3170
 4050TIP3    H233642   3.911   0.623   5.723  0.5294  0.9162 -0.0799
 4051TIP3   OH233643   5.816   6.649   5.588 -0.4182 -0.5226 -0.4449
 4051TIP3    H133644   5.808   6.738   5.622  0.2361  0.2370 -2.2268
 4051TIP3    H233645   5.829   6.595   5.666  2.1945  1.3189  0.4780
 4052TIP3   OH233646   2.406   2.738   4.582  0.0152 -0.0161 -0.0043
 4052TIP3    H133647   2.344   2.757   4.512  0.4035  1.2823 -0.0086
 4052TIP3    H233648   2.469   2.677   4.544 -0.9319 -0.9034 -0.1649
 4053TIP3   OH233649   2.184   0.910   1.584 -0.3838  0.6971 -0.3569
 4053TIP3    H133650   2.223   0.958   1.511  0.4025 -1.0280 -1.1034
 4053TIP3    H233651   2.259   0.868   1.628 -1.0521  0.1231  0.2511
 4054TIP3   OH233652   3.176   1.839   3.342  0.1052  0.1355  0.0713
 4054TIP3    H133653   3.184   1.884   3.426 -0.2030  0.2617  0.0337
 4054TIP3    H233654   3.264   1.843   3.304  0.6283 -1.2990  1.0862
 4055TIP3   OH233655   2.882   2.668  14.169 -0.7297  0.0649 -0.1108
 4055TIP3    H133656   2.919   2.739  14.222  2.3163 -0.6773 -1.1519
 4055TIP3    H233657   2.921   2.588  14.206 -2.4832 -0.8911 -0.2944
 4056TIP3   OH233658   1.844   1.965   5.724  0.2474  0.3656  0.1928
 4056TIP3    H133659   1.869   1.873   5.718 -1.3205  0.0413 -1.9048
 4056TIP3    H233660   1.903   2.010   5.663 -0.4073  0.4212 -0.4106
 4057TIP3   OH233661   5.974   3.507   5.761  0.1612  0.2832  0.3589
 4057TIP3    H133662   5.959   3.482   5.670 -0.4819  0.8923  0.3006
 4057TIP3    H233663   6.003   3.598   5.757 -1.2642  0.7611  0.8760
 4058TIP3   OH233664   0.328   5.918   2.798 -0.2486  0.3066  0.1838
 4058TIP3    H133665   0.242   5.959   2.794 -0.3674  0.0864  0.4220
 4058TIP3    H233666   0.389   5.987   2.771 -0.4703  0.5506  0.3024
 4059TIP3   OH233667   6.610   1.004   3.233  0.2726  0.9545 -0.4482
 4059TIP3    H133668   6.538   0.941   3.239 -0.2834  1.5675 -0.6612
 4059TIP3    H233669   6.660   0.976   3.156 -0.1142  0.9198 -0.6855
 4060TIP3   OH233670   0.112   6.527   2.191  0.3513 -0.2331 -0.3436
 4060TIP3    H133671   0.018   6.513   2.179  0.2925 -1.2514  1.1352
 4060TIP3    H233672   0.120   6.621   2.212 -0.3959 -0.2367 -0.0214
 4061TIP3   OH233673   5.846   6.126  11.917  0.8482 -0.1863 -0.2128
 4061TIP3    H133674   5.851   6.195  11.983 -0.6686  0.5455 -0.8144
 4061TIP3    H233675   5.859   6.172  11.834 -1.7969 -0.2970 -0.7580
 4062TIP3   OH233676   5.575   4.811   0.992 -0.4162 -0.3467  0.3123
 4062TIP3    H133677   5.627   4.768   1.060 -0.7375 -0.0884  0.7249
 4062TIP3    H233678   5.579   4.904   1.015  1.2425 -0.0094 -1.2314
 4063TIP3   OH233679   5.373   6.001  16.290  0.8950  0.1680  0.1642
 4063TIP3    H133680   5.433   5.965  16.225 -0.4717  0.2671 -1.2003
 4063TIP3    H233681   5.362   6.093  16.264  0.4686  0.2507  0.6283
 4064TIP3   OH233682   5.497   1.195  13.208  0.2300  0.2732 -0.3239
 4064TIP3    H133683   5.453   1.274  13.240 -1.1950 -1.1394  1.2999
 4064TIP3    H233684   5.521   1.147  13.288  4.2236  0.7060 -1.1893
 4065TIP3   OH233685   5.205   0.566  15.396  0.6483 -0.2471  0.4898
 4065TIP3    H133686   5.125   0.587  15.346  1.0323  2.7149  1.0773
 4065TIP3    H233687   5.259   0.517  15.333 -1.4549 -2.0759 -0.0047
 4066TIP3   OH233688   6.540   3.752   4.671  0.0737  0.1423  0.0927
 4066TIP3    H133689   6.560   3.669   4.715 -0.3287  0.1108  0.2186
 4066TIP3    H233690   6.551   3.818   4.740 -0.3175  0.1176  0.1805
 4067TIP3   OH233691   0.990   0.503   1.558  0.1388  0.4416  0.5579
 4067TIP3    H133692   1.075   0.522   1.597  1.0789 -1.9748 -0.1998
 4067TIP3    H233693   1.011   0.460   1.475 -1.7584 -2.8480  1.7019
 4068TIP3   OH233694   5.832   4.010   4.045 -0.2115  0.2145 -0.0730
 4068TIP3    H133695   5.795   3.965   3.969  0.3626 -1.0720  0.3893
 4068TIP3    H233696   5.900   4.066   4.008  0.0455 -0.3848 -0.5256
 4069TIP3   OH233697   1.994   3.456  11.517 -0.1463 -0.5754 -0.0773
 4069TIP3    H133698   2.059   3.500  11.572 -2.0132  1.7491  0.3417
 4069TIP3    H233699   2.045   3.414  11.448  1.6888  3.4023 -1.2764
 4070TIP3   OH233700   0.426   3.713  12.134 -0.4468 -0.2600  0.2306
 4070TIP3    H133701   0.428   3.701  12.229  0.0778  0.0005  0.2523
 4070TIP3    H233702   0.462   3.631  12.100  0.0007 -0.0851  0.2783
 4071TIP3   OH233703   4.899   2.347   0.667  0.2861 -0.2052  0.2092
 4071TIP3    H133704   4.945   2.263   0.681 -0.9562 -0.7307  1.2227
 4071TIP3    H233705   4.928   2.402   0.740 -0.2776 -0.3597  0.5524
 4072TIP3   OH233706   0.846   3.202  17.261 -0.2547  0.3508 -0.2896
 4072TIP3    H133707   0.926   3.218  17.211  0.0611 -0.1057  0.0700
 4072TIP3    H233708   0.874   3.207  17.352 -0.3931 -1.0056 -0.1612
 4073TIP3   OH233709   5.225   3.601   4.682 -0.1074  0.7546  0.5289
 4073TIP3    H133710   5.204   3.607   4.775  0.8302  1.9281  0.6829
 4073TIP3    H233711   5.297   3.663   4.670 -0.8806  1.3530 -1.1669
 4074TIP3   OH233712   0.761   1.235   3.078  0.0831 -0.2287  0.2132
 4074TIP3    H133713   0.679   1.273   3.108 -0.8351 -2.3783  0.5393
 4074TIP3    H233714   0.735   1.155   3.032  2.0113 -1.0861  0.5582
 4075TIP3   OH233715   3.273   3.545   1.779  0.1606 -0.1689 -0.1953
 4075TIP3    H133716   3.305   3.571   1.866  1.3710  0.5602 -0.8330
 4075TIP3    H233717   3.217   3.470   1.796  1.3095 -0.7750  1.1153
 4076TIP3   OH233718   3.306   4.134  16.453  0.1040  0.6085 -0.3176
 4076TIP3    H133719   3.219   4.109  16.485 -0.1949  1.8861 -0.1188
 4076TIP3    H233720   3.343   4.052  16.418 -0.9679 -0.0469  0.0648
 4077TIP3   OH233721   4.956   4.046  14.638  0.1386  0.4795 -0.5284
 4077TIP3    H133722   4.897   3.986  14.592 -1.0438  2.2047 -1.3488
 4077TIP3    H233723   4.899   4.093  14.699  1.5966 -1.3973  2.4001
 4078TIP3   OH233724   2.951   1.015  15.010  0.1473 -0.2464  0.5043
 4078TIP3    H133725   2.862   0.995  15.039 -0.6917  1.2361 -0.9021
 4078TIP3    H233726   2.989   0.930  14.989 -1.2778 -0.8357  0.2239
 4079TIP3   OH233727   3.824   0.577   0.649 -0.6163  0.8867  0.2758
 4079TIP3    H133728   3.906   0.617   0.677 -0.1994 -0.7875  1.5150
 4079TIP3    H233729   3.851   0.498   0.601 -1.4896  0.4785  0.4486
 4080TIP3   OH233730   4.198   5.587  13.970  0.0789  0.1732  0.2776
 4080TIP3    H133731   4.213   5.681  13.978  1.0228  0.0186  0.3355
 4080TIP3    H233732   4.227   5.551  14.054  0.6444 -0.2839 -0.1100
 4081TIP3   OH233733   3.395   5.035   6.288  0.3225  0.3904  0.5897
 4081TIP3    H133734   3.358   5.053   6.202 -3.5470 -1.0392  1.8663
 4081TIP3    H233735   3.469   4.977   6.271 -1.1505 -0.8816 -1.6765
 4082TIP3   OH233736   3.829   5.699   0.338  0.5270 -0.0536  0.0527
 4082TIP3    H133737   3.780   5.653   0.270 -0.3986 -0.3622  0.9125
 4082TIP3    H233738   3.773   5.693   0.416  2.2977 -1.1773  1.2906
 4083TIP3   OH233739   2.399   0.781  11.496 -0.0250  0.1797 -0.3162
 4083TIP3    H133740   2.421   0.863  11.452  1.6486  0.0614  0.2783
 4083TIP3    H233741   2.310   0.794  11.529  1.0817  2.6084  1.7834
 4084TIP3   OH233742   0.646   1.254   4.947  0.2604  0.2157  0.5150
 4084TIP3    H133743   0.596   1.186   4.903 -1.1205  1.7374 -0.2915
 4084TIP3    H233744   0.584   1.294   5.008  1.5370 -0.3669  2.2363
 4085TIP3   OH233745   0.396   3.701   6.253  0.7269 -0.6315  0.1739
 4085TIP3    H133746   0.421   3.634   6.189 -1.8492  0.2276 -1.8483
 4085TIP3    H233747   0.345   3.653   6.318 -0.7436 -0.7747 -1.0395
 4086TIP3   OH233748   1.805   6.511   3.690 -0.4083  0.1239  0.2127
 4086TIP3    H133749   1.813   6.532   3.597  1.8929  1.2122  0.6162
 4086TIP3    H233750   1.861   6.435   3.703  0.2117  0.7002  0.9357
 4087TIP3   OH233751   6.655   6.016  13.275 -0.1749  0.1918  0.4584
 4087TIP3    H133752   6.570   6.010  13.233 -0.0271  1.4014 -0.0209
 4087TIP3    H233753   6.684   6.106  13.259  1.1421 -0.1765  0.7009
 4088TIP3   OH233754   3.253   4.163   6.302 -0.7047 -0.1282  0.1446
 4088TIP3    H133755   3.295   4.078   6.287 -1.0671 -0.4533  0.9802
 4088TIP3    H233756   3.322   4.227   6.282 -0.1334 -0.6319  0.4757
 4089TIP3   OH233757   1.513   0.119   3.035 -0.3225 -0.5348  0.3430
 4089TIP3    H133758   1.521   0.023   3.033  0.0679 -0.4955  0.1372
 4089TIP3    H233759   1.473   0.141   2.951  0.0044 -0.4762  0.2023
 4090TIP3   OH233760   5.149   0.621  13.051  0.3229 -0.2290 -0.5067
 4090TIP3    H133761   5.140   0.593  12.960  0.1948 -1.3735 -0.1455
 4090TIP3    H233762   5.059   0.621  13.085  0.5304 -1.3405  0.0627
 4091TIP3   OH233763   2.433   6.186   4.670 -1.0932  0.1447  0.4892
 4091TIP3    H133764   2.347   6.153   4.696 -0.9264 -1.1538 -0.5449
 4091TIP3    H233765   2.495   6.119   4.698 -0.5500  0.4652  0.0748
 4092TIP3   OH233766   3.171   3.765  15.589 -0.6583  0.0293 -0.4340
 4092TIP3    H133767   3.115   3.780  15.513 -0.8975 -1.0813 -0.4919
 4092TIP3    H233768   3.249   3.817  15.571 -2.0054  2.3054  0.0641
 4093TIP3   OH233769   3.925   0.894   1.310  0.2662 -0.2671 -0.2674
 4093TIP3    H133770   3.985   0.968   1.316  0.1326 -0.2031  0.3980
 4093TIP3    H233771   3.981   0.817   1.318  0.2368 -0.2024  0.6256
 4094TIP3   OH233772   2.723   2.004   1.212 -0.3926 -0.2313 -0.0034
 4094TIP3    H133773   2.693   2.029   1.299  0.6235  1.6390 -0.1619
 4094TIP3    H233774   2.643   1.994   1.161 -0.8564  4.0744 -0.2665
 4095TIP3   OH233775   4.739   5.880  16.761 -0.4051 -0.1288  0.0071
 4095TIP3    H133776   4.772   5.967  16.737  0.1385 -0.1225  0.7943
 4095TIP3    H233777   4.683   5.855  16.687 -0.0394  0.6075 -0.5218
 4096TIP3   OH233778   1.042   4.915  11.756 -0.1914  0.0923  0.0280
 4096TIP3    H133779   1.007   4.980  11.817 -1.6166 -0.2204 -0.4412
 4096TIP3    H233780   1.113   4.961  11.711  0.7601  0.3767  1.7756
 4097TIP3   OH233781   1.848   0.519  15.043 -0.1651  0.0313  0.2137
 4097TIP3    H133782   1.899   0.598  15.023  0.3627 -0.8572 -2.0588
 4097TIP3    H233783   1.896   0.448  15.000 -2.2063 -1.1069 -0.2363
 4098TIP3   OH233784   2.360   1.204   3.508  0.3751 -0.0155 -0.4015
 4098TIP3    H133785   2.321   1.243   3.430 -2.2054  0.7971  1.2083
 4098TIP3    H233786   2.362   1.110   3.491 -1.8633 -0.0258 -0.7674
 4099TIP3   OH233787   0.704   4.659  12.315 -0.2080  0.0575 -0.6793
 4099TIP3    H133788   0.694   4.730  12.379 -2.0602 -1.1385  0.4096
 4099TIP3    H233789   0.747   4.700  12.240 -0.3123  2.0827  0.3284
 4100TIP3   OH233790   2.966   3.720  12.738 -0.1654 -0.8011 -0.3600
 4100TIP3    H133791   2.988   3.628  12.754 -1.0674 -0.9326  0.1616
 4100TIP3    H233792   3.012   3.742  12.656  0.7533 -1.4591 -0.0245
 4101TIP3   OH233793   5.909   2.097   6.315  0.6069  0.0340  0.1428
 4101TIP3    H133794   5.823   2.115   6.352 -0.4435  0.5409 -2.4729
 4101TIP3    H233795   5.954   2.182   6.317  0.0176  0.3796 -1.0845
 4102TIP3   OH233796   1.628   3.521   3.864  0.0382 -0.1357 -0.1011
 4102TIP3    H133797   1.633   3.538   3.958  0.5870 -0.2311 -0.1134
 4102TIP3    H233798   1.571   3.445   3.856  2.5210 -2.1002  0.3732
 4103TIP3   OH233799   6.568   6.128   1.729  0.5073  0.2109 -0.1791
 4103TIP3    H133800   6.481   6.170   1.733 -0.3918 -1.5303 -0.8221
 4103TIP3    H233801   6.561   6.053   1.788  1.2492 -0.4996 -0.9794
 4104TIP3   OH233802   4.006   5.731   3.653 -0.0236  0.1597  0.2609
 4104TIP3    H133803   4.100   5.721   3.667  0.1856 -0.3409 -1.4236
 4104TIP3    H233804   3.999   5.799   3.586 -0.9503  1.4403  1.6113
 4105TIP3   OH233805   5.704   6.206   4.280 -0.0544 -0.2821  0.0383
 4105TIP3    H133806   5.710   6.181   4.188 -1.7473 -2.9516  0.6061
 4105TIP3    H233807   5.727   6.126   4.328 -1.4933  0.3976  1.9228
 4106TIP3   OH233808   3.258   0.377   4.067 -0.3243  0.1066 -0.0491
 4106TIP3    H133809   3.288   0.446   4.126  1.1835  0.3347 -1.0278
 4106TIP3    H233810   3.201   0.322   4.121 -2.3422  2.6389  0.4877
 4107TIP3   OH233811   0.767   5.720  15.912  0.2810  0.0536  0.2189
 4107TIP3    H133812   0.739   5.772  15.836  1.5363  0.1882 -0.1801
 4107TIP3    H233813   0.735   5.632  15.894 -0.3955  0.3240  0.0777
 4108TIP3   OH233814   3.589   0.204   2.595 -0.3049  0.3426 -0.1574
 4108TIP3    H133815   3.553   0.216   2.507  0.9312  1.0322 -0.5791
 4108TIP3    H233816   3.676   0.165   2.581  0.4518  1.6802  0.6883
 4109TIP3   OH233817   1.559   0.981  10.765  0.8531 -0.1085 -0.7107
 4109TIP3    H133818   1.542   1.002  10.673 -3.8236  2.4609  0.5589
 4109TIP3    H233819   1.479   0.939  10.795  3.0865 -2.7829  1.7397
 4110TIP3   OH233820   5.444   0.079  12.452  0.2244  0.3848  0.4462
 4110TIP3    H133821   5.501   0.119  12.386  0.7357  0.7536  1.1053
 4110TIP3    H233822   5.405   0.004  12.408 -0.9664  1.7783 -0.9135
 4111TIP3   OH233823   1.212   3.677   0.531 -0.6785  0.2664 -0.1729
 4111TIP3    H133824   1.166   3.730   0.466 -3.6411  1.7210  2.9649
 4111TIP3    H233825   1.147   3.659   0.598  1.5211 -3.5482  1.1150
 4112TIP3   OH233826   2.021   1.197   1.418 -0.2035 -0.4292 -0.3054
 4112TIP3    H133827   1.973   1.274   1.449  1.1700 -0.5880  2.3500
 4112TIP3    H233828   2.111   1.228   1.407  0.5234 -1.8505  1.5785
 4113TIP3   OH233829   0.303   5.693   2.214  0.0203  0.0842 -0.3030
 4113TIP3    H133830   0.232   5.662   2.158  0.2618 -0.3975 -0.3493
 4113TIP3    H233831   0.269   5.773   2.254  0.9332  2.0554 -3.3618
 4114TIP3   OH233832   3.286   2.032  15.543  0.4780  0.0202  0.3554
 4114TIP3    H133833   3.258   2.118  15.576  0.8018  0.3683 -0.2717
 4114TIP3    H233834   3.214   1.974  15.565 -0.6415  0.8595 -0.9884
 4115TIP3   OH233835   4.446   1.025   1.058 -0.0911  0.0603  0.4155
 4115TIP3    H133836   4.500   1.073   0.995  0.6871 -1.0740  0.2060
 4115TIP3    H233837   4.368   1.000   1.009 -0.2248  0.5926  0.3560
 4116TIP3   OH233838   2.203   5.834  12.660  0.2798 -0.5730  0.4900
 4116TIP3    H133839   2.144   5.893  12.706  1.5744  1.2077 -0.0869
 4116TIP3    H233840   2.154   5.804  12.584 -1.3237 -2.3313  2.1719
 4117TIP3   OH233841   5.741   5.437   4.627  0.5856 -0.6182  0.2447
 4117TIP3    H133842   5.776   5.366   4.573 -0.4211 -0.5106 -0.5675
 4117TIP3    H233843   5.656   5.404   4.658 -1.4570  1.4748 -2.8778
 4118TIP3   OH233844   1.536   2.636   1.433  0.1266 -0.4154  0.1277
 4118TIP3    H133845   1.483   2.600   1.362  0.9253 -0.5914 -0.3887
 4118TIP3    H233846   1.621   2.654   1.393  1.3103 -2.6122  1.5447
 4119TIP3   OH233847   6.563   5.916   5.031  0.3658  0.2474  0.2706
 4119TIP3    H133848   6.621   5.921   5.107  0.3139 -0.5145  0.3648
 4119TIP3    H233849   6.618   5.938   4.957  0.5184  0.5786  0.4796
 4120TIP3   OH233850   1.794   4.305   5.765 -0.1611  0.0594 -0.1222
 4120TIP3    H133851   1.724   4.293   5.830  0.6236 -0.6144  0.6011
 4120TIP3    H233852   1.773   4.242   5.696 -0.0678 -0.4020  0.2681
 4121TIP3   OH233853   6.762   5.782  14.836  0.3172 -0.0288 -0.2916
 4121TIP3    H133854   6.781   5.751  14.748  1.3881  0.0718 -0.1061
 4121TIP3    H233855   6.684   5.733  14.863  0.5216 -0.7125 -0.9412
 4122TIP3   OH233856   2.552   6.080  11.619 -0.1588 -0.3242  0.3836
 4122TIP3    H133857   2.566   6.063  11.712 -2.0693 -1.0107  0.5565
 4122TIP3    H233858   2.551   5.993  11.578 -3.4634 -0.3284  0.3404
 4123TIP3   OH233859   4.152   3.994   5.336  0.3990 -0.0226 -0.3443
 4123TIP3    H133860   4.073   3.945   5.314  1.0997 -1.6533  0.6785
 4123TIP3    H233861   4.130   4.085   5.315 -1.3265 -0.6079 -1.1902
 4124TIP3   OH233862   3.778   3.322   3.203 -0.0067 -0.1690  0.8352
 4124TIP3    H133863   3.848   3.257   3.197  0.9685  0.9842 -0.8538
 4124TIP3    H233864   3.779   3.365   3.117 -0.3441  2.3382  2.0449
 4125TIP3   OH233865   2.548   4.688   5.188 -0.0064  0.3565 -0.2212
 4125TIP3    H133866   2.559   4.721   5.277  1.7795 -1.1622  0.1500
 4125TIP3    H233867   2.581   4.598   5.191 -0.0809  0.2271 -2.3693
 4126TIP3   OH233868   0.143   6.644  14.003  0.2217 -0.2378 -0.3909
 4126TIP3    H133869   0.102   6.724  14.035  0.4480 -0.0887 -0.4703
 4126TIP3    H233870   0.217   6.630  14.062 -0.9225 -1.4358  0.7977
 4127TIP3   OH233871   3.736   5.453   3.806  0.6975 -0.1617  0.1635
 4127TIP3    H133872   3.808   5.391   3.814  2.3004  1.5939 -0.2401
 4127TIP3    H233873   3.681   5.436   3.882  2.2008 -0.7307  1.1489
 4128TIP3   OH233874   1.841   1.690  11.887 -0.3927 -0.3474 -0.1058
 4128TIP3    H133875   1.783   1.754  11.927 -1.9101 -1.0033 -1.2172
 4128TIP3    H233876   1.858   1.625  11.956  2.4572  2.0245  1.5448
 4129TIP3   OH233877   0.835   2.870  11.999  0.2194  1.0010  0.0530
 4129TIP3    H133878   0.859   2.921  11.922 -1.0599  1.9618  0.2602
 4129TIP3    H233879   0.751   2.908  12.028 -0.6091 -1.0155  0.4018
 4130TIP3   OH233880   0.630   1.474   2.857  0.2015 -0.1330  0.1478
 4130TIP3    H133881   0.695   1.422   2.905 -2.8928 -3.0133  1.3924
 4130TIP3    H233882   0.640   1.563   2.891  1.9789 -0.9787  1.9226
 4131TIP3   OH233883   2.223   2.399   3.081 -0.1049  0.8463  0.3732
 4131TIP3    H133884   2.203   2.316   3.038  0.3793  0.3674  1.0658
 4131TIP3    H233885   2.155   2.459   3.050  0.1474  0.4704 -0.9385
 4132TIP3   OH233886   5.003   1.914  12.176 -0.2224 -0.4221  0.5347
 4132TIP3    H133887   4.964   1.896  12.091  0.6588 -0.8244  0.2080
 4132TIP3    H233888   5.072   1.978  12.159  0.2481 -0.8287  0.8726
 4133TIP3   OH233889   5.756   3.003  16.592  0.2294 -0.3215 -0.2856
 4133TIP3    H133890   5.821   2.974  16.655 -0.2628 -0.2959  0.2369
 4133TIP3    H233891   5.674   2.965  16.623 -0.4919  1.9064  0.5993
 4134TIP3   OH233892   6.573   5.853   3.047 -0.0214  0.0663  0.2962
 4134TIP3    H133893   6.481   5.877   3.060  0.4050  1.6711  0.4079
 4134TIP3    H233894   6.619   5.936   3.042  1.4598 -0.7362  0.4010
 4135TIP3   OH233895   2.381   6.763  16.449 -0.2385  0.1136 -0.2114
 4135TIP3    H133896   2.459   6.804  16.487 -1.1846  0.2578  1.5981
 4135TIP3    H233897   2.311   6.827  16.461 -0.8704 -0.4544 -0.8549
 4136TIP3   OH233898   6.602   5.850   3.694  0.0530 -0.1013 -1.0144
 4136TIP3    H133899   6.607   5.940   3.726 -1.1444  0.4362 -2.2888
 4136TIP3    H233900   6.639   5.854   3.606  2.1299 -1.3162 -0.2259
 4137TIP3   OH233901   6.179   5.518   0.308  0.1635  0.3923  0.7694
 4137TIP3    H133902   6.154   5.428   0.283  0.7488 -0.2536  2.4517
 4137TIP3    H233903   6.108   5.547   0.365  0.9389  0.2489  1.8320
 4138TIP3   OH233904   0.986   2.756  16.793  0.5961 -0.2041 -0.2719
 4138TIP3    H133905   0.974   2.801  16.710  1.0494  1.5389  0.5830
 4138TIP3    H233906   0.902   2.764  16.838  0.0505 -1.9638 -0.9168
 4139TIP3   OH233907   4.687   6.602  16.944  0.7686  0.6243 -0.5301
 4139TIP3    H133908   4.752   6.572  16.880  0.1059  0.9244 -1.3558
 4139TIP3    H233909   4.631   6.525  16.958  1.7794  0.1122  0.8094
 4140TIP3   OH233910   5.048   5.377   0.113 -0.4173 -0.5225  0.3116
 4140TIP3    H133911   5.078   5.333   0.034 -0.7708  2.3910 -1.5183
 4140TIP3    H233912   4.956   5.398   0.095  0.4616  3.3106 -0.0037
 4141TIP3   OH233913   3.624   2.603  11.728 -0.4096  0.0598 -0.7510
 4141TIP3    H133914   3.703   2.653  11.710 -0.2930  0.2757  0.3370
 4141TIP3    H233915   3.651   2.536  11.791 -0.3279 -2.0519 -2.9668
 4142TIP3   OH233916   2.066   0.694  12.292  0.7550  0.5259 -0.2715
 4142TIP3    H133917   2.161   0.699  12.295  0.7344  0.5298  0.7418
 4142TIP3    H233918   2.042   0.655  12.376 -0.1133  0.1179 -0.7048
 4143TIP3   OH233919   0.857   0.875  14.534  0.0228  0.3423  0.2254
 4143TIP3    H133920   0.809   0.792  14.535 -2.1926  1.6037  0.5301
 4143TIP3    H233921   0.884   0.886  14.443 -0.5544 -0.2085 -0.0127
 4144TIP3   OH233922   5.473   4.291  11.021 -0.2596 -0.2866 -0.7679
 4144TIP3    H133923   5.474   4.323  10.931 -1.3514  1.1180 -0.3111
 4144TIP3    H233924   5.385   4.254  11.033  0.1851 -1.2857 -0.5540
 4145TIP3   OH233925   0.299   1.006  13.955  0.0492 -0.8583  0.0512
 4145TIP3    H133926   0.313   1.100  13.944  1.0150 -1.0496 -0.3882
 4145TIP3    H233927   0.279   0.975  13.867 -3.0718 -0.6260  0.6136
 4146TIP3   OH233928   3.872   3.177   4.127 -1.0602 -0.1185  0.2842
 4146TIP3    H133929   3.942   3.123   4.090 -0.9350  0.9681 -1.1121
 4146TIP3    H233930   3.918   3.253   4.163 -1.2562 -0.8082  2.0397
 4147TIP3   OH233931   0.825   6.015   4.619  0.1486 -0.2382  0.3683
 4147TIP3    H133932   0.881   6.091   4.635 -0.5362 -0.0550  2.0334
 4147TIP3    H233933   0.886   5.946   4.593  0.6258  1.2648 -2.6891
 4148TIP3   OH233934   3.926   0.891   0.038 -0.1987 -0.2576  0.2946
 4148TIP3    H133935   3.999   0.861  -0.016 -2.0652 -0.1320 -2.4164
 4148TIP3    H233936   3.880   0.810   0.063 -1.0302 -0.1630 -0.8607
 4149TIP3   OH233937   4.435   5.522  13.212  0.5308  0.0052 -0.1959
 4149TIP3    H133938   4.462   5.518  13.303 -1.5712  0.2341  0.4692
 4149TIP3    H233939   4.453   5.612  13.185 -0.4396  0.4329  0.5416
 4150TIP3   OH233940   3.812   2.656   3.683  0.2471  0.5837 -0.4274
 4150TIP3    H133941   3.870   2.580   3.687  1.0861  1.0201 -3.2719
 4150TIP3    H233942   3.872   2.732   3.681 -0.4266  1.0862 -2.2650
 4151TIP3   OH233943   0.337   3.698  16.912  0.1959 -0.2729  0.0669
 4151TIP3    H133944   0.377   3.734  16.991  1.1488 -0.5935 -0.2677
 4151TIP3    H233945   0.258   3.752  16.899  0.8803  0.8048  0.3340
 4152TIP3   OH233946   2.082   0.080   1.844 -0.0816 -0.9491  0.1531
 4152TIP3    H133947   2.163   0.130   1.844 -0.7127  0.0865  1.1556
 4152TIP3    H233948   2.041   0.099   1.759 -0.0868 -0.1423  0.3374
 4153TIP3   OH233949   4.278   3.230  15.068  0.3539  0.5220  0.2343
 4153TIP3    H133950   4.214   3.167  15.036  0.7554  0.4957 -0.5201
 4153TIP3    H233951   4.347   3.176  15.106  1.0532  0.4769 -1.0807
 4154TIP3   OH233952   0.482   2.020   3.750 -0.7154 -0.5233 -0.1446
 4154TIP3    H133953   0.492   1.989   3.841 -1.4702 -2.1428 -0.5851
 4154TIP3    H233954   0.391   2.002   3.729 -0.9524  1.2983 -0.7273
 4155TIP3   OH233955   6.192   0.670  17.102  0.1325  0.9584 -0.2402
 4155TIP3    H133956   6.120   0.625  17.059  1.7384 -0.7917 -1.1362
 4155TIP3    H233957   6.262   0.605  17.108  1.3488  2.3488  1.4200
 4156TIP3   OH233958   0.192   0.639   5.584 -0.2819 -0.0507  0.1429
 4156TIP3    H133959   0.137   0.713   5.559  0.6140  0.7729  0.5742
 4156TIP3    H233960   0.278   0.678   5.603 -0.3151 -0.9170  2.2858
 4157TIP3   OH233961   0.879   1.207   3.920  0.6074 -0.6347 -0.0532
 4157TIP3    H133962   0.797   1.159   3.936  0.3980  0.3844  2.2250
 4157TIP3    H233963   0.948   1.149   3.952  0.4991 -0.2270  0.9561
 4158TIP3   OH233964   1.398   0.677  10.807 -0.2175  0.2761 -0.2879
 4158TIP3    H133965   1.367   0.766  10.824 -0.6665 -0.0957  0.8801
 4158TIP3    H233966   1.366   0.657  10.719  0.2507  1.4260 -0.7281
 4159TIP3   OH233967   1.511   2.847  16.128  0.2417 -0.0051 -0.3251
 4159TIP3    H133968   1.441   2.852  16.063  0.2139 -1.8430 -0.4477
 4159TIP3    H233969   1.466   2.841  16.212  0.2705  3.2409  0.0007
 4160TIP3   OH233970   2.006   2.020   0.137 -0.0684 -0.3306 -0.5431
 4160TIP3    H133971   1.954   1.994   0.213 -0.7485  0.3274 -0.7758
 4160TIP3    H233972   1.954   2.088   0.094  0.6698 -0.1406 -1.1595
 4161TIP3   OH233973   4.072   1.704   2.388 -0.2543  0.2066  0.4300
 4161TIP3    H133974   4.081   1.675   2.297 -0.4632  0.5048  0.3131
 4161TIP3    H233975   4.068   1.623   2.438 -1.0651  0.0245  0.0816
 4162TIP3   OH233976   5.558   6.537  12.921 -0.1246 -0.4642  0.5739
 4162TIP3    H133977   5.636   6.593  12.915  0.1009 -0.5271  2.4836
 4162TIP3    H233978   5.576   6.463  12.864  1.3381 -0.5932  1.1912
 4163TIP3   OH233979   4.798   0.972  11.825 -0.5194  0.3019  0.0580
 4163TIP3    H133980   4.802   1.066  11.809  0.4842  0.6438  2.0998
 4163TIP3    H233981   4.765   0.964  11.914  2.4413 -1.1224  1.1146
 4164TIP3   OH233982   5.174   4.096  17.285 -0.3900 -0.3606 -0.0455
 4164TIP3    H133983   5.133   4.182  17.294 -0.2785 -0.4085  1.0488
 4164TIP3    H233984   5.210   4.095  17.197 -0.4817  0.6832 -0.0958
 4165TIP3   OH233985   3.618   4.487   0.178 -0.1819  0.2479 -0.0321
 4165TIP3    H133986   3.686   4.502   0.243  1.3000 -1.6519 -1.0614
 4165TIP3    H233987   3.581   4.573   0.160 -0.5165  0.8148  3.1698
 4166TIP3   OH233988   6.371   1.417  11.753  0.3966  0.3139  0.1546
 4166TIP3    H133989   6.443   1.479  11.763 -0.5002  1.2030  1.2007
 4166TIP3    H233990   6.292   1.469  11.765 -0.4585 -0.5535 -1.4665
 4167TIP3   OH233991   6.653   5.037   0.910  0.0770  0.0047 -0.3288
 4167TIP3    H133992   6.735   5.043   0.959  0.7543 -0.1223 -1.4371
 4167TIP3    H233993   6.597   4.980   0.963  0.4740  0.5931  0.7382
 4168TIP3   OH233994   5.377   1.095   3.981 -0.6853  0.1731 -0.3214
 4168TIP3    H133995   5.427   1.074   3.902  2.6615 -1.5700  2.1852
 4168TIP3    H233996   5.439   1.138   4.039 -3.0401  1.2672  1.4682
 4169TIP3   OH233997   1.640   3.197  13.630 -0.6218 -0.4664 -0.3232
 4169TIP3    H133998   1.729   3.211  13.599  0.2694  0.2434  2.4405
 4169TIP3    H233999   1.588   3.187  13.550  1.5656  1.2821 -2.0086
 4170TIP3   OH234000   4.041   3.536  13.384  0.0665  0.4073 -0.1885
 4170TIP3    H134001   4.002   3.449  13.390 -1.7476  1.3039  1.4449
 4170TIP3    H234002   3.995   3.578  13.311  1.1198 -0.0577 -1.1448
 4171TIP3   OH234003   2.817   2.574   2.589 -0.1352  0.3315  0.0193
 4171TIP3    H134004   2.865   2.493   2.607 -1.3495 -0.1670  1.1270
 4171TIP3    H234005   2.874   2.643   2.622 -0.5177 -0.3033  2.0621
 4172TIP3   OH234006   0.252   4.281  15.460 -0.0486 -0.0242  0.2971
 4172TIP3    H134007   0.259   4.356  15.400  0.0875 -0.7884 -0.6443
 4172TIP3    H234008   0.180   4.229  15.424 -0.8194  0.1698  1.5346
 4173TIP3   OH234009   3.091   5.001  11.483  0.0272  0.1093 -0.6422
 4173TIP3    H134010   3.081   5.040  11.396 -0.6591 -0.7375 -0.9496
 4173TIP3    H234011   3.147   4.925  11.468 -0.1791 -0.0968 -0.3608
 4174TIP3   OH234012   4.104   5.171   0.964 -0.4567  0.0803 -0.1850
 4174TIP3    H134013   4.057   5.090   0.987 -1.4806  0.0349 -2.3714
 4174TIP3    H234014   4.051   5.211   0.895  0.1513  2.5413  0.7296
 4175TIP3   OH234015   4.138   6.381   1.713  0.0271  0.2109 -0.2410
 4175TIP3    H134016   4.072   6.311   1.718 -0.8369  1.1451  2.5304
 4175TIP3    H234017   4.197   6.363   1.786  0.1035  2.0860  0.1727
 4176TIP3   OH234018   5.928   4.688   1.699  0.1492 -0.0585  0.3414
 4176TIP3    H134019   5.999   4.744   1.669  0.8865  0.1726  2.4385
 4176TIP3    H234020   5.902   4.639   1.621 -0.4345  3.0581 -1.5299
 4177TIP3   OH234021   5.298   4.621  16.646  0.3264 -0.0393  0.3807
 4177TIP3    H134022   5.214   4.667  16.655 -0.2494 -1.3814  2.0505
 4177TIP3    H234023   5.337   4.658  16.567 -1.0112  1.9082  0.6065
 4178TIP3   OH234024   3.050   3.164   3.517  0.6708 -0.2881 -0.0928
 4178TIP3    H134025   3.138   3.152   3.551  1.1425  0.0626 -1.1719
 4178TIP3    H234026   3.000   3.197   3.592  0.8928 -2.5855  1.1507
 4179TIP3   OH234027   0.283   4.075   5.369 -0.0339 -0.4019 -0.3198
 4179TIP3    H134028   0.347   4.076   5.439 -0.3247 -0.2071 -0.0554
 4179TIP3    H234029   0.242   3.988   5.375 -0.7065 -0.0378  0.3407
 4180TIP3   OH234030   0.435   3.061   0.124  0.1608 -0.8834 -0.2307
 4180TIP3    H134031   0.480   3.136   0.163 -0.7764 -0.6475  0.4062
 4180TIP3    H234032   0.502   3.018   0.071  0.9851 -0.2007  0.2439
 4181TIP3   OH234033   0.635   0.671  16.426 -0.4259  0.4247 -0.2636
 4181TIP3    H134034   0.550   0.657  16.469 -0.4057  2.2804  0.4000
 4181TIP3    H234035   0.672   0.747  16.470  2.1130 -1.0217  0.1966
 4182TIP3   OH234036   5.917   6.459   2.220 -0.1648  0.1894 -0.0138
 4182TIP3    H134037   5.937   6.549   2.245 -0.9849  0.3850 -0.0303
 4182TIP3    H234038   5.828   6.445   2.252  0.2481 -0.8873  0.7084
 4183TIP3   OH234039   2.220   4.263  13.758 -0.2011 -0.6731 -0.0750
 4183TIP3    H134040   2.162   4.198  13.798 -0.7970  0.1339  0.3722
 4183TIP3    H234041   2.238   4.326  13.828 -0.8325  0.4674 -0.9265
 4184TIP3   OH234042   5.875   2.716  16.670 -0.1577  0.4667 -0.2629
 4184TIP3    H134043   5.933   2.735  16.744 -3.1473  1.9977  1.7636
 4184TIP3    H234044   5.788   2.711  16.708 -1.5162 -0.8874 -3.3917
 4185TIP3   OH234045   0.154   1.842  16.273 -0.0057  0.1714  0.3092
 4185TIP3    H134046   0.200   1.865  16.192 -0.0441  0.4953  0.3788
 4185TIP3    H234047   0.066   1.877  16.262 -0.1634 -0.2321  0.2786
 4186TIP3   OH234048   1.815   5.019   1.477 -0.2972  0.4116  0.1589
 4186TIP3    H134049   1.895   5.010   1.425 -0.4678  0.1252 -0.0582
 4186TIP3    H234050   1.744   4.997   1.416 -0.4643 -0.3925  0.6309
 4187TIP3   OH234051   0.637   5.411  13.532 -0.0118  0.5285 -0.4070
 4187TIP3    H134052   0.714   5.405  13.589  0.5749  1.6493 -1.0748
 4187TIP3    H234053   0.666   5.374  13.448 -0.5042  0.0483 -0.3752
 4188TIP3   OH234054   4.384   0.252  16.190  0.2032 -0.1430 -0.5142
 4188TIP3    H134055   4.374   0.299  16.273 -2.6074  1.5496 -1.7583
 4188TIP3    H234056   4.474   0.220  16.192  1.6734  3.7464  1.1974
 4189TIP3   OH234057   3.966   3.648   2.710 -0.1207  0.3746 -0.0205
 4189TIP3    H134058   4.035   3.695   2.662 -0.0860 -0.1728 -0.5099
 4189TIP3    H234059   4.007   3.625   2.793  0.1502  0.4222 -0.1387
 4190TIP3   OH234060   3.144   3.381  15.521 -0.1093 -0.2529 -0.1102
 4190TIP3    H134061   3.215   3.426  15.567 -0.5151  0.4401 -0.1688
 4190TIP3    H234062   3.189   3.330  15.453  0.6132 -2.1865  1.7348
 4191TIP3   OH234063   6.409   5.471  13.530 -0.3722 -0.7839  0.4311
 4191TIP3    H134064   6.430   5.378  13.518 -0.1618 -0.4671 -1.9064
 4191TIP3    H234065   6.495   5.513  13.539 -0.3296 -0.5186 -1.0484
 4192TIP3   OH234066   4.575   4.223   3.191 -0.0423 -0.1018 -0.1585
 4192TIP3    H134067   4.502   4.165   3.213 -0.7060 -0.0984 -2.3160
 4192TIP3    H234068   4.542   4.277   3.120  1.1711  1.7503  0.6460
 4193TIP3   OH234069   3.349   2.972   3.509  0.2582 -0.4257 -0.4493
 4193TIP3    H134070   3.436   3.008   3.489  0.3902 -0.5074 -0.0371
 4193TIP3    H234071   3.310   3.037   3.568 -0.5273  0.3220 -1.7762
 4194TIP3   OH234072   3.905   1.120  16.416 -0.1309 -0.0850 -0.0020
 4194TIP3    H134073   3.860   1.055  16.469 -0.1387 -0.5266 -0.5500
 4194TIP3    H234074   3.988   1.135  16.461 -0.0416 -0.6240  0.0101
 4195TIP3   OH234075   4.858   5.407   4.315  0.2590  0.0538  0.1731
 4195TIP3    H134076   4.813   5.402   4.400  1.1215 -2.0370  0.5403
 4195TIP3    H234077   4.797   5.454   4.258 -0.7185  0.6861  1.7048
 4196TIP3   OH234078   5.003   5.293   0.680 -0.4066 -0.0904 -0.3333
 4196TIP3    H134079   4.957   5.227   0.731 -0.3166  0.2297  0.1643
 4196TIP3    H234080   4.935   5.331   0.624 -0.8282  0.6171  0.6389
 4197TIP3   OH234081   4.081   5.360   3.732 -0.3050  0.7065 -0.2604
 4197TIP3    H134082   4.175   5.342   3.739 -0.3780  0.8156  1.2537
 4197TIP3    H234083   4.067   5.377   3.639  1.0777  0.1600 -0.5889
 4198TIP3   OH234084   6.067   1.178   5.269 -0.0876  0.0393 -0.6074
 4198TIP3    H134085   6.048   1.121   5.343 -0.3185 -0.2239 -0.8660
 4198TIP3    H234086   6.057   1.121   5.192 -0.3357  0.4326 -0.8680
 4199TIP3   OH234087   0.260   3.141   4.791 -0.3881  0.0321 -0.2251
 4199TIP3    H134088   0.316   3.194   4.848 -1.2825  2.0970 -1.2114
 4199TIP3    H234089   0.305   3.141   4.707 -1.4230  1.0149 -0.7971
 4200TIP3   OH234090   5.870   6.756   3.128  0.2231 -0.5022 -0.1651
 4200TIP3    H134091   5.834   6.788   3.211 -0.1057  1.2407 -0.9537
 4200TIP3    H234092   5.804   6.780   3.063  1.3910 -0.0504 -1.2056
 4201TIP3   OH234093   1.392   4.818   2.771 -0.2316  0.2661 -0.3989
 4201TIP3    H134094   1.337   4.771   2.708  0.3947 -0.3428 -0.5035
 4201TIP3    H234095   1.481   4.808   2.736  0.1344 -0.1789  0.6517
 4202TIP3   OH234096   6.364   0.653  14.958  1.1125 -0.3472 -0.1265
 4202TIP3    H134097   6.361   0.700  15.042  0.7209  1.2382 -1.0108
 4202TIP3    H234098   6.284   0.601  14.957  0.6721  0.3136  0.1015
 4203TIP3   OH234099   4.843   4.909  15.885  1.0211 -0.0866  0.5181
 4203TIP3    H134100   4.782   4.948  15.822  2.4248  2.7613  0.8018
 4203TIP3    H234101   4.789   4.858  15.944 -0.6628 -0.3763 -1.2203
 4204TIP3   OH234102   3.027   5.925   5.308 -1.0110  0.0208  0.5750
 4204TIP3    H134103   2.990   5.974   5.381  1.8641  0.2819  1.9142
 4204TIP3    H234104   3.027   5.834   5.338  0.8278  0.2156  1.2297
 4205TIP3   OH234105   4.112   5.117  14.449 -0.2813 -0.2505 -0.5737
 4205TIP3    H134106   4.158   5.117  14.365  0.0780 -0.0918 -0.3777
 4205TIP3    H234107   4.047   5.187  14.441  0.1083  0.1202 -0.5295
 4206TIP3   OH234108   0.630   6.444   5.471 -0.7498  0.5481 -0.3019
 4206TIP3    H134109   0.653   6.485   5.554 -0.1433  0.1655 -0.2743
 4206TIP3    H234110   0.541   6.474   5.453 -1.0729  0.2170  0.7333
 4207TIP3   OH234111   2.966   3.440  15.745 -0.2537  0.1443 -0.2136
 4207TIP3    H134112   3.030   3.413  15.812 -2.0140  1.2707  1.9733
 4207TIP3    H234113   3.018   3.446  15.665  1.9532 -1.1331  1.0397
 4208TIP3   OH234114   5.080   4.829  13.289 -0.0105  0.5001 -0.7360
 4208TIP3    H134115   5.032   4.754  13.254  0.3239 -0.2209  0.3282
 4208TIP3    H234116   5.128   4.864  13.214  1.5004 -1.6314 -0.8111
 4209TIP3   OH234117   2.741   3.233  13.401 -0.1680 -0.3561 -0.5653
 4209TIP3    H134118   2.686   3.299  13.358  0.2743  1.8863  2.2169
 4209TIP3    H234119   2.706   3.227  13.490  2.3615 -0.9045  0.4187
 4210TIP3   OH234120   4.826   1.037   2.552 -0.4551  0.1108 -0.0220
 4210TIP3    H134121   4.907   1.079   2.523  0.1227 -0.6543  0.4750
 4210TIP3    H234122   4.757   1.097   2.524  0.2346  0.4079 -1.1112
 4211TIP3   OH234123   6.267   6.485  13.172  0.8432  0.4518  0.5473
 4211TIP3    H134124   6.274   6.397  13.133  0.2242  1.0479 -0.9358
 4211TIP3    H234125   6.356   6.520  13.166  0.4485  1.1260 -1.7854
 4212TIP3   OH234126   1.530   3.490   0.945  0.0789 -0.4689  0.1849
 4212TIP3    H134127   1.475   3.497   1.023 -0.4464  0.1228 -0.2320
 4212TIP3    H234128   1.514   3.403   0.911 -1.1544 -0.0440 -0.3392
 4213TIP3   OH234129   5.118   5.365   4.898  0.4910 -0.7232 -0.2034
 4213TIP3    H134130   5.055   5.351   4.827 -0.9131  1.1331  0.6416
 4213TIP3    H234131   5.177   5.289   4.893 -2.4642 -3.0834 -0.2943
 4214TIP3   OH234132   3.974   2.144  12.729 -0.1357  0.0009 -0.2896
 4214TIP3    H134133   4.017   2.125  12.646  2.5446  0.6848  0.9120
 4214TIP3    H234134   3.903   2.204  12.706  0.0721 -0.4451 -2.1680
 4215TIP3   OH234135   6.545   5.240   5.116 -0.8159 -0.6610 -0.1906
 4215TIP3    H134136   6.539   5.316   5.058  2.7463 -1.9270 -2.3956
 4215TIP3    H234137   6.638   5.237   5.140 -1.7460 -1.7437  3.4976
 4216TIP3   OH234138   1.095   4.029   2.694  0.1873 -0.3871  0.1567
 4216TIP3    H134139   1.017   3.990   2.655  0.8255 -1.4950 -0.0054
 4216TIP3    H234140   1.080   4.124   2.687 -0.8428 -0.5934 -0.4686
 4217TIP3   OH234141   2.662   4.405   3.704 -0.4055 -0.5562 -0.5691
 4217TIP3    H134142   2.674   4.423   3.798  0.7663 -0.5776 -0.7142
 4217TIP3    H234143   2.675   4.310   3.696  0.8407 -0.3666 -0.9493
 4218TIP3   OH234144   0.668   3.839   1.060  0.4182 -0.5299 -0.0074
 4218TIP3    H134145   0.631   3.925   1.037  0.6830 -0.4201 -0.0191
 4218TIP3    H234146   0.594   3.791   1.097  0.4416 -0.0486  0.6688
 4219TIP3   OH234147   6.339   2.639   2.247  0.1185  0.3388  0.2073
 4219TIP3    H134148   6.250   2.671   2.264  0.1359  0.6182 -0.2109
 4219TIP3    H234149   6.340   2.551   2.283 -0.5514  0.0640 -0.4184
 4220TIP3   OH234150   5.955   5.627   0.142  0.5576 -0.5787 -0.1829
 4220TIP3    H134151   5.926   5.676   0.219 -0.5927  0.3781 -1.1936
 4220TIP3    H234152   6.051   5.632   0.144  0.5000  0.2519  0.6692
 4221TIP3   OH234153   5.361   6.477  15.913 -0.2724 -0.1488  0.1418
 4221TIP3    H134154   5.424   6.404  15.909 -0.2626 -0.0761 -1.2522
 4221TIP3    H234155   5.414   6.553  15.936  0.0265 -0.2157 -0.3308
 4222TIP3   OH234156   1.098   5.286   5.183 -0.5153 -0.5153  0.0798
 4222TIP3    H134157   1.039   5.261   5.254 -0.6842  1.0206  0.4931
 4222TIP3    H234158   1.065   5.371   5.153  2.5134  1.2828  1.5378
 4223TIP3   OH234159   0.105   4.373  15.713 -0.4901  0.2637  0.3100
 4223TIP3    H134160   0.093   4.278  15.703  0.7275  0.0039  1.2018
 4223TIP3    H234161   0.137   4.384  15.802 -1.0745  1.5737  0.3744
 4224TIP3   OH234162   1.297   3.669  17.060  0.1468 -0.4614  0.0927
 4224TIP3    H134163   1.213   3.656  17.017  0.5219  1.2512 -1.2068
 4224TIP3    H234164   1.282   3.742  17.120  0.9358  0.5045 -0.8625
 4225TIP3   OH234165   1.639   5.241   6.118  0.0670 -0.2090 -0.0031
 4225TIP3    H134166   1.565   5.233   6.058 -0.2772 -1.2578  0.5413
 4225TIP3    H234167   1.621   5.177   6.187  2.0326 -1.2888 -0.4542
 4226TIP3   OH234168   5.102   0.589   1.680 -0.1073 -0.2069  0.1150
 4226TIP3    H134169   5.129   0.630   1.597 -1.0490 -1.6667 -0.9369
 4226TIP3    H234170   5.029   0.642   1.711  2.1254  2.1227  1.5674
 4227TIP3   OH234171   2.202   0.818   3.424  0.0725  0.6342 -0.2866
 4227TIP3    H134172   2.283   0.864   3.448  1.4086 -1.3068 -0.9915
 4227TIP3    H234173   2.156   0.807   3.506  0.0740  2.5485  0.0099
 4228TIP3   OH234174   6.512   2.250   6.504 -0.1377  0.1763  0.1118
 4228TIP3    H134175   6.595   2.207   6.521 -0.3393  0.3782  1.6266
 4228TIP3    H234176   6.453   2.179   6.479  0.3867 -0.0033 -0.6637
 4229TIP3   OH234177   4.039   2.157   0.293  0.2151 -0.1285 -0.1585
 4229TIP3    H134178   3.987   2.220   0.343 -2.7586 -1.7829 -1.0858
 4229TIP3    H234179   4.051   2.198   0.208 -0.5711 -0.2030 -0.3125
 4230TIP3   OH234180   6.243   1.616  17.143  0.0122  0.0778 -0.6138
 4230TIP3    H134181   6.216   1.653  17.227  1.3564 -1.2128  0.4249
 4230TIP3    H234182   6.243   1.690  17.082 -0.3298  1.1617  0.6849
 4231TIP3   OH234183   6.266   5.884   1.990 -0.1653  0.1213 -0.5763
 4231TIP3    H134184   6.222   5.799   1.999  0.3721 -0.2407 -1.3313
 4231TIP3    H234185   6.312   5.878   1.906  1.2282  0.5305  0.1412
 4232TIP3   OH234186   2.156   4.642  13.803 -0.2699  0.1734  0.1893
 4232TIP3    H134187   2.216   4.640  13.877  1.3481  0.3504 -1.0713
 4232TIP3    H234188   2.154   4.734  13.776  0.5217 -0.1569 -1.0450
 4233TIP3   OH234189   3.842   3.199   4.833 -0.0042  0.2784 -0.6086
 4233TIP3    H134190   3.927   3.243   4.836 -0.5948  1.3537  2.6423
 4233TIP3    H234191   3.778   3.269   4.843 -1.1477 -0.8308 -0.0697
 4234TIP3   OH234192   4.422   0.622  16.508  0.1955 -0.5022  0.6210
 4234TIP3    H134193   4.447   0.696  16.453  0.7460 -0.4740  0.9056
 4234TIP3    H234194   4.476   0.631  16.586  0.2010 -1.1615  0.6966
 4235TIP3   OH234195   5.862   5.646  14.671  0.1282  0.4840  0.0510
 4235TIP3    H134196   5.940   5.594  14.691  0.2251  0.5784 -0.0742
 4235TIP3    H234197   5.858   5.711  14.741  0.8298  1.2146 -0.5725
 4236TIP3   OH234198   4.213   3.684   4.027  0.1124  0.8173  0.3905
 4236TIP3    H134199   4.290   3.629   4.038 -0.2648  0.3284  0.6261
 4236TIP3    H234200   4.158   3.636   3.964 -1.3179 -0.3078  2.4009
 4237TIP3   OH234201   1.965   3.945   4.664 -0.4408 -0.2262  0.3893
 4237TIP3    H134202   1.921   3.901   4.591 -2.9686  1.3241  0.9274
 4237TIP3    H234203   1.949   3.889   4.739  1.7637 -1.5833 -0.1182
 4238TIP3   OH234204   0.680   1.074  13.775  0.0044 -0.3329  0.0817
 4238TIP3    H134205   0.765   1.114  13.756  1.0166 -3.0850 -1.4381
 4238TIP3    H234206   0.691   1.032  13.860 -0.4897  0.9824  0.8141
 4239TIP3   OH234207   3.149   1.001   5.134  0.3660  0.0124 -0.5504
 4239TIP3    H134208   3.237   0.970   5.158 -0.4657  0.0037  2.7554
 4239TIP3    H234209   3.165   1.086   5.094  1.9792 -0.4580 -0.9620
 4240TIP3   OH234210   0.814   0.334   3.595  0.1042 -0.9761  0.0094
 4240TIP3    H134211   0.849   0.422   3.577 -3.7440  0.6067 -0.2073
 4240TIP3    H234212   0.844   0.315   3.684  1.1735  0.4442 -0.0156
 4241TIP3   OH234213   6.425   4.883  12.579 -0.5355 -0.4825  0.2666
 4241TIP3    H134214   6.490   4.950  12.602  0.5350 -0.7897 -1.8017
 4241TIP3    H234215   6.453   4.805  12.627  0.8425 -0.7048 -0.8549
 4242TIP3   OH234216   4.157   1.736   0.332 -0.4214 -0.0064  0.1858
 4242TIP3    H134217   4.223   1.798   0.302 -0.3212  0.0291  0.4779
 4242TIP3    H234218   4.208   1.663   0.368 -0.5408 -0.0944  0.1750
 4243TIP3   OH234219   2.973   1.935  16.360  0.1906 -0.2432  0.3625
 4243TIP3    H134220   3.001   1.850  16.393  0.9035 -0.0873  0.1494
 4243TIP3    H234221   2.966   1.990  16.439  0.7521 -0.2004  0.3796
 4244TIP3   OH234222   1.347   4.849  11.819  0.5422  0.5542  0.0875
 4244TIP3    H134223   1.399   4.868  11.897  1.1761  1.5519 -0.5686
 4244TIP3    H234224   1.356   4.927  11.765 -0.6095  0.2194 -0.6053
 4245TIP3   OH234225   4.671   1.809  12.936 -0.0474 -0.0167 -0.0146
 4245TIP3    H134226   4.623   1.853  12.867 -0.3286 -2.0434 -1.1460
 4245TIP3    H234227   4.605   1.756  12.981  0.5962 -0.6674  0.1792
 4246TIP3   OH234228   1.675   1.350  13.911  0.2516 -0.1469  0.3226
 4246TIP3    H134229   1.656   1.319  13.822 -0.2108 -0.9204  0.6839
 4246TIP3    H234230   1.597   1.400  13.936  1.0608  1.4880 -0.3198
 4247TIP3   OH234231   5.844   6.571  16.961 -0.2409  0.6462  0.4192
 4247TIP3    H134232   5.895   6.539  17.036  1.1412 -0.0074 -0.7772
 4247TIP3    H234233   5.756   6.584  16.996  0.1394 -0.6255  1.9204
 4248TIP3   OH234234   5.585   4.075  16.571 -0.8029 -0.2559 -0.2685
 4248TIP3    H134235   5.678   4.055  16.582 -0.9631 -0.3343  1.0298
 4248TIP3    H234236   5.550   3.999  16.524  0.0298  0.3605 -1.9247
 4249TIP3   OH234237   5.337   2.686   1.907 -0.5934  0.5407  0.8012
 4249TIP3    H134238   5.291   2.603   1.915 -0.4328  0.2832 -0.8121
 4249TIP3    H234239   5.277   2.742   1.857  0.3057  0.6149 -0.2024
 4250TIP3   OH234240   6.138   5.913   5.171 -0.3683  0.0335  0.0366
 4250TIP3    H134241   6.155   5.983   5.235  1.5049 -1.1481  0.8598
 4250TIP3    H234242   6.193   5.935   5.096  1.8691 -1.6682  1.1377
 4251TIP3   OH234243   0.019   6.239   2.079  0.5785 -0.0736  0.5457
 4251TIP3    H134244   0.020   6.311   2.142  0.8887 -0.4999  1.0244
 4251TIP3    H234245  -0.045   6.267   2.013 -0.2971  0.0421  1.4265
 4252TIP3   OH234246   5.209   4.452  11.835  0.6459 -0.0482  0.4271
 4252TIP3    H134247   5.260   4.514  11.784  0.8029 -0.1978  0.4022
 4252TIP3    H234248   5.147   4.414  11.773  2.1783 -1.7249 -0.1262
 4253TIP3   OH234249   1.023   2.498  13.153  0.1922  0.1672 -0.2164
 4253TIP3    H134250   0.966   2.432  13.193 -0.6806  0.4870 -0.9135
 4253TIP3    H234251   1.111   2.476  13.185 -0.1153 -1.1773 -0.2597
 4254TIP3   OH234252   0.455   1.015   4.940 -0.4474  0.2245  0.1051
 4254TIP3    H134253   0.408   0.934   4.924 -1.4802  0.8251  0.0735
 4254TIP3    H234254   0.391   1.073   4.982  1.1361 -0.0682  3.1197
 4255TIP3   OH234255   4.586   4.287  15.709  0.1001  0.4931  0.4852
 4255TIP3    H134256   4.653   4.246  15.764  0.3908  1.0099  0.5239
 4255TIP3    H234257   4.505   4.278  15.758  0.2654  0.4757  0.7541
 4256TIP3   OH234258   6.452   4.090   2.667  0.4128  0.5330  0.3537
 4256TIP3    H134259   6.474   4.166   2.614 -0.3222  0.0240 -0.6900
 4256TIP3    H234260   6.529   4.033   2.662 -0.9236 -1.1137 -3.0513
 4257TIP3   OH234261   5.446   1.669  15.781  0.0896  0.1482 -0.2792
 4257TIP3    H134262   5.445   1.575  15.761  0.7067  0.2438 -0.7911
 4257TIP3    H234263   5.448   1.711  15.695  0.8248  0.6077 -0.0422
 4258TIP3   OH234264   3.095   3.104  10.588 -0.1483 -0.6052  0.3222
 4258TIP3    H134265   3.001   3.107  10.606 -0.8050  2.2225 -3.1311
 4258TIP3    H234266   3.104   3.048  10.512  0.7160  0.7265 -0.5789
 4259TIP3   OH234267   0.576   3.683   5.634 -0.2697 -0.0519 -0.1374
 4259TIP3    H134268   0.524   3.732   5.698 -3.1811 -0.9547 -1.7140
 4259TIP3    H234269   0.583   3.595   5.670  2.5719  0.7310  1.3612
 4260TIP3   OH234270   3.460   5.333   0.305 -0.2035 -0.3757  0.1452
 4260TIP3    H134271   3.556   5.340   0.303 -0.2505  0.3056  0.0176
 4260TIP3    H234272   3.430   5.416   0.267 -0.8498 -0.3534  0.7012
 4261TIP3   OH234273   2.144   5.747  12.965 -0.4084 -0.1378  0.6464
 4261TIP3    H134274   2.089   5.669  12.967  0.2319 -0.6160 -0.0897
 4261TIP3    H234275   2.195   5.738  12.885 -1.1582  1.6113 -0.0435
 4262TIP3   OH234276   3.858   4.809   3.474 -0.5908 -0.3581 -0.4584
 4262TIP3    H134277   3.931   4.869   3.485 -0.6480 -0.1820 -1.0345
 4262TIP3    H234278   3.898   4.722   3.475 -0.6314 -0.3710  1.4876
 4263TIP3   OH234279   2.035   3.687  11.236  0.1491 -0.5578 -0.2216
 4263TIP3    H134280   2.000   3.600  11.219 -0.1233 -0.3272 -0.8707
 4263TIP3    H234281   1.974   3.725  11.299  0.3367 -0.8788  0.1554
 4264TIP3   OH234282   6.656   3.222   1.535  0.6210 -0.3999  0.1832
 4264TIP3    H134283   6.615   3.237   1.620 -1.6830 -0.0716 -0.9394
 4264TIP3    H234284   6.750   3.226   1.552  0.1826 -0.1808  2.6735
 4265TIP3   OH234285   5.142   1.310  14.306  0.0426  0.3076 -0.6141
 4265TIP3    H134286   5.183   1.363  14.237 -1.1288  1.4079 -0.4980
 4265TIP3    H234287   5.098   1.239  14.259  0.6637  0.0846 -0.8637
 4266TIP3   OH234288   1.488   4.418  17.216 -0.0967  0.2392 -0.4144
 4266TIP3    H134289   1.503   4.399  17.123 -1.2837 -1.2273 -0.3184
 4266TIP3    H234290   1.394   4.433  17.223  0.0286  0.6277  0.5139
 4267TIP3   OH234291   0.651   0.133   0.240 -0.0576 -0.4126 -0.1989
 4267TIP3    H134292   0.624   0.159   0.328 -0.7753 -1.4714 -0.1078
 4267TIP3    H234293   0.604   0.193   0.182  0.8566  0.6623  0.1530
 4268TIP3   OH234294   5.743   0.845   2.274  0.2050 -0.3098  0.0776
 4268TIP3    H134295   5.811   0.890   2.324  2.0784 -2.0325 -0.8348
 4268TIP3    H234296   5.680   0.913   2.253  1.9806  1.4866  0.4071
 4269TIP3   OH234297   6.756   5.276   1.917 -0.0289  0.2979 -0.5776
 4269TIP3    H134298   6.834   5.295   1.970 -0.0340  0.9523 -0.8109
 4269TIP3    H234299   6.790   5.262   1.828  0.3138 -3.4291  0.0333
 4270TIP3   OH234300   6.063   0.958   2.006  0.3728 -0.3458 -0.0913
 4270TIP3    H134301   6.143   1.011   2.004  0.2836 -0.1414  1.6373
 4270TIP3    H234302   6.092   0.870   2.029  0.3268 -0.7381 -1.4530
 4271TIP3   OH234303   5.462   3.035   4.611  0.5233 -0.0832  0.1211
 4271TIP3    H134304   5.520   3.060   4.540  1.3921  1.2217  1.2729
 4271TIP3    H234305   5.394   3.103   4.612 -1.2319 -1.7549 -1.4069
 4272TIP3   OH234306   2.795   4.847   2.835 -0.3167  0.1021 -0.1103
 4272TIP3    H134307   2.714   4.799   2.854 -0.7858  0.4650 -1.1674
 4272TIP3    H234308   2.865   4.784   2.852 -0.6801  0.3924  2.8318
 4273TIP3   OH234309   6.178   1.773   3.600 -0.2993  0.7886 -0.0736
 4273TIP3    H134310   6.269   1.748   3.613 -0.6294  0.5411  2.0852
 4273TIP3    H234311   6.145   1.711   3.535  0.3493 -0.9670  1.2134
 4274TIP3   OH234312   6.007   5.532   0.522 -0.7382  0.1120  0.1175
 4274TIP3    H134313   5.955   5.560   0.597 -0.8325 -3.2026  1.3972
 4274TIP3    H234314   5.995   5.437   0.520 -1.5417  0.2072 -4.7295
 4275TIP3   OH234315   0.718   0.077   6.632 -0.7221  0.2089 -0.3392
 4275TIP3    H134316   0.627   0.053   6.614 -0.9292  0.3476  0.4615
 4275TIP3    H234317   0.741   0.025   6.709 -0.4789  0.9605  0.1080
 4276TIP3   OH234318   5.514   4.952   6.012  0.1866 -0.1870  0.6406
 4276TIP3    H134319   5.509   4.908   6.097  0.8140 -3.2567 -0.8143
 4276TIP3    H234320   5.601   4.991   6.011 -0.2569  0.8682  1.8514
 4277TIP3   OH234321   2.425   5.112   0.249 -0.5013  0.1733 -0.1575
 4277TIP3    H134322   2.448   5.079   0.336  0.4197  1.8550  0.2397
 4277TIP3    H234323   2.398   5.203   0.263 -0.3817  0.4548 -1.6279
 4278TIP3   OH234324   2.185   3.518  14.841 -0.1405 -0.0488 -0.0547
 4278TIP3    H134325   2.147   3.471  14.767 -2.0992  0.2155  0.7575
 4278TIP3    H234326   2.224   3.450  14.896 -0.9096 -0.5121 -0.0718
 4279TIP3   OH234327   4.231   1.185   1.571  0.2805 -0.0125 -0.0321
 4279TIP3    H134328   4.316   1.200   1.611 -0.0618 -0.6944  0.9562
 4279TIP3    H234329   4.173   1.248   1.614  0.5767  1.5018 -1.7640
 4280TIP3   OH234330   5.650   1.615   7.035 -0.1458 -0.2226  0.1044
 4280TIP3    H134331   5.713   1.677   7.073 -0.0483 -0.5962  0.5487
 4280TIP3    H234332   5.582   1.606   7.102 -0.9783  0.6329 -0.6044
 4281TIP3   OH234333   2.806   3.003  10.641  0.0075  0.4004  0.1050
 4281TIP3    H134334   2.710   2.996  10.647  0.0645  0.2312  0.8773
 4281TIP3    H234335   2.821   3.044  10.556 -0.9266  3.8509  1.4878
 4282TIP3   OH234336   1.352   6.786   5.876  0.0104  0.2010 -0.3280
 4282TIP3    H134337   1.372   6.861   5.932 -0.8871 -0.0288  0.3135
 4282TIP3    H234338   1.328   6.825   5.792 -0.6464  0.6421  0.0619
 4283TIP3   OH234339   4.743   5.366   4.578  0.0528 -0.0855  0.0062
 4283TIP3    H134340   4.715   5.438   4.636 -0.4505  0.9117 -1.4481
 4283TIP3    H234341   4.662   5.323   4.552  0.2580 -0.3346 -0.2203
 4284TIP3   OH234342   1.107   2.760  14.990 -0.2718  0.3340  0.0750
 4284TIP3    H134343   1.047   2.694  14.957 -1.0415  0.1955  1.7235
 4284TIP3    H234344   1.194   2.721  14.978 -0.4751  0.5388 -2.3114
 4285TIP3   OH234345   1.256   0.145   1.613  0.3573  0.2995 -0.3010
 4285TIP3    H134346   1.172   0.148   1.568 -0.8483  0.8873  1.8969
 4285TIP3    H234347   1.292   0.233   1.603  0.7401  0.0305 -1.2964
 4286TIP3   OH234348   4.242   2.749   2.450 -0.0547 -0.1693  0.2281
 4286TIP3    H134349   4.331   2.716   2.460  0.2564  0.7890  0.8028
 4286TIP3    H234350   4.203   2.695   2.383  0.8536 -0.8356  0.2270
 4287TIP3   OH234351   0.554   1.222  13.975 -0.2324  0.2072  0.0128
 4287TIP3    H134352   0.482   1.284  13.963 -1.5101 -1.4792 -1.2432
 4287TIP3    H234353   0.560   1.176  13.891  0.9547 -1.0928  0.8007
 4288TIP3   OH234354   3.537   1.126   4.420  0.6263  0.4788 -0.4165
 4288TIP3    H134355   3.553   1.040   4.382  1.1840  0.3233  0.1575
 4288TIP3    H234356   3.583   1.187   4.362 -0.4777  0.4783 -1.2979
 4289TIP3   OH234357   3.051   6.497   2.674  0.4168  0.1472 -0.4045
 4289TIP3    H134358   3.039   6.442   2.596  2.0984  0.4523 -0.8951
 4289TIP3    H234359   2.966   6.538   2.687 -0.8164 -2.3621 -0.1640
 4290TIP3   OH234360   6.791   5.738   3.244  0.2555 -0.6837  0.1697
 4290TIP3    H134361   6.864   5.730   3.182 -0.7710 -2.5908 -0.8084
 4290TIP3    H234362   6.731   5.800   3.203  1.3914  1.1161  1.1065
 4291TIP3   OH234363   6.366   0.141  12.930  0.4104  0.0595 -0.7373
 4291TIP3    H134364   6.301   0.204  12.961  0.3393 -1.0235  1.3880
 4291TIP3    H234365   6.392   0.174  12.844  0.8631  3.3053  0.5974
 4292TIP3   OH234366   0.844   2.109   6.296 -0.4098 -0.1661 -0.5325
 4292TIP3    H134367   0.912   2.061   6.343 -0.3524  0.9581  0.5398
 4292TIP3    H234368   0.766   2.054   6.303  0.2317 -1.2045 -1.3076
 4293TIP3   OH234369   6.538   4.897   0.173  0.1450  0.0488  0.1878
 4293TIP3    H134370   6.500   4.812   0.155 -1.1609  1.0117 -1.8388
 4293TIP3    H234371   6.632   4.881   0.179  0.2030 -1.1395 -2.9954
 4294TIP3   OH234372   4.420   5.065  14.481 -0.8109 -0.2712  0.3196
 4294TIP3    H134373   4.430   4.984  14.431 -2.3174 -0.0971 -0.2911
 4294TIP3    H234374   4.496   5.118  14.457  0.0865 -1.4049  0.5806
 4295TIP3   OH234375   4.468   0.313  13.178 -0.3318  0.1088  0.0792
 4295TIP3    H134376   4.441   0.226  13.208  1.1307 -0.1414  0.7312
 4295TIP3    H234377   4.387   0.364  13.176 -0.9038 -0.6959  1.7176
 4296TIP3   OH234378   4.377   4.624  17.222 -0.1224  0.5639 -0.6079
 4296TIP3    H134379   4.453   4.566  17.215  0.4065  1.1739 -0.0885
 4296TIP3    H234380   4.407   4.695  17.281 -2.0195 -0.6628  1.9241
 4297TIP3   OH234381   1.914   5.869  14.071  0.2196  0.5100 -0.1066
 4297TIP3    H134382   1.850   5.812  14.028  0.9909  0.3823 -1.0895
 4297TIP3    H234383   1.930   5.939  14.007 -0.1437  1.4220  0.7886
 4298TIP3   OH234384   1.874   0.974   2.700 -0.4990 -0.0925 -0.1900
 4298TIP3    H134385   1.852   0.885   2.673 -0.0429 -0.6733  1.3109
 4298TIP3    H234386   1.958   0.966   2.744  0.3816  1.3549 -1.5566
 4299TIP3   OH234387   6.703   2.188  12.651  0.6846 -0.2205 -0.1634
 4299TIP3    H134388   6.666   2.260  12.703  1.8745 -0.0787  0.5006
 4299TIP3    H234389   6.643   2.115  12.667  1.5364 -0.4505  2.1848
 4300TIP3   OH234390   5.247   3.072  13.591  1.0456 -0.2484  0.0278
 4300TIP3    H134391   5.315   3.019  13.633  2.0529  2.0021  1.3492
 4300TIP3    H234392   5.292   3.113  13.517  0.9693  0.6485  0.4621
 4301TIP3   OH234393   5.630   4.215  14.304  0.0272 -0.0545  0.2344
 4301TIP3    H134394   5.545   4.202  14.346 -0.2270 -0.0930 -0.2903
 4301TIP3    H234395   5.612   4.213  14.210  0.4321  1.0745  0.1199
 4302TIP3   OH234396   3.795   3.261   2.828  0.0581 -0.0308 -1.0664
 4302TIP3    H134397   3.718   3.270   2.772 -2.2878  1.2303  2.1981
 4302TIP3    H234398   3.794   3.170   2.856 -1.4781  0.4569  0.5627
 4303TIP3   OH234399   0.815   6.811  11.866  0.2444 -0.1863  0.3353
 4303TIP3    H134400   0.835   6.736  11.810  1.3791  0.1586  0.2780
 4303TIP3    H234401   0.854   6.886  11.821  1.4725  0.0497  1.7484
 4304TIP3   OH234402   2.456   0.980  13.250 -0.1852  0.3385 -0.1080
 4304TIP3    H134403   2.498   1.065  13.262  0.9693 -0.2371 -0.0850
 4304TIP3    H234404   2.382   0.981  13.311  0.1763  1.0849  0.3185
 4305TIP3   OH234405   1.522   1.943  15.796 -0.2498 -0.1315 -0.1812
 4305TIP3    H134406   1.439   1.949  15.749 -0.6956  2.6857  0.8871
 4305TIP3    H234407   1.505   1.881  15.868 -0.9522 -0.7634 -0.8894
 4306TIP3   OH234408   4.551   6.644  15.796 -0.4110 -0.0776 -0.0555
 4306TIP3    H134409   4.580   6.680  15.713  0.3507 -0.6588 -0.0496
 4306TIP3    H234410   4.524   6.554  15.775 -5.4307  1.4583 -0.7092
 4307TIP3   OH234411   3.153   2.482  11.868  0.0045  0.5538 -0.0307
 4307TIP3    H134412   3.086   2.530  11.916  0.0336  0.0541  0.5164
 4307TIP3    H234413   3.203   2.550  11.822 -2.0791  0.8277 -2.0523
 4308TIP3   OH234414   1.764   0.586   4.865  0.2821 -0.0367  0.8548
 4308TIP3    H134415   1.807   0.586   4.950  0.3941  1.7995  0.8315
 4308TIP3    H234416   1.822   0.534   4.809 -0.1291 -1.8115  2.0261
 4309TIP3   OH234417   4.274   0.332  11.495  0.2035  0.6561  0.0311
 4309TIP3    H134418   4.305   0.242  11.485  0.5170  0.6007  1.4709
 4309TIP3    H234419   4.180   0.322  11.509  0.0935  0.6152 -0.6967
 4310TIP3   OH234420   3.740   0.739  13.980 -0.2472 -0.1069  0.1975
 4310TIP3    H134421   3.705   0.682  14.048  0.8009 -0.0809  0.7730
 4310TIP3    H234422   3.805   0.686  13.935  0.4508  0.5052  0.4803
 4311TIP3   OH234423   3.791   6.570  15.900  0.0873 -0.4845 -0.0776
 4311TIP3    H134424   3.874   6.581  15.947 -0.4122 -2.7057  1.3862
 4311TIP3    H234425   3.805   6.494  15.844 -1.2198 -1.4388  0.8501
 4312TIP3   OH234426   6.739   4.347   6.094  0.3147  0.2273  0.1040
 4312TIP3    H134427   6.822   4.381   6.063  0.3851  0.5024  0.5948
 4312TIP3    H234428   6.674   4.411   6.064  0.2434 -0.1296 -0.5202
 4313TIP3   OH234429   4.173   5.333   3.247 -0.3582  0.2196 -0.3986
 4313TIP3    H134430   4.190   5.353   3.155 -1.1175  2.8159  0.0055
 4313TIP3    H234431   4.257   5.344   3.291 -0.4799  1.1923 -0.4107
 4314TIP3   OH234432   0.113   2.161   5.916  0.0695 -0.5019  0.0204
 4314TIP3    H134433   0.054   2.232   5.891  0.8339 -0.2475 -1.1160
 4314TIP3    H234434   0.068   2.081   5.887  0.0037 -0.3501 -0.3013
 4315TIP3   OH234435   2.356   6.734  13.690 -0.2419  0.1426 -0.2905
 4315TIP3    H134436   2.326   6.682  13.616 -0.8989  1.1005 -0.7063
 4315TIP3    H234437   2.277   6.780  13.720  0.4189  1.2653 -0.2335
 4316TIP3   OH234438   2.906   4.842   5.244  0.1899 -0.4539  0.4138
 4316TIP3    H134439   2.968   4.886   5.302 -0.5001 -0.7607  1.3987
 4316TIP3    H234440   2.833   4.817   5.301 -1.6206  1.3697 -1.0484
 4317TIP3   OH234441   1.135   2.734   2.996  0.5568  0.0888 -0.2281
 4317TIP3    H134442   1.100   2.661   2.944 -0.7224  0.1299  0.5484
 4317TIP3    H234443   1.223   2.705   3.021  1.5191  0.4055 -3.0536
 4318TIP3   OH234444   0.903   4.911  13.716 -0.6890 -0.2452  0.8106
 4318TIP3    H134445   0.957   4.936  13.792 -1.0356 -0.8162  1.2449
 4318TIP3    H234446   0.965   4.870  13.656 -0.0698  1.7438  0.0227
 4319TIP3   OH234447   4.735   4.282  16.729  0.1583 -0.2872 -0.0028
 4319TIP3    H134448   4.770   4.353  16.783 -2.7374  1.2318 -0.0173
 4319TIP3    H234449   4.659   4.250  16.778 -1.6670  0.1685 -2.4320
 4320TIP3   OH234450   0.339   6.030   5.556  0.0190 -0.2530  0.2511
 4320TIP3    H134451   0.351   5.936   5.570  0.3025  0.0459  2.0814
 4320TIP3    H234452   0.299   6.062   5.637 -1.0162  1.0461 -0.7412
 4321TIP3   OH234453   0.148   2.061  13.409  0.6916  0.1213 -0.2191
 4321TIP3    H134454   0.111   2.149  13.398  0.6867  0.0089 -1.1793
 4321TIP3    H234455   0.072   2.007  13.432  0.5500  0.2135 -0.4642
 4322TIP3   OH234456   1.652   1.199  14.613 -0.3448 -0.1491 -0.0769
 4322TIP3    H134457   1.667   1.277  14.666 -2.6798 -0.0980  0.6017
 4322TIP3    H234458   1.600   1.141  14.670 -2.2370 -0.4301 -1.9973
 4323TIP3   OH234459   1.143   6.794   6.586  0.1316  0.2523  0.2116
 4323TIP3    H134460   1.199   6.872   6.583 -2.0904  1.9411  0.9612
 4323TIP3    H234461   1.120   6.785   6.678  0.4035 -1.3505  0.1327
 4324TIP3   OH234462   5.230   1.051   1.788  0.1783 -0.1566 -0.4325
 4324TIP3    H134463   5.197   0.999   1.861  2.1767  0.5758  1.0600
 4324TIP3    H234464   5.307   1.003   1.757  0.0080  0.1317 -1.3240
 4325TIP3   OH234465   6.267   4.111   4.390  0.1068 -0.4579 -0.0906
 4325TIP3    H134466   6.260   4.021   4.357  0.2157  0.1939 -1.9513
 4325TIP3    H234467   6.293   4.101   4.481 -2.0894 -2.3602  0.3575
 4326TIP3   OH234468   5.589   6.633   2.707  0.5333  0.1251  1.0861
 4326TIP3    H134469   5.527   6.623   2.634  3.6900  0.9649 -1.8117
 4326TIP3    H234470   5.610   6.544   2.733 -1.7938 -0.1806  2.0895
 4327TIP3   OH234471   2.685   5.470  15.870  0.4075  0.0676  0.9929
 4327TIP3    H134472   2.758   5.527  15.895  2.4259 -2.1384  0.3226
 4327TIP3    H234473   2.644   5.515  15.796  1.7753  0.8171  0.6605
 4328TIP3   OH234474   1.152   6.236   6.986  0.4813  0.1011  0.0444
 4328TIP3    H134475   1.168   6.177   6.913  0.1386 -0.9577  0.8154
 4328TIP3    H234476   1.211   6.310   6.971  1.6903 -0.9391 -0.3582
 4329TIP3   OH234477   4.421   5.159  16.801 -0.0978  0.6609  0.5444
 4329TIP3    H134478   4.476   5.169  16.879 -0.9578  1.2476  1.0751
 4329TIP3    H234479   4.444   5.072  16.767 -0.8421 -0.2564  2.3281
 4330TIP3   OH234480   4.413   0.571  16.847  0.0421  0.4847 -0.2531
 4330TIP3    H134481   4.480   0.513  16.810 -1.0431 -0.3923 -0.8784
 4330TIP3    H234482   4.343   0.512  16.875 -0.7095  1.4300 -0.1100
 4331TIP3   OH234483   1.230   1.944   4.563  0.4620  0.0328 -0.1139
 4331TIP3    H134484   1.211   1.878   4.496 -2.7588 -1.5297  2.1915
 4331TIP3    H234485   1.156   2.004   4.559 -0.4925 -0.8638  2.9019
 4332TIP3   OH234486   5.123   2.594  11.471  0.0102 -0.4153 -0.2172
 4332TIP3    H134487   5.161   2.675  11.505 -0.9701 -0.3448  0.7563
 4332TIP3    H234488   5.198   2.543  11.440  0.7222  0.4468  0.0587
 4333TIP3   OH234489   1.701   1.620   1.215 -0.4203  0.9210 -0.2433
 4333TIP3    H134490   1.674   1.666   1.294 -0.4003  0.7605 -0.1417
 4333TIP3    H234491   1.621   1.607   1.166 -0.0863  3.3213 -1.4840
 4334TIP3   OH234492   1.248   4.776   0.246 -0.4393  0.5041  0.4035
 4334TIP3    H134493   1.230   4.713   0.316  1.3269 -0.3000  0.1759
 4334TIP3    H234494   1.306   4.840   0.287  1.0597 -0.2815 -0.4372
 4335TIP3   OH234495   0.423   5.965  11.155 -0.3281 -0.6441  0.7556
 4335TIP3    H134496   0.488   5.976  11.085  1.3193 -1.3425  2.1273
 4335TIP3    H234497   0.358   5.906  11.118  0.0963 -0.3720 -0.4703
 4336TIP3   OH234498   4.354   0.466   2.845 -0.4569 -0.6266 -0.0948
 4336TIP3    H134499   4.295   0.484   2.918  0.9767 -0.3349  1.0361
 4336TIP3    H234500   4.387   0.552   2.820 -3.9160 -0.2263 -3.7624
 4337TIP3   OH234501   2.108   4.616  15.089 -0.1795 -0.5908  0.2934
 4337TIP3    H134502   2.183   4.672  15.107 -0.3234 -0.0319 -0.7869
 4337TIP3    H234503   2.045   4.673  15.045 -0.0649 -1.7219 -1.4162
 4338TIP3   OH234504   4.177   6.592   4.780  0.2101 -0.4564 -0.1189
 4338TIP3    H134505   4.171   6.649   4.704  2.5794 -0.1765 -0.1185
 4338TIP3    H234506   4.190   6.504   4.744 -0.4482 -0.5908 -0.0484
 4339TIP3   OH234507   4.375   4.691   2.136  0.4355  0.7118  0.2346
 4339TIP3    H134508   4.412   4.712   2.222  2.4348  1.0451 -0.6977
 4339TIP3    H234509   4.322   4.767   2.113 -1.6987 -0.1707  2.0039
 4340TIP3   OH234510   1.778   3.480  14.758  0.0821  0.0296 -0.5108
 4340TIP3    H134511   1.757   3.518  14.844  1.2141  0.3108 -0.3508
 4340TIP3    H234512   1.701   3.498  14.705 -0.5640  0.0002  0.4029
 4341TIP3   OH234513   5.121   4.516  12.777  0.5703  0.0456 -0.3812
 4341TIP3    H134514   5.093   4.562  12.698  0.2655  0.6812  0.0948
 4341TIP3    H234515   5.151   4.586  12.836  2.6494 -0.5648 -0.6762
 4342TIP3   OH234516   4.661   5.764   1.582 -0.3082 -0.5403 -0.2249
 4342TIP3    H134517   4.583   5.745   1.530  0.0545 -1.0742 -0.5689
 4342TIP3    H234518   4.654   5.704   1.657 -1.0767  0.5603  0.5919
 4343TIP3   OH234519   1.481   1.807   1.883  0.0189  0.8198  0.3604
 4343TIP3    H134520   1.407   1.760   1.922  0.0531  0.2178 -0.2959
 4343TIP3    H234521   1.557   1.775   1.931 -0.1982  1.8689  1.4338
 4344TIP3   OH234522   2.496   6.251  11.890  0.1327 -0.4412  0.2078
 4344TIP3    H134523   2.479   6.202  11.971 -1.1167 -0.4952 -0.0754
 4344TIP3    H234524   2.424   6.226  11.832 -0.5253  1.7188  0.0521
 4345TIP3   OH234525   5.854   0.889  16.260  0.1793  0.2000 -0.2617
 4345TIP3    H134526   5.876   0.827  16.329 -0.7104 -3.6750 -3.2967
 4345TIP3    H234527   5.760   0.902  16.268  0.2978  0.8325  0.1138
 4346TIP3   OH234528   5.689   0.016   6.497  0.2890 -0.1420  0.1402
 4346TIP3    H134529   5.706   0.029   6.590  0.3750  2.5001 -0.1962
 4346TIP3    H234530   5.676   0.105   6.462 -2.8538 -1.2899 -1.7963
 4347TIP3   OH234531   2.404   0.150   1.923  0.2486 -0.3874 -0.2207
 4347TIP3    H134532   2.346   0.125   1.996 -1.1029  0.6406 -0.8990
 4347TIP3    H234533   2.492   0.141   1.958 -0.3865  0.4329  1.6903
 4348TIP3   OH234534   4.973   6.443  16.303  0.3181  0.2440  0.5629
 4348TIP3    H134535   4.997   6.487  16.221  1.8409 -0.1726  0.7551
 4348TIP3    H234536   5.040   6.375  16.313 -0.4601 -0.3769  1.6333
 4349TIP3   OH234537   1.799   4.813  11.218 -0.5473  0.2564 -0.4939
 4349TIP3    H134538   1.738   4.767  11.161 -0.1288 -0.4520 -0.3816
 4349TIP3    H234539   1.745   4.867  11.275 -1.0559 -0.2344 -0.5128
 4350TIP3   OH234540   1.516   3.768   5.266 -0.3063  0.1314 -0.2815
 4350TIP3    H134541   1.520   3.847   5.212  1.4487 -0.1168 -0.5420
 4350TIP3    H234542   1.603   3.760   5.304 -1.7376  0.7508  3.3288
 4351TIP3   OH234543   0.269   1.033   4.192  0.2755  0.3789 -0.4325
 4351TIP3    H134544   0.227   0.973   4.254  0.1523 -0.7436 -1.5885
 4351TIP3    H234545   0.341   1.072   4.242 -0.3899  0.1886  0.6983
 4352TIP3   OH234546   2.746   5.133  16.568 -0.6757 -0.3266 -0.1711
 4352TIP3    H134547   2.825   5.100  16.526  0.5292  1.3698  0.7489
 4352TIP3    H234548   2.674   5.099  16.514  0.6964 -1.1807 -1.4819
 4353TIP3   OH234549   3.181   1.125  13.051  0.0804  0.2912 -0.0240
 4353TIP3    H134550   3.254   1.157  12.999 -1.7946  1.9675 -1.7105
 4353TIP3    H234551   3.119   1.090  12.986 -0.8944 -0.5344  1.3248
 4354TIP3   OH234552   5.249   4.391  12.388 -0.2960  0.6102  0.1038
 4354TIP3    H134553   5.196   4.456  12.436 -0.5132 -0.3064  1.1283
 4354TIP3    H234554   5.225   4.404  12.297 -1.9449  0.5491  0.5062
 4355TIP3   OH234555   3.390   4.124   0.657  0.5219  0.0417 -0.1888
 4355TIP3    H134556   3.328   4.180   0.703  1.8270  0.9127  0.5310
 4355TIP3    H234557   3.476   4.154   0.686  1.3348 -0.1907 -2.2900
 4356TIP3   OH234558   4.326   4.064  13.859 -0.1558  0.9450  0.1852
 4356TIP3    H134559   4.278   4.014  13.793 -0.2601  1.2140  0.0550
 4356TIP3    H234560   4.265   4.072  13.932  1.3534 -2.8578  1.9984
 4357TIP3   OH234561   2.990   0.718   3.186  0.1555 -0.5429 -0.5393
 4357TIP3    H134562   2.939   0.740   3.108  0.8246  0.5212 -0.6939
 4357TIP3    H234563   2.925   0.706   3.255 -0.2651  2.3990 -0.3445
 4358TIP3   OH234564   3.360   5.893   2.821  0.2242  0.2284 -0.1690
 4358TIP3    H134565   3.302   5.909   2.746 -1.4113  0.3191  1.0878
 4358TIP3    H234566   3.375   5.980   2.859  0.6978  0.1288 -0.1208
 4359TIP3   OH234567   0.287   2.499   3.571  0.1490 -0.2199 -0.0799
 4359TIP3    H134568   0.209   2.527   3.522 -0.0001 -0.3415  0.0846
 4359TIP3    H234569   0.356   2.559   3.543 -0.4621  1.0662  1.1584
 4360TIP3   OH234570   3.389   3.350   6.211 -0.7993  0.3470  0.5188
 4360TIP3    H134571   3.304   3.359   6.254 -1.1469 -1.4268  0.2494
 4360TIP3    H234572   3.451   3.387   6.273 -1.5022 -0.5759  1.8054
 4361TIP3   OH234573   1.567   4.592   5.542  0.6553 -0.7136  0.2543
 4361TIP3    H134574   1.661   4.598   5.558  0.8944  1.3742 -1.6812
 4361TIP3    H234575   1.533   4.680   5.559 -0.7608 -1.1795 -0.0739
 4362TIP3   OH234576   1.002   6.446  13.046 -0.0366  0.4215  0.2260
 4362TIP3    H134577   1.093   6.471  13.060 -0.2630  0.8846  0.8655
 4362TIP3    H234578   0.991   6.366  13.097 -0.5086  1.4068  1.6760
 4363TIP3   OH234579   4.055   6.470   5.413  0.6336  0.0050  0.6485
 4363TIP3    H134580   4.058   6.565   5.402 -0.6996 -0.1179 -0.9267
 4363TIP3    H234581   4.042   6.437   5.324 -0.9584 -1.5578  1.4555
 4364TIP3   OH234582   6.532   6.229   3.179  0.3087 -0.4514 -0.4799
 4364TIP3    H134583   6.535   6.133   3.186 -1.6095 -0.3863  1.8381
 4364TIP3    H234584   6.552   6.260   3.268  0.2853  1.2892 -1.0679
 4365TIP3   OH234585   4.026   5.177   5.896 -0.3989 -0.0809 -0.2705
 4365TIP3    H134586   4.024   5.139   5.808  0.7461  1.0526 -0.8113
 4365TIP3    H234587   3.950   5.236   5.898 -1.8170 -1.8944  0.3577
 4366TIP3   OH234588   0.938   6.122  15.754 -0.3617 -0.1206  0.4366
 4366TIP3    H134589   0.940   6.070  15.673 -0.5366  1.2572 -0.4691
 4366TIP3    H234590   0.950   6.212  15.724  1.4594  0.2220  2.1392
 4367TIP3   OH234591   6.746   0.594   3.598  0.2552 -0.4613 -0.0208
 4367TIP3    H134592   6.728   0.502   3.617  0.3827 -0.0943  2.0000
 4367TIP3    H234593   6.700   0.642   3.667 -2.3301  1.1701 -2.7555
 4368TIP3   OH234594   4.951   5.466  12.158  0.1981 -0.4203 -0.7113
 4368TIP3    H134595   4.956   5.546  12.105  0.3490 -0.3589 -0.6058
 4368TIP3    H234596   5.004   5.485  12.235 -2.5900  0.6459  0.9991
 4369TIP3   OH234597   5.711   0.459   5.475 -0.4440 -0.2352 -0.0337
 4369TIP3    H134598   5.626   0.503   5.476 -2.1265 -3.3219 -1.6017
 4369TIP3    H234599   5.727   0.437   5.567 -1.3480  0.3871  0.2774
 4370TIP3   OH234600   6.573   6.034  12.208 -0.1435 -0.0969 -0.4380
 4370TIP3    H134601   6.556   6.049  12.115 -0.8957  1.3915 -0.0795
 4370TIP3    H234602   6.514   6.095  12.253 -0.2479 -1.2530  1.0251
 4371TIP3   OH234603   0.037   0.311   3.925 -0.2291 -0.1163  0.3500
 4371TIP3    H134604  -0.043   0.326   3.875  0.2257 -1.9098 -0.9761
 4371TIP3    H234605   0.010   0.256   3.999 -0.1049 -1.4174 -0.5523
 4372TIP3   OH234606   2.523   0.762   5.482  0.1082 -0.5646  0.6986
 4372TIP3    H134607   2.562   0.836   5.529  1.1937 -2.5297  3.0295
 4372TIP3    H234608   2.433   0.791   5.463  0.9362  1.8689  0.2879
 4373TIP3   OH234609   5.674   1.808  15.605 -0.0897 -0.8656 -0.2464
 4373TIP3    H134610   5.747   1.851  15.650  0.4691 -2.5819  0.5528
 4373TIP3    H234611   5.603   1.871  15.610  0.8869  0.2228  0.3353
 4374TIP3   OH234612   5.537   0.519  14.557  0.3955  0.3434 -0.1752
 4374TIP3    H134613   5.553   0.463  14.481  1.0095  0.5000 -0.1610
 4374TIP3    H234614   5.527   0.458  14.630 -0.9861  0.1506 -0.5117
 4375TIP3   OH234615   1.848   2.151  13.272 -0.2927  0.5724  0.1102
 4375TIP3    H134616   1.798   2.168  13.193 -0.1767 -0.0770 -0.1042
 4375TIP3    H234617   1.936   2.183  13.252  0.5952 -2.6092 -1.2312
 4376TIP3   OH234618   0.027   2.620  12.708 -0.0624 -0.4042 -0.1890
 4376TIP3    H134619   0.064   2.562  12.775  0.2455 -1.4533 -1.2514
 4376TIP3    H234620   0.024   2.706  12.751  1.0707 -0.8477  0.8417
 4377TIP3   OH234621   5.815   3.370   4.875 -0.5279 -0.4850 -0.0875
 4377TIP3    H134622   5.790   3.383   4.966 -1.5067 -0.5958 -0.3320
 4377TIP3    H234623   5.781   3.283   4.853 -0.8808 -0.1839 -0.7479
 4378TIP3   OH234624   0.288   2.444   3.861 -0.6550 -0.2480  0.6465
 4378TIP3    H134625   0.223   2.447   3.791  2.3628 -0.5898 -2.3008
 4378TIP3    H234626   0.300   2.536   3.887  1.0142  0.3668 -2.0917
 4379TIP3   OH234627   3.067   4.947   3.579 -0.0823  0.0720 -0.1697
 4379TIP3    H134628   3.140   4.885   3.578 -0.2645 -0.1724  0.9236
 4379TIP3    H234629   2.991   4.895   3.604  0.1252  1.0726  2.7909
 4380TIP3   OH234630   3.760   4.946   5.140  0.3868  0.0246 -0.5847
 4380TIP3    H134631   3.827   4.988   5.192 -0.9884  0.9511  0.4723
 4380TIP3    H234632   3.679   4.959   5.189 -0.9612  1.0000 -2.9480
 4381TIP3   OH234633   3.238   6.484  14.624  1.1065  0.1834  0.0675
 4381TIP3    H134634   3.145   6.488  14.647  1.8965  2.4926  3.1766
 4381TIP3    H234635   3.258   6.391  14.626 -1.3233 -0.4285 -1.5212
 4382TIP3   OH234636   0.755   1.048  11.933  0.0521  0.4682  0.2144
 4382TIP3    H134637   0.728   1.134  11.902  1.0093  0.3646 -0.9394
 4382TIP3    H234638   0.781   1.000  11.854  0.3404 -0.5884  0.9288
 4383TIP3   OH234639   6.477   5.329   2.654 -0.2298  0.2945  0.2212
 4383TIP3    H134640   6.560   5.349   2.698  0.3881  1.1872 -1.3196
 4383TIP3    H234641   6.502   5.300   2.567 -1.5923  1.6461 -0.6395
 4384TIP3   OH234642   4.274   5.851   2.665 -0.3362  0.2712 -0.5944
 4384TIP3    H134643   4.227   5.877   2.585  1.0066  0.7856 -1.2217
 4384TIP3    H234644   4.283   5.932   2.715 -1.6492 -0.1443  0.3511
 4385TIP3   OH234645   6.702   5.438   3.692 -0.1933  0.6097 -0.0075
 4385TIP3    H134646   6.759   5.373   3.653  0.4317  1.1878 -0.0747
 4385TIP3    H234647   6.660   5.482   3.618 -1.2444 -0.2737  0.0629
 4386TIP3   OH234648   3.569   5.809  13.057 -0.0310 -0.1656 -0.4555
 4386TIP3    H134649   3.518   5.786  12.979 -0.4079 -1.9459  0.3034
 4386TIP3    H234650   3.559   5.734  13.116  0.9902  0.7724  0.9465
 4387TIP3   OH234651   3.551   0.366  13.105  0.0843  0.3943 -0.2302
 4387TIP3    H134652   3.576   0.451  13.068 -0.0775  0.7655  0.5024
 4387TIP3    H234653   3.514   0.387  13.190 -1.1417 -0.2986 -0.5764
 4388TIP3   OH234654   0.295   6.502   4.956 -0.2970 -0.1520  0.2969
 4388TIP3    H134655   0.337   6.441   5.018 -0.5512  1.2788  1.9145
 4388TIP3    H234656   0.227   6.545   5.008 -0.5051  1.0817 -0.9895
 4389TIP3   OH234657   0.909   1.880   0.498  0.0507 -0.5808  0.6089
 4389TIP3    H134658   0.945   1.791   0.494  2.2478  0.2645  1.0606
 4389TIP3    H234659   0.931   1.911   0.585  2.6960  1.7710 -0.8142
 4390TIP3   OH234660   3.193   1.527   0.697  0.1240 -0.2025 -0.2594
 4390TIP3    H134661   3.138   1.597   0.664 -1.8895 -1.6751 -0.1585
 4390TIP3    H234662   3.233   1.563   0.776 -2.6451  0.1091  1.0525
 4391TIP3   OH234663   5.816   1.585  12.993  0.0807 -0.2816  0.0148
 4391TIP3    H134664   5.881   1.651  13.020  0.2015  0.1106 -1.2152
 4391TIP3    H234665   5.737   1.636  12.975 -0.7751 -0.8130  2.0551
 4392TIP3   OH234666   4.808   4.339   3.134 -0.4492 -0.1005 -0.0998
 4392TIP3    H134667   4.813   4.334   3.039  0.1515  1.6866 -0.1862
 4392TIP3    H234668   4.733   4.285   3.157 -2.2939  1.6125 -1.8339
 4393TIP3   OH234669   1.460   2.374  14.862  0.0278  0.2920  0.2904
 4393TIP3    H134670   1.413   2.304  14.907 -1.1975  0.4467 -0.7123
 4393TIP3    H234671   1.426   2.372  14.773 -0.2253  2.3468  0.3215
 4394TIP3   OH234672   3.393   4.710   2.045  0.1088  0.5897  0.2520
 4394TIP3    H134673   3.315   4.701   2.101 -0.0847  0.0321 -0.0972
 4394TIP3    H234674   3.465   4.681   2.101 -0.3444 -1.9350 -0.4157
 4395TIP3   OH234675   6.112   0.229   5.580  0.7426  0.2808  0.1046
 4395TIP3    H134676   6.136   0.272   5.662 -0.6627 -0.6542  1.0040
 4395TIP3    H234677   6.129   0.136   5.595 -1.4199 -0.1459  0.0365
 4396TIP3   OH234678   0.295   0.826   6.130 -0.4312  0.4546 -0.3434
 4396TIP3    H134679   0.318   0.739   6.097 -1.4493  0.2449 -0.5244
 4396TIP3    H234680   0.297   0.817   6.225 -1.3782 -0.0149 -0.3532
 4397TIP3   OH234681   3.594   0.876   4.298 -0.3791 -0.3234 -0.3284
 4397TIP3    H134682   3.525   0.882   4.232 -0.2191  3.7542 -0.2554
 4397TIP3    H234683   3.672   0.854   4.248 -0.9951 -1.0768 -0.9638
 4398TIP3   OH234684   3.397   0.037  13.711 -0.0350  0.3086 -0.6630
 4398TIP3    H134685   3.443   0.083  13.781 -0.9621  0.0248  0.1485
 4398TIP3    H234686   3.311   0.017  13.748 -0.5280  0.1211 -1.8706
 4399TIP3   OH234687   3.447   5.573  11.188  0.0850  0.0444  0.3880
 4399TIP3    H134688   3.511   5.554  11.256  0.5929 -1.0863 -0.3918
 4399TIP3    H234689   3.424   5.665  11.200  2.3120  0.6212  0.2720
 4400TIP3   OH234690   0.965   4.107   4.556 -0.1221 -0.6289  0.0570
 4400TIP3    H134691   1.047   4.156   4.554 -1.8757  2.5528  1.8007
 4400TIP3    H234692   0.902   4.167   4.596 -3.2976 -3.0104 -1.1259
 4401TIP3   OH234693   4.263   4.437  14.798  0.1882 -0.0918  0.2386
 4401TIP3    H134694   4.351   4.474  14.806  0.6601 -0.5980 -2.3029
 4401TIP3    H234695   4.205   4.508  14.824  1.2745  0.8822  0.0388
 4402TIP3   OH234696   0.981   1.041   2.915 -0.1545  0.0113  0.4473
 4402TIP3    H134697   0.973   1.005   2.827  0.3962  2.0961 -0.5091
 4402TIP3    H234698   1.056   1.100   2.909  0.0249  0.0075  2.3873
 4403TIP3   OH234699   0.804   5.057   2.216 -0.1757  0.8182 -0.0356
 4403TIP3    H134700   0.729   5.101   2.176 -1.0276  1.1836  1.8731
 4403TIP3    H234701   0.856   5.025   2.142 -2.3422  0.3284 -1.3955
 4404TIP3   OH234702   1.948   0.820  11.427  0.0645  0.2818 -0.7266
 4404TIP3    H134703   1.862   0.840  11.464  1.0443  0.3230  1.6315
 4404TIP3    H234704   1.942   0.847  11.336 -2.6020 -0.2498 -0.7396
 4405TIP3   OH234705   6.194   4.065   1.125 -0.0040 -1.0966  0.3320
 4405TIP3    H134706   6.117   4.043   1.178  0.0764  0.3437  1.0895
 4405TIP3    H234707   6.268   4.032   1.174  0.0080 -0.5459  0.6894
 4406TIP3   OH234708   4.890   6.407  11.540 -0.2496  0.2514 -0.2975
 4406TIP3    H134709   4.916   6.353  11.465  1.4590  2.4948 -1.3658
 4406TIP3    H234710   4.944   6.374  11.612 -0.0064 -0.1837 -0.6698
 4407TIP3   OH234711   4.579   3.037  16.251  0.4787 -0.2251  0.8014
 4407TIP3    H134712   4.538   3.075  16.329 -2.0414  1.5984 -1.3457
 4407TIP3    H234713   4.506   3.009  16.197  2.1308  0.3107 -1.7731
 4408TIP3   OH234714   5.278   3.748  11.919 -0.0146  0.2010 -0.0581
 4408TIP3    H134715   5.185   3.763  11.900  0.6171  1.4222 -2.2248
 4408TIP3    H234716   5.304   3.679  11.858  0.0267 -1.6973  1.9970
 4409TIP3   OH234717   0.873   4.101   3.581 -0.2462 -0.5152 -0.6880
 4409TIP3    H134718   0.955   4.107   3.531 -0.5942  3.2691 -0.9158
 4409TIP3    H234719   0.810   4.065   3.519  0.6454 -1.1597 -1.2457
 4410TIP3   OH234720   3.685   5.400  15.736  0.1861 -0.9945 -0.2067
 4410TIP3    H134721   3.731   5.316  15.735 -1.6551 -2.0265 -1.8499
 4410TIP3    H234722   3.607   5.386  15.682 -0.8989  1.3676  0.6492
 4411TIP3   OH234723   2.363   4.459   5.219  0.2720  0.1493  0.1564
 4411TIP3    H134724   2.359   4.507   5.302 -0.9791 -1.7040  1.1727
 4411TIP3    H234725   2.451   4.422   5.218  0.1508 -0.1624  0.8444
 4412TIP3   OH234726   6.248   4.987   5.439  0.4573 -0.5651 -0.1103
 4412TIP3    H134727   6.213   5.040   5.368  1.3499  0.7455  0.4176
 4412TIP3    H234728   6.307   4.925   5.396 -0.5706 -1.1410 -0.7213
 4413TIP3   OH234729   6.806   1.959  10.913  0.2700 -0.3402  0.0055
 4413TIP3    H134730   6.884   1.984  10.865 -0.0839 -0.0857 -0.4377
 4413TIP3    H234731   6.738   2.017  10.880 -0.2399 -0.9550 -0.0345
 4414TIP3   OH234732   2.437   4.859  14.596 -0.0013 -0.0248 -0.0123
 4414TIP3    H134733   2.448   4.948  14.565  2.5770 -0.7944 -1.4492
 4414TIP3    H234734   2.379   4.818  14.532  1.9596 -0.4499 -1.5422
 4415TIP3   OH234735   1.834   4.360   0.716 -0.0684  0.5685  0.0958
 4415TIP3    H134736   1.839   4.264   0.716 -2.4062  0.4026  0.6354
 4415TIP3    H234737   1.792   4.382   0.633 -1.4638  0.9604  0.8829
 4416TIP3   OH234738   1.504   1.197   3.387  0.0508 -0.2006 -0.4602
 4416TIP3    H134739   1.547   1.281   3.370  1.5073 -1.0105 -0.8992
 4416TIP3    H234740   1.434   1.192   3.322 -0.2640  0.8282 -0.1989
 4417TIP3   OH234741   3.764   5.752  10.846 -0.3044 -0.1038 -0.4949
 4417TIP3    H134742   3.721   5.750  10.761  1.0832  0.6008 -1.2419
 4417TIP3    H234743   3.715   5.817  10.897 -1.3273 -0.7562 -0.6421
 4418TIP3   OH234744   2.445   0.501   0.946  0.2245  0.6769 -0.2831
 4418TIP3    H134745   2.351   0.504   0.963  0.2398  3.1552 -0.4923
 4418TIP3    H234746   2.454   0.533   0.857  1.1869 -0.5052 -0.6120
 4419TIP3   OH234747   0.970   4.327   3.842 -0.4429  0.3236  0.0008
 4419TIP3    H134748   0.996   4.246   3.886  0.3953 -0.0410 -1.1361
 4419TIP3    H234749   1.006   4.319   3.754  0.5789  2.4264  0.2070
 4420TIP3   OH234750   5.667   6.597  11.585 -0.3131  0.2077 -0.1878
 4420TIP3    H134751   5.720   6.528  11.547  0.3829  2.0750 -2.7695
 4420TIP3    H234752   5.590   6.552  11.620  0.5523 -1.9526 -0.9672
 4421TIP3   OH234753   4.004   6.515   2.056 -0.2524  0.0046  0.3545
 4421TIP3    H134754   3.987   6.599   2.013  0.6506  0.0627  0.1002
 4421TIP3    H234755   4.072   6.474   2.002 -1.1800 -1.1955  0.0767
 4422TIP3   OH234756   4.056   5.446   0.187  0.0817 -0.5886 -0.3746
 4422TIP3    H134757   4.010   5.365   0.168 -4.6554  2.2820 -1.7698
 4422TIP3    H234758   4.055   5.495   0.105 -0.3466  2.3805  1.3365
 4423TIP3   OH234759   4.682   4.702   0.029  0.2148  0.1214  0.8898
 4423TIP3    H134760   4.640   4.639   0.088  0.7990 -1.2594 -0.1160
 4423TIP3    H234761   4.696   4.780   0.082 -1.3683 -0.2736  1.9126
 4424TIP3   OH234762   1.857   4.852  13.830  0.5659  0.8073 -1.0690
 4424TIP3    H134763   1.919   4.912  13.871 -0.5227  0.8540  0.5459
 4424TIP3    H234764   1.789   4.838  13.896  0.3488 -1.5410 -1.7292
 4425TIP3   OH234765   3.406   4.927  15.097  0.1627 -0.2620  0.3727
 4425TIP3    H134766   3.488   4.905  15.053 -3.1125 -3.0537 -4.8554
 4425TIP3    H234767   3.382   5.013  15.060 -1.0244 -1.1629 -1.0240
 4426TIP3   OH234768   4.580   1.985  11.495  0.3906  0.3607  0.3618
 4426TIP3    H134769   4.653   2.047  11.499 -1.2623  2.4788 -1.4347
 4426TIP3    H234770   4.524   2.017  11.425 -0.4738 -3.2785 -0.7327
 4427TIP3   OH234771   4.649   6.773   6.077  0.5989 -0.1248 -0.7164
 4427TIP3    H134772   4.720   6.815   6.124 -0.1228 -0.7547  0.9640
 4427TIP3    H234773   4.581   6.840   6.068  0.3946 -0.2451 -0.0963
 4428TIP3   OH234774   3.706   3.787   3.684  0.6647 -0.0573 -0.7730
 4428TIP3    H134775   3.635   3.827   3.735 -0.4744 -0.8304 -1.7026
 4428TIP3    H234776   3.660   3.730   3.621  1.9902  1.2166 -2.9557
 4429TIP3   OH234777   4.918   2.229  14.111 -0.0988 -0.3069  0.1747
 4429TIP3    H134778   4.844   2.183  14.150  0.3369 -0.3134  1.0021
 4429TIP3    H234779   4.987   2.163  14.105 -0.7783 -0.8122 -2.4133
 4430TIP3   OH234780   3.087   6.726  11.382 -0.2478  0.4097  0.1202
 4430TIP3    H134781   3.106   6.664  11.452 -0.1891 -0.4405 -0.6517
 4430TIP3    H234782   3.166   6.779  11.375 -0.5473  1.0144  1.2319
 4431TIP3   OH234783   4.611   6.370   3.364 -0.3331  0.0681  0.4338
 4431TIP3    H134784   4.650   6.452   3.333  1.0644 -1.2199 -1.3408
 4431TIP3    H234785   4.677   6.332   3.422  0.5580 -1.4397 -1.4777
 4432TIP3   OH234786   6.425   1.787   3.802  0.3259  0.1982 -0.4532
 4432TIP3    H134787   6.384   1.718   3.854 -1.3536  0.0857 -1.8594
 4432TIP3    H234788   6.454   1.742   3.722  0.9937  0.7528 -0.5289
 4433TIP3   OH234789   1.935   1.364  11.233  0.5921  1.1923  0.2227
 4433TIP3    H134790   1.998   1.312  11.282 -0.5492  1.2229  1.7639
 4433TIP3    H234791   1.975   1.451  11.227  0.8102  1.1436  0.9455
 4434TIP3   OH234792   5.589   4.342  16.263 -0.1804  0.6253 -0.6399
 4434TIP3    H134793   5.525   4.372  16.198  1.2240 -0.7780 -2.7094
 4434TIP3    H234794   5.545   4.269  16.308 -0.9805  1.3053 -0.2952
 4435TIP3   OH234795   1.506   5.760  17.273 -0.0604  0.7303  0.6496
 4435TIP3    H134796   1.426   5.805  17.245 -0.0296  1.0158  1.0220
 4435TIP3    H234797   1.558   5.827  17.317 -0.2376  0.2197  1.6608
 4436TIP3   OH234798   1.321   5.827   3.569 -0.0404 -0.3315 -0.7465
 4436TIP3    H134799   1.336   5.810   3.662  1.7480 -0.8663 -1.1144
 4436TIP3    H234800   1.321   5.741   3.528  0.9045 -0.0071 -1.4678
 4437TIP3   OH234801   4.686   5.673  11.854  0.0962  0.5194  0.1620
 4437TIP3    H134802   4.595   5.676  11.825 -0.6417 -2.1023  2.0392
 4437TIP3    H234803   4.733   5.632  11.781 -0.6698 -0.3692  0.1583
 4438TIP3   OH234804   0.114   6.238   2.992 -0.2805  0.3146  0.4352
 4438TIP3    H134805   0.077   6.325   3.008  1.0611  1.2061 -1.2232
 4438TIP3    H234806   0.208   6.253   2.982 -0.3127 -0.9848 -2.2088
 4439TIP3   OH234807   4.049   1.416   2.239 -0.1529 -0.2685  0.0423
 4439TIP3    H134808   4.085   1.366   2.166 -2.8961 -2.4768  0.1307
 4439TIP3    H234809   4.101   1.388   2.314  1.2863  0.4247 -0.6756
 4440TIP3   OH234810   4.944   2.713   2.644  0.0711  0.5848  0.9596
 4440TIP3    H134811   4.926   2.638   2.700 -1.1432  1.7849  2.2219
 4440TIP3    H234812   4.920   2.789   2.697  2.0968  1.9282  0.0362
 4441TIP3   OH234813   1.114   1.350  13.101  0.0144  0.1411 -0.0399
 4441TIP3    H134814   1.076   1.391  13.023 -1.0300  1.8254  1.3189
 4441TIP3    H234815   1.042   1.297  13.137 -0.1899  1.0571  0.9391
 4442TIP3   OH234816   0.152   0.688  13.903 -0.3540 -0.0158 -0.0245
 4442TIP3    H134817   0.133   0.598  13.932  0.7099 -0.1401  0.2989
 4442TIP3    H234818   0.236   0.709  13.943  0.0732  0.6321 -1.2320
 4443TIP3   OH234819   0.487   5.887  12.496  0.2680  0.1552 -0.1172
 4443TIP3    H134820   0.461   5.975  12.525  0.4522  0.8412 -1.9184
 4443TIP3    H234821   0.579   5.880  12.521  0.2136  0.4213  0.1654
 4444TIP3   OH234822   2.956   2.240   6.497 -0.5193 -0.1187 -0.1185
 4444TIP3    H134823   2.861   2.252   6.494 -0.4858  0.1320 -0.2019
 4444TIP3    H234824   2.988   2.314   6.549 -0.2072  0.7795 -1.5490
 4445TIP3   OH234825   0.153   3.653   2.651 -0.2812  0.5699 -0.0998
 4445TIP3    H134826   0.235   3.620   2.689  0.0445 -0.6364 -1.7532
 4445TIP3    H234827   0.122   3.719   2.713 -1.6102 -3.6494  4.0706
 4446TIP3   OH234828   2.364   4.894   1.646 -0.1551  0.1189 -0.0476
 4446TIP3    H134829   2.399   4.934   1.725  0.3752  1.2204 -0.8226
 4446TIP3    H234830   2.307   4.961   1.608 -2.1889 -1.2066  0.5622
 4447TIP3   OH234831   2.173   6.305  14.856  0.1256 -0.4764 -0.3120
 4447TIP3    H134832   2.141   6.243  14.920 -0.4705  0.1300 -0.0107
 4447TIP3    H234833   2.128   6.282  14.775  1.9532 -2.1494 -0.8829
 4448TIP3   OH234834   5.783   5.708   6.430 -0.3290 -0.3525  0.6976
 4448TIP3    H134835   5.865   5.724   6.476 -1.0842  1.1850  1.5604
 4448TIP3    H234836   5.740   5.794   6.426 -0.9058 -0.6947 -1.6894
 4449TIP3   OH234837   6.710   0.054   2.008 -0.2145 -0.6945 -0.0944
 4449TIP3    H134838   6.726   0.071   2.100  1.2813  0.3675 -0.5327
 4449TIP3    H234839   6.680   0.137   1.972 -0.2854 -0.9609 -0.6696
 4450TIP3   OH234840   4.823   6.798  15.718  0.0177 -0.0718 -0.3651
 4450TIP3    H134841   4.871   6.716  15.729 -0.8939 -0.9291 -2.6020
 4450TIP3    H234842   4.886   6.866  15.740  1.6666 -1.2583 -1.3867
 4451TIP3   OH234843   1.904   3.168  13.466 -0.1610 -0.2993 -0.1842
 4451TIP3    H134844   1.964   3.095  13.455  1.6613  0.9784  0.8726
 4451TIP3    H234845   1.921   3.225  13.391 -1.3019 -0.7807 -0.8082
 4452TIP3   OH234846   1.097   2.573   1.761 -0.0097 -0.0219  0.4917
 4452TIP3    H134847   1.108   2.494   1.815 -0.1542 -0.6808 -0.4232
 4452TIP3    H234848   1.092   2.645   1.824  0.8175 -0.6647  1.3161
 4453TIP3   OH234849   2.351   2.486   1.591  0.1440 -0.3381 -0.3626
 4453TIP3    H134850   2.418   2.438   1.542 -0.4425 -1.0687 -0.4604
 4453TIP3    H234851   2.268   2.452   1.557 -0.2817 -1.2425  1.4976
 4454TIP3   OH234852   4.876   4.163   1.102 -0.7491 -0.0470  0.0097
 4454TIP3    H134853   4.887   4.125   1.190  0.8546 -0.7398 -0.4645
 4454TIP3    H234854   4.957   4.212   1.087 -0.7172 -0.4868 -1.3459
 4455TIP3   OH234855   0.542   4.913   4.212  0.7634  0.0743  0.4961
 4455TIP3    H134856   0.503   4.826   4.209 -1.8467  1.1811  0.4612
 4455TIP3    H234857   0.593   4.919   4.131  0.4700 -1.2077  0.2036
 4456TIP3   OH234858   0.312   6.478   2.012  0.6561 -0.2979  0.0428
 4456TIP3    H134859   0.256   6.482   1.935 -0.8617 -0.4580  1.1093
 4456TIP3    H234860   0.254   6.499   2.085  2.5834  2.2702  0.9061
 4457TIP3   OH234861   6.228   0.109  15.350  0.5091  0.5579 -0.3517
 4457TIP3    H134862   6.236   0.204  15.361 -3.0427  0.9504 -0.5962
 4457TIP3    H234863   6.279   0.089  15.272  1.9060  2.1295  0.1275
 4458TIP3   OH234864   6.669   0.507   2.328  0.0717  0.4380  0.0549
 4458TIP3    H134865   6.591   0.454   2.313  0.1085  0.1321  0.9182
 4458TIP3    H234866   6.644   0.568   2.397  0.2974  0.9785 -0.3420
 4459TIP3   OH234867   0.613   3.480  16.826  0.1523 -0.3184  0.3176
 4459TIP3    H134868   0.641   3.477  16.918  0.4942  0.9363  0.2699
 4459TIP3    H234869   0.688   3.446  16.777 -0.2527 -1.5533  0.5347
 4460TIP3   OH234870   3.791   4.298   4.473  0.3333  0.5438 -0.5442
 4460TIP3    H134871   3.805   4.216   4.520 -0.0223  0.6373 -0.2770
 4460TIP3    H234872   3.743   4.272   4.393  1.2225  0.3437 -1.0178
 4461TIP3   OH234873   2.136   1.550   1.227 -0.3690  0.2182 -0.3097
 4461TIP3    H134874   2.145   1.558   1.132 -1.7136 -2.5127 -0.6878
 4461TIP3    H234875   2.133   1.641   1.258  3.3022  1.1988 -2.5110
 4462TIP3   OH234876   5.678   5.051   5.661  0.2368  0.4006 -0.3853
 4462TIP3    H134877   5.603   5.079   5.713 -0.6158  0.9368 -1.8824
 4462TIP3    H234878   5.745   5.028   5.726 -0.9236  0.7144  0.9434
 4463TIP3   OH234879   6.165   4.236   3.564 -0.2646 -0.5926  0.2100
 4463TIP3    H134880   6.155   4.161   3.505  1.4522 -0.3392 -0.4405
 4463TIP3    H234881   6.076   4.259   3.589 -1.0665 -0.5619 -2.4925
 4464TIP3   OH234882   5.141   1.303   4.376  0.4679 -0.4057  0.1727
 4464TIP3    H134883   5.070   1.341   4.324  0.6876  0.3739  0.4360
 4464TIP3    H234884   5.152   1.364   4.449  0.1320 -1.5139  1.1518
 4465TIP3   OH234885   6.730   4.167  16.528 -0.2009  0.0040 -0.0926
 4465TIP3    H134886   6.777   4.138  16.450 -1.8641 -0.1656 -1.0593
 4465TIP3    H234887   6.749   4.100  16.593  2.2362  0.8107  0.0654
 4466TIP3   OH234888   6.448   6.098   5.533  0.1293  0.0225  0.2707
 4466TIP3    H134889   6.524   6.041   5.521 -0.3490 -0.6808  0.5697
 4466TIP3    H234890   6.411   6.108   5.445 -0.0087 -0.4358  0.2766
 4467TIP3   OH234891   2.464   4.553  14.811 -0.5618  0.0602  0.3196
 4467TIP3    H134892   2.397   4.509  14.864  0.0328 -0.3279  0.7433
 4467TIP3    H234893   2.500   4.620  14.869 -0.9788  0.6593 -0.1007
 4468TIP3   OH234894   5.128   3.699  16.199 -0.6292  0.0665 -0.0345
 4468TIP3    H134895   5.155   3.714  16.109  1.9423 -0.0940  0.6611
 4468TIP3    H234896   5.192   3.636  16.233 -0.8821  0.9617  2.2096
 4469TIP3   OH234897   4.133   4.074   2.223 -0.4023  0.3900 -0.0866
 4469TIP3    H134898   4.146   4.010   2.153  1.3538 -0.6717  1.1588
 4469TIP3    H234899   4.217   4.077   2.269 -0.4299  3.6882 -0.1601
 4470TIP3   OH234900   3.501   3.881   2.772  0.3651 -0.4100  0.3776
 4470TIP3    H134901   3.537   3.925   2.695 -1.5384  0.4465 -0.0548
 4470TIP3    H234902   3.519   3.788   2.757 -1.0598 -0.3758 -1.6988
 4471TIP3   OH234903   3.921   2.585   0.114 -0.3018 -0.3439  0.2367
 4471TIP3    H134904   3.955   2.658   0.166 -0.4495 -1.7951  2.4177
 4471TIP3    H234905   3.849   2.623   0.064  0.7231  1.3884  0.0380
 4472TIP3   OH234906   0.707   0.800   0.755  0.5842 -0.3029 -0.0770
 4472TIP3    H134907   0.740   0.888   0.769  2.8375 -1.2093  0.4100
 4472TIP3    H234908   0.672   0.773   0.840  0.0197  0.0564 -0.1918
 4473TIP3   OH234909   5.263   6.550   6.267  0.1749  0.8006 -0.0329
 4473TIP3    H134910   5.169   6.536   6.264  0.1000  1.3662 -0.5014
 4473TIP3    H234911   5.301   6.463   6.254 -0.2652  0.9779 -2.8463
 4474TIP3   OH234912   1.975   3.631  15.710 -0.5039  0.4169  0.4849
 4474TIP3    H134913   2.056   3.612  15.756  0.5358 -0.9675 -1.8740
 4474TIP3    H234914   1.995   3.708  15.656 -1.2773  1.1321  1.2019
 4475TIP3   OH234915   3.735   5.196  12.062  0.6470 -0.7014  0.3087
 4475TIP3    H134916   3.741   5.290  12.047  1.1736 -0.7018  0.5239
 4475TIP3    H234917   3.679   5.188  12.139  1.6790 -0.5098  1.0774
 4476TIP3   OH234918   4.758   0.801  15.792 -0.2055 -0.0530  0.0877
 4476TIP3    H134919   4.666   0.793  15.815 -1.2533 -0.0155 -3.8146
 4476TIP3    H234920   4.797   0.718  15.822 -2.2795 -1.6594 -1.5082
 4477TIP3   OH234921   5.920   1.519   1.377  0.2783 -0.0091  0.0888
 4477TIP3    H134922   6.016   1.520   1.372  0.3335 -1.4212  0.7652
 4477TIP3    H234923   5.893   1.457   1.310 -0.1187 -0.4459  0.6541
 4478TIP3   OH234924   6.286   4.091   6.264  0.1523 -0.2322  0.0465
 4478TIP3    H134925   6.207   4.103   6.317  0.6831 -0.1181  0.8255
 4478TIP3    H234926   6.358   4.114   6.323  0.7362  0.2404 -0.8370
 4479TIP3   OH234927   2.659   2.554   2.930  0.2082  0.4012 -0.1943
 4479TIP3    H134928   2.716   2.507   2.991 -0.6620  0.8523  0.9848
 4479TIP3    H234929   2.704   2.548   2.846 -0.1968 -3.1722 -0.2572
 4480TIP3   OH234930   5.762   6.177   5.562 -0.3947 -0.2476  0.4368
 4480TIP3    H134931   5.825   6.207   5.628 -0.6968 -1.9329  1.5204
 4480TIP3    H234932   5.790   6.220   5.481  0.1244  1.6597  1.5966
 4481TIP3   OH234933   3.095   0.893   2.691 -0.1258 -0.2306  0.1623
 4481TIP3    H134934   3.087   0.829   2.620  0.9783  0.9436 -1.0467
 4481TIP3    H234935   3.114   0.841   2.768 -0.6286 -1.4774 -0.5362
 4482TIP3   OH234936   6.071   5.873   3.697  0.1119  0.4650  0.5260
 4482TIP3    H134937   5.998   5.847   3.754  0.8443  2.7832  2.5920
 4482TIP3    H234938   6.145   5.821   3.728 -0.5135 -1.6453 -1.3595
 4483TIP3   OH234939   4.188   4.783  13.921 -0.3537  0.2448  0.0632
 4483TIP3    H134940   4.270   4.821  13.952 -0.1972  0.8520 -1.0948
 4483TIP3    H234941   4.150   4.851  13.865 -0.4373 -1.0180 -1.4275
 4484TIP3   OH234942   3.989   0.643  13.265  0.5221 -0.7427  0.4123
 4484TIP3    H134943   3.916   0.703  13.255  1.2644  0.8909  4.0137
 4484TIP3    H234944   3.949   0.561  13.293 -0.1062 -0.6109 -0.0765
 4485TIP3   OH234945   3.172   4.168   4.337 -0.3167 -0.2969 -0.3926
 4485TIP3    H134946   3.113   4.227   4.384 -0.1506 -1.1934  0.9734
 4485TIP3    H234947   3.257   4.180   4.379  0.6013  1.2666 -2.5958
 4486TIP3   OH234948   0.281   1.217  17.107  0.2812 -0.1452  0.1365
 4486TIP3    H134949   0.227   1.269  17.167  0.8134  0.5137  0.0521
 4486TIP3    H234950   0.236   1.224  17.023 -1.1575 -2.1087  0.7090
 4487TIP3   OH234951   1.717   1.746   2.032 -0.4609 -0.1354 -0.1757
 4487TIP3    H134952   1.739   1.688   1.959 -0.1247 -1.1874  0.7354
 4487TIP3    H234953   1.693   1.686   2.103  1.2399  0.8242  1.2300
 4488TIP3   OH234954   0.131   0.972   5.951 -0.3923 -0.2455  0.0081
 4488TIP3    H134955   0.195   0.917   5.997  1.8501  1.2472 -1.2219
 4488TIP3    H234956   0.162   0.974   5.861 -1.2409  1.8377 -0.2569
 4489TIP3   OH234957   1.739   1.375  10.687  0.1528 -0.2901 -0.7190
 4489TIP3    H134958   1.717   1.467  10.698 -1.2464 -0.7355  0.3254
 4489TIP3    H234959   1.826   1.375  10.646  1.1255  1.4821  1.2795
 4490TIP3   OH234960   0.996   0.793   1.785 -0.0143 -0.0183 -0.0974
 4490TIP3    H134961   1.045   0.868   1.818 -1.4669  1.2930 -0.9026
 4490TIP3    H234962   0.949   0.760   1.862  0.7572 -0.2268  0.2943
 4491TIP3   OH234963   6.404   4.069   0.760 -0.3252  0.7062  0.2549
 4491TIP3    H134964   6.426   4.016   0.837 -0.8987 -0.5545 -0.4281
 4491TIP3    H234965   6.308   4.075   0.762 -0.3260  0.8749 -0.2181
 4492TIP3   OH234966   5.408   2.858  14.411 -0.0839  0.5436 -0.1055
 4492TIP3    H134967   5.501   2.880  14.403 -0.1583  0.8574 -0.1395
 4492TIP3    H234968   5.374   2.867  14.322 -0.0925  0.1685 -0.1422
 4493TIP3   OH234969   5.367   5.938   3.341 -0.0458  0.3815 -0.0921
 4493TIP3    H134970   5.463   5.933   3.340 -0.1141 -1.0916 -0.1404
 4493TIP3    H234971   5.341   5.873   3.406 -1.0336  0.5777 -0.2951
 4494TIP3   OH234972   4.521   2.418   1.785  0.0849  0.6563 -0.4382
 4494TIP3    H134973   4.457   2.355   1.818  0.5593  0.3595 -0.0651
 4494TIP3    H234974   4.471   2.498   1.770 -0.2917  0.5639  0.2726
 4495TIP3   OH234975   1.979   5.585  13.664 -0.1886  0.0414  0.5357
 4495TIP3    H134976   1.923   5.651  13.623 -0.7470 -1.1366 -0.6061
 4495TIP3    H234977   2.068   5.611  13.640 -0.5655 -1.5217 -2.8421
 4496TIP3   OH234978   2.220   3.329  13.221  0.6720  0.1345 -0.3746
 4496TIP3    H134979   2.221   3.235  13.240  0.3096  0.0799 -0.6211
 4496TIP3    H234980   2.290   3.342  13.157 -0.1206 -0.1771 -1.3099
 4497TIP3   OH234981   5.644   3.047  12.040 -0.3497  0.2533  0.3507
 4497TIP3    H134982   5.717   2.988  12.018 -0.9613 -0.1787 -0.5321
 4497TIP3    H234983   5.682   3.109  12.102  1.2101  1.0585 -1.3817
 4498TIP3   OH234984   5.683   4.502  12.369  0.7065 -0.2909 -0.1753
 4498TIP3    H134985   5.692   4.593  12.342  0.5197  0.0742  0.9269
 4498TIP3    H234986   5.763   4.459  12.340  1.1611  0.4216  0.0193
 4499TIP3   OH234987   4.148   4.504  15.757 -0.0782  0.5245  0.0287
 4499TIP3    H134988   4.182   4.559  15.828  1.2078 -1.2909  0.8869
 4499TIP3    H234989   4.216   4.507  15.690 -0.2024  0.3484 -0.1063
 4500TIP3   OH234990   4.368   4.038   3.263  0.1017  0.4169 -0.0083
 4500TIP3    H134991   4.338   4.020   3.174  0.9082  2.3822 -0.7086
 4500TIP3    H234992   4.302   3.997   3.319 -1.6223  1.0801 -1.5064
 4501TIP3   OH234993   6.232   1.860   4.398 -0.1800  0.4874 -0.0659
 4501TIP3    H134994   6.269   1.786   4.445  0.6552  1.0425  0.1653
 4501TIP3    H234995   6.304   1.893   4.344 -0.5408  1.1320 -0.1640
 4502TIP3   OH234996   5.248   3.616  13.789 -0.3139  0.0558 -0.2378
 4502TIP3    H134997   5.246   3.530  13.747 -0.3452  0.0460 -0.2156
 4502TIP3    H234998   5.297   3.671  13.728  2.6869 -0.8093  1.3119
 4503TIP3   OH234999   1.286   6.563  15.321  0.1942 -0.1943  0.2242
 4503TIP3    H135000   1.309   6.513  15.243 -0.7958 -1.3476  0.6682
 4503TIP3    H235001   1.335   6.520  15.392 -1.4485 -1.1804  0.7765
 4504TIP3   OH235002   2.521   5.825   2.552  0.7965 -0.0067 -0.2331
 4504TIP3    H135003   2.598   5.768   2.555  0.3024 -0.7547 -1.3570
 4504TIP3    H235004   2.522   5.860   2.463  1.0391  1.6726  0.4201
 4505TIP3   OH235005   2.533   2.417  11.027 -0.2720  0.0459 -0.4623
 4505TIP3    H135006   2.514   2.329  11.060  0.3479 -0.3215 -1.0657
 4505TIP3    H235007   2.627   2.416  11.010 -0.9974 -0.8425 -5.2000
 4506TIP3   OH235008   4.064   2.426   4.249  0.3907 -0.5423 -0.0382
 4506TIP3    H135009   4.147   2.392   4.283  1.3331  1.6115 -0.1132
 4506TIP3    H235010   4.020   2.464   4.325  0.8180  0.9617 -0.5343
 4507TIP3   OH235011   3.518   0.200  12.415 -0.1337  0.5419 -0.2248
 4507TIP3    H135012   3.554   0.150  12.342 -1.3180 -0.0236 -0.4386
 4507TIP3    H235013   3.573   0.178  12.489  0.8830  0.8614 -0.8695
 4508TIP3   OH235014   2.767   1.623   2.528 -0.2991  0.3116 -0.1169
 4508TIP3    H135015   2.807   1.673   2.456  2.3269 -1.7304 -0.1713
 4508TIP3    H235016   2.803   1.663   2.607  2.0762 -1.5801 -0.1676
 4509TIP3   OH235017   2.698   3.251   0.238  0.1347 -0.6244  0.0012
 4509TIP3    H135018   2.710   3.346   0.238  1.7497 -0.8003  1.0867
 4509TIP3    H235019   2.626   3.236   0.300 -1.3547  0.0084 -1.5623
 4510TIP3   OH235020   1.217   2.321   2.928  0.2028 -0.1731 -0.5687
 4510TIP3    H135021   1.154   2.258   2.961 -1.9197  0.3440 -3.4241
 4510TIP3    H235022   1.164   2.389   2.887  2.5776  0.0756 -3.4415
 4511TIP3   OH235023   4.679   2.078  13.685 -0.2116  0.2579 -0.4102
 4511TIP3    H135024   4.703   2.163  13.647  0.8167  0.2853  0.2721
 4511TIP3    H235025   4.731   2.073  13.765 -1.9439 -0.0387  0.7100
 4512TIP3   OH235026   5.949   2.939   2.119  0.0599  0.2958 -0.3870
 4512TIP3    H135027   5.922   2.909   2.205  0.2365 -0.5809 -0.6244
 4512TIP3    H235028   5.869   2.973   2.079 -0.4424 -1.1179 -0.6121
 4513TIP3   OH235029   2.612   4.569  14.018 -0.0058  0.0296  0.0717
 4513TIP3    H135030   2.613   4.629  14.092 -1.7727 -0.2146  0.3281
 4513TIP3    H235031   2.700   4.532  14.015  0.5511  1.2452  1.0432
 4514TIP3   OH235032   1.932   1.801   0.851 -0.5117  0.3992  0.1751
 4514TIP3    H135033   1.989   1.738   0.895  1.5927  0.9242 -1.7030
 4514TIP3    H235034   1.927   1.875   0.911  0.5494  0.2211  0.5004
 4515TIP3   OH235035   5.307   2.769   4.011  0.3822  0.1587 -0.4979
 4515TIP3    H135036   5.358   2.698   4.051  0.3898 -0.6223 -1.8655
 4515TIP3    H235037   5.351   2.849   4.039  1.2505 -0.4411 -0.1361
 4516TIP3   OH235038   0.573   5.834   5.058  0.0682 -0.2187  0.0660
 4516TIP3    H135039   0.596   5.927   5.065 -2.8034  0.4483  1.2744
 4516TIP3    H235040   0.559   5.820   4.964 -0.7567  0.9006  0.0177
 4517TIP3   OH235041   0.657   2.221  10.785 -0.5682  0.1445 -0.0805
 4517TIP3    H135042   0.599   2.160  10.738  0.8806 -1.0963 -0.2871
 4517TIP3    H235043   0.617   2.307  10.771 -1.8002 -0.5702 -1.0896
 4518TIP3   OH235044   3.991   3.260  13.368  0.4077  0.1034 -0.3268
 4518TIP3    H135045   4.006   3.271  13.462  1.2937  0.8616 -0.5503
 4518TIP3    H235046   4.049   3.189  13.342 -0.0292 -0.2846 -0.2620
 4519TIP3   OH235047   0.361   3.282  14.579 -0.5284 -0.5543 -0.2769
 4519TIP3    H135048   0.455   3.268  14.567 -0.8503 -2.4023 -0.6573
 4519TIP3    H235049   0.328   3.200  14.615 -2.5120 -1.0286 -2.9900
 4520TIP3   OH235050   0.334   3.938   2.026  0.1691 -0.5411  0.0170
 4520TIP3    H135051   0.324   3.875   2.097  2.4226 -0.3375  0.5173
 4520TIP3    H235052   0.299   4.020   2.061 -0.8499 -0.9926  0.0772
 4521TIP3   OH235053   2.648   4.604  11.242  0.3208 -0.4801 -0.2329
 4521TIP3    H135054   2.565   4.559  11.256 -0.6666  1.2156 -0.5066
 4521TIP3    H235055   2.639   4.644  11.156  0.8819  0.8660  0.3241
 4522TIP3   OH235056   2.135   2.559   6.208  0.1003  0.6506 -0.8353
 4522TIP3    H135057   2.210   2.618   6.198  0.0532  0.5720 -1.6544
 4522TIP3    H235058   2.091   2.562   6.123 -2.0290  2.3505  0.2585
 4523TIP3   OH235059   0.015   5.011  11.003 -0.3493 -0.4351  0.1950
 4523TIP3    H135060  -0.078   4.998  11.021  0.0251 -1.3961  1.5536
 4523TIP3    H235061   0.048   4.923  10.985  0.1880 -0.0292 -0.7953
 4524TIP3   OH235062   3.130   0.272   0.940 -0.3344  0.3501 -0.1382
 4524TIP3    H135063   3.064   0.334   0.908 -0.3432 -0.2427 -1.2865
 4524TIP3    H235064   3.182   0.250   0.863 -0.9483 -1.8474  0.0511
 4525TIP3   OH235065   2.801   6.585  14.365  0.0739  0.5368 -0.0924
 4525TIP3    H135066   2.723   6.553  14.410  0.1046  1.9241  0.9487
 4525TIP3    H235067   2.784   6.565  14.272 -0.9786 -0.2406  0.2545
 4526TIP3   OH235068   3.909   6.372  12.858 -0.1098  0.3159  0.0935
 4526TIP3    H135069   3.842   6.408  12.800  1.1132  0.9063 -0.9785
 4526TIP3    H235070   3.883   6.281  12.871 -0.5720  0.2527 -1.1502
 4527TIP3   OH235071   1.991   2.556   5.860 -0.3431  0.1898  0.3343
 4527TIP3    H135072   1.934   2.565   5.783  1.4810 -0.7324 -1.1574
 4527TIP3    H235073   1.977   2.637   5.909 -3.2707 -0.2076  0.2364
 4528TIP3   OH235074   0.677   0.865  13.559  0.1620 -0.4573 -0.1662
 4528TIP3    H135075   0.604   0.809  13.585  0.2530 -1.3416 -1.7382
 4528TIP3    H235076   0.700   0.913  13.638 -0.7638 -1.7119  0.8875
 4529TIP3   OH235077   3.029   0.955   1.232 -0.1543  0.2872 -0.5117
 4529TIP3    H135078   3.118   0.963   1.266  0.1489  0.5162 -1.3552
 4529TIP3    H235079   2.984   1.033   1.263 -0.0511  0.1954 -0.1281
 4530TIP3   OH235080   0.670   2.581  11.327  0.4231 -0.5143 -0.0628
 4530TIP3    H135081   0.687   2.620  11.413  0.6435  1.2180 -0.8835
 4530TIP3    H235082   0.745   2.607  11.274 -0.7467  0.2187 -1.3776
 4531TIP3   OH235083   3.812   2.197   2.924 -0.1070  0.6817 -0.2906
 4531TIP3    H135084   3.886   2.137   2.923  0.2663  1.0615  1.5147
 4531TIP3    H235085   3.842   2.273   2.874  0.2731  0.3167 -0.6150
 4532TIP3   OH235086   0.750   5.050  13.516 -0.2492 -0.0359  0.2374
 4532TIP3    H135087   0.738   5.027  13.608  0.4696 -0.0020  0.3431
 4532TIP3    H235088   0.842   5.076  13.509 -0.1208 -0.6661 -0.6231
 4533TIP3   OH235089   6.133   2.244  11.814 -0.0417 -0.2229 -0.1381
 4533TIP3    H135090   6.078   2.306  11.767  1.8249  1.8346  0.2581
 4533TIP3    H235091   6.204   2.224  11.754  1.1486  0.6668  0.9330
 4534TIP3   OH235092   6.306   3.165   3.715 -0.6201 -0.5507  0.2516
 4534TIP3    H135093   6.246   3.161   3.789 -0.5227  1.4338  0.4598
 4534TIP3    H235094   6.251   3.190   3.640 -0.1122  1.0993  0.4100
 4535TIP3   OH235095   2.902   2.770   2.876  0.0828  0.6248  0.2747
 4535TIP3    H135096   2.950   2.752   2.957 -0.7886 -1.1846  0.4107
 4535TIP3    H235097   2.812   2.783   2.904  0.0519  1.5291 -0.2472
 4536TIP3   OH235098   1.168   6.699  13.119  0.5106  0.2486 -0.4361
 4536TIP3    H135099   1.196   6.781  13.080  1.0040  0.6954  0.8391
 4536TIP3    H235100   1.248   6.648  13.129  0.2031 -0.4142 -1.2530
 4537TIP3   OH235101   0.318   0.128  15.070 -0.2573 -0.1173 -0.1454
 4537TIP3    H135102   0.249   0.113  15.005 -0.5670 -0.8780  0.3539
 4537TIP3    H235103   0.271   0.146  15.151  0.1290 -0.5636  0.1805
 4538TIP3   OH235104   6.113   4.669  15.667  0.2516  0.7117 -0.2276
 4538TIP3    H135105   6.110   4.646  15.760  1.1378  1.8946  0.1118
 4538TIP3    H235106   6.024   4.656  15.636  0.0914 -0.3284  0.6334
 4539TIP3   OH235107   1.809   2.107  15.826  0.0550  0.0008  0.7311
 4539TIP3    H135108   1.808   2.053  15.905  0.5413 -0.8829  0.1356
 4539TIP3    H235109   1.717   2.111  15.800  0.0242 -0.6221  0.7248
 4540TIP3   OH235110   4.805   1.629   4.002 -0.3322 -0.4960 -0.1501
 4540TIP3    H135111   4.735   1.565   3.990  0.0428 -0.8239 -0.6504
 4540TIP3    H235112   4.813   1.639   4.097 -0.7937 -0.7470 -0.0836
 4541TIP3   OH235113   6.597   1.142   0.440 -0.6386  0.3631  0.0026
 4541TIP3    H135114   6.635   1.100   0.518  0.1897  0.8115 -0.1486
 4541TIP3    H235115   6.609   1.078   0.370 -0.6691  0.2748  0.0779
 4542TIP3   OH235116   6.709   0.425  10.645  0.3863  0.0503 -0.1667
 4542TIP3    H135117   6.765   0.406  10.720  0.1115 -0.4824 -0.0997
 4542TIP3    H235118   6.741   0.367  10.576  0.5636  0.4553 -0.4303
 4543TIP3   OH235119   1.495   6.100  15.375  0.0251  0.3226  0.3457
 4543TIP3    H135120   1.512   6.119  15.282 -1.6673  2.0265  0.3470
 4543TIP3    H235121   1.533   6.175  15.422  2.4367 -1.3848  1.1980
 4544TIP3   OH235122   3.439   3.816   1.273  0.1210 -1.1747  0.9010
 4544TIP3    H135123   3.370   3.749   1.268  0.3686 -1.4192  0.7702
 4544TIP3    H235124   3.467   3.815   1.364 -0.4569 -0.6628  1.0894
 4545TIP3   OH235125   5.699   1.551   4.133  0.5624 -0.0109 -0.1385
 4545TIP3    H135126   5.746   1.512   4.059  0.8931 -1.1138  0.6566
 4545TIP3    H235127   5.756   1.623   4.162  0.6770  0.0957 -0.6129
 4546TIP3   OH235128   5.099   2.269   4.762 -0.6637 -0.1077 -0.4618
 4546TIP3    H135129   5.037   2.340   4.745 -0.5482 -0.3980 -2.1052
 4546TIP3    H235130   5.185   2.312   4.762 -0.7065 -0.0210 -0.0619
 4547TIP3   OH235131   3.984   1.482   4.863  0.4642  0.6563  0.2952
 4547TIP3    H135132   3.924   1.531   4.918 -0.7265 -1.7630  1.2361
 4547TIP3    H235133   3.936   1.468   4.781 -0.1367 -0.9229  0.8964
 4548TIP3   OH235134   4.376   3.369   5.446  0.9050  0.1723 -0.1653
 4548TIP3    H135135   4.313   3.329   5.385  0.5975  2.8396 -1.6491
 4548TIP3    H235136   4.321   3.414   5.510  1.2285 -2.4940  2.1152
 4549TIP3   OH235137   6.229   5.682  13.648 -0.6536 -0.6227 -0.3127
 4549TIP3    H135138   6.241   5.603  13.595 -0.8117  0.1245 -1.4763
 4549TIP3    H235139   6.157   5.728  13.605 -0.5815  0.1394  0.3864
 4550TIP3   OH235140   3.000   1.077   5.709  0.1274 -0.5523 -0.8236
 4550TIP3    H135141   3.060   1.151   5.722 -0.2466 -0.3447 -0.2158
 4550TIP3    H235142   3.041   1.024   5.641  1.1789 -0.6016 -0.1660
 4551TIP3   OH235143   5.847   3.918  14.398 -0.3322 -0.1707  0.0086
 4551TIP3    H135144   5.781   3.967  14.449 -0.4467  0.5630 -0.8282
 4551TIP3    H235145   5.919   3.980  14.387 -0.8530  0.1326 -1.8349
 4552TIP3   OH235146   3.763   0.005  11.728 -0.2727  0.2996  0.1412
 4552TIP3    H135147   3.854   0.023  11.752 -0.1435 -0.7469  0.4495
 4552TIP3    H235148   3.718  -0.007  11.812 -0.1497 -1.7687 -0.0697
 4553TIP3   OH235149   3.558   3.786  12.293 -0.6035  0.3146 -0.1602
 4553TIP3    H135150   3.592   3.829  12.371 -2.2393 -1.0264  1.3462
 4553TIP3    H235151   3.625   3.800  12.226  1.7635 -0.2423  2.0384
 4554TIP3   OH235152   2.649   6.329  12.665  0.4900  0.8986 -0.3192
 4554TIP3    H135153   2.685   6.279  12.738  1.4033  2.2498  0.1718
 4554TIP3    H235154   2.554   6.323  12.675  0.5923 -0.5348 -0.1351
 4555TIP3   OH235155   5.061   3.466  15.927 -1.0091 -0.8541 -0.3983
 4555TIP3    H135156   5.087   3.417  15.848 -1.7220 -0.2371 -1.0294
 4555TIP3    H235157   5.000   3.532  15.894 -0.8697 -0.2302  0.6061
 4556TIP3   OH235158   3.320   6.459  11.180  0.3802  0.1909  0.5080
 4556TIP3    H135159   3.348   6.551  11.183  1.1789 -0.0647  0.8850
 4556TIP3    H235160   3.377   6.414  11.242  2.0982 -1.1074 -1.9471
 4557TIP3   OH235161   3.215   3.274   0.851  0.4174 -0.5839 -0.0103
 4557TIP3    H135162   3.185   3.290   0.762  3.1505  1.3574 -0.6676
 4557TIP3    H235163   3.156   3.327   0.906 -0.1926 -0.4074 -0.8224
 4558TIP3   OH235164   2.012   4.146  13.847  0.5812  0.2352 -0.4567
 4558TIP3    H135165   1.936   4.204  13.840  1.1220  0.9480 -0.4225
 4558TIP3    H235166   1.976   4.058  13.836 -0.5225  0.4348  1.3664
 4559TIP3   OH235167   3.288   2.653  10.384  0.2342 -0.4548 -0.1307
 4559TIP3    H135168   3.363   2.638  10.442  1.6147 -1.0198 -2.0388
 4559TIP3    H235169   3.294   2.584  10.318 -0.4778  1.0505 -1.7943
 4560TIP3   OH235170   2.376   3.086   4.344  0.5727  0.1460 -0.3552
 4560TIP3    H135171   2.353   3.179   4.335 -0.9784 -0.3352 -1.7140
 4560TIP3    H235172   2.470   3.086   4.361  0.2097  2.0559  1.8085
 4561TIP3   OH235173   5.833   2.196  12.714  0.1775  0.4428  0.0887
 4561TIP3    H135174   5.907   2.169  12.660 -0.2430  2.3181 -1.5120
 4561TIP3    H235175   5.872   2.245  12.786  0.5833  0.3698 -0.0815
 4562TIP3   OH235176   5.289   0.811   4.396  0.0195  0.1569  0.6280
 4562TIP3    H135177   5.380   0.826   4.421  0.1574 -0.4182  0.4786
 4562TIP3    H235178   5.276   0.864   4.318  0.5568 -0.6270 -0.0035
 4563TIP3   OH235179   4.972   4.428   2.641 -0.4741 -0.1332 -0.5145
 4563TIP3    H135180   5.005   4.339   2.651 -0.1271 -0.1237 -1.4955
 4563TIP3    H235181   4.953   4.457   2.730  1.9805 -0.2120  0.0586
 4564TIP3   OH235182   4.069   4.196   4.942  0.4947  0.2730  0.1050
 4564TIP3    H135183   4.154   4.222   4.977 -0.0047  1.9589  0.1082
 4564TIP3    H235184   4.005   4.244   4.996 -0.4237 -0.4254 -0.3504
 4565TIP3   OH235185   6.751   0.960   4.157 -0.0256  0.4818 -0.0360
 4565TIP3    H135186   6.765   1.055   4.153 -0.0333  0.4381 -1.2860
 4565TIP3    H235187   6.809   0.930   4.227 -0.3500  1.4634  0.6601
 4566TIP3   OH235188   3.264   5.606  12.641  0.0979 -0.4633  0.1952
 4566TIP3    H135189   3.241   5.516  12.664 -0.2443 -0.4128  0.0604
 4566TIP3    H235190   3.196   5.633  12.579 -1.0209  0.6133  1.8716
 4567TIP3   OH235191   3.604   0.451   2.455  0.3149  0.2175  0.3833
 4567TIP3    H135192   3.616   0.545   2.472  1.3076  0.3493 -0.9632
 4567TIP3    H235193   3.644   0.408   2.530  0.9821  0.8653  0.4063
 4568TIP3   OH235194   3.756   1.880   5.105  0.0289 -0.0315  0.1207
 4568TIP3    H135195   3.733   1.788   5.121  0.8192 -0.6205 -2.0388
 4568TIP3    H235196   3.676   1.918   5.069  0.1081 -0.1931 -0.2244
 4569TIP3   OH235197   0.869   1.184   2.591 -0.9024  0.1553  0.7595
 4569TIP3    H135198   0.801   1.128   2.553 -0.1520 -0.3949  0.2016
 4569TIP3    H235199   0.832   1.272   2.588 -0.9022  0.1030 -1.1432
 4570TIP3   OH235200   1.189   4.319  11.475 -0.2270 -0.2845 -0.7968
 4570TIP3    H135201   1.197   4.258  11.402  0.4825  1.0256 -1.8179
 4570TIP3    H235202   1.238   4.397  11.448 -0.0332  0.2598  1.0224
 4571TIP3   OH235203   1.330   6.390  16.866  0.1913  0.5316  0.0534
 4571TIP3    H135204   1.306   6.482  16.859 -0.7428  0.3258  0.4257
 4571TIP3    H235205   1.262   6.344  16.818  1.2993  0.1137 -1.1224
 4572TIP3   OH235206   2.775   1.212   5.514  0.3003 -0.2464 -0.2492
 4572TIP3    H135207   2.748   1.120   5.514  1.6062 -0.6681  1.8059
 4572TIP3    H235208   2.853   1.214   5.459 -0.2626 -0.1796 -1.0572
 4573TIP3   OH235209   2.235   1.998   0.614  0.2752  0.7899  0.3592
 4573TIP3    H135210   2.202   2.042   0.693 -0.9776 -0.4927  0.5708
 4573TIP3    H235211   2.165   2.008   0.550  0.0459 -0.7510  0.3573
 4574TIP3   OH235212   6.401   5.275  15.839  0.1226  0.1586  0.9854
 4574TIP3    H135213   6.429   5.367  15.842 -0.3272  0.3552 -0.5514
 4574TIP3    H235214   6.477   5.228  15.807 -0.6642  0.4379 -1.3454
 4575TIP3   OH235215   6.503   5.983   3.318  0.1395  0.7105  0.3355
 4575TIP3    H135216   6.432   5.919   3.326  0.8454 -0.2539 -0.8931
 4575TIP3    H235217   6.572   5.950   3.376  1.0170 -0.3842 -1.2922
 4576TIP3   OH235218   2.287   2.650   3.373 -0.0718  0.4205 -0.0467
 4576TIP3    H135219   2.327   2.624   3.455  0.5428  0.4996 -0.3190
 4576TIP3    H235220   2.360   2.673   3.316 -0.5274  1.2503 -0.3154
 4577TIP3   OH235221   2.732   3.906   1.058 -0.0397  0.6319  0.3232
 4577TIP3    H135222   2.667   3.972   1.080  2.7021  3.5269  0.0294
 4577TIP3    H235223   2.751   3.863   1.141 -1.6177  0.3753  0.5726
 4578TIP3   OH235224   6.715   1.935  13.735 -0.0654 -0.2334 -0.0491
 4578TIP3    H135225   6.771   1.879  13.681  0.2158  0.9144 -0.9645
 4578TIP3    H235226   6.721   1.897  13.823 -0.8624 -2.3492 -0.8999
 4579TIP3   OH235227   0.061   6.278   5.383 -0.0478 -0.1733  0.3731
 4579TIP3    H135228   0.154   6.256   5.376 -0.2072 -0.0902 -2.3059
 4579TIP3    H235229   0.058   6.344   5.453  1.9110 -0.1539  0.4825
 4580TIP3   OH235230   2.791   2.662   3.615  0.2241  0.5242 -0.1736
 4580TIP3    H135231   2.752   2.720   3.550 -1.1069 -1.7635 -1.4799
 4580TIP3    H235232   2.716   2.629   3.666  0.8799 -0.4835  0.1728
 4581TIP3   OH235233   3.969   3.657  16.838  0.4128 -0.6598 -0.6344
 4581TIP3    H135234   3.963   3.570  16.878 -0.3334  0.7215  2.3952
 4581TIP3    H235235   3.880   3.675  16.807  0.3836 -0.6594 -0.5524
 4582TIP3   OH235236   5.656   2.297  11.484 -0.1335  0.1712 -0.4502
 4582TIP3    H135237   5.595   2.261  11.420 -0.2972  1.0118 -0.7780
 4582TIP3    H235238   5.742   2.265  11.457  0.0709  2.2100 -2.3303
 4583TIP3   OH235239   4.084   1.080  16.130  0.0212  0.0546 -0.2345
 4583TIP3    H135240   4.047   1.025  16.200 -0.3044 -0.1139 -0.5373
 4583TIP3    H235241   4.086   1.022  16.053 -1.8870  0.9350 -0.9933
 4584TIP3   OH235242   0.099   0.156  13.575  0.0378 -0.1143 -0.1126
 4584TIP3    H135243   0.012   0.119  13.594 -0.7429  0.9994 -1.4475
 4584TIP3    H235244   0.083   0.249  13.559  1.6478  0.3302  0.7608
 4585TIP3   OH235245   2.395   5.962  16.903 -0.7996 -0.8599  0.6313
 4585TIP3    H135246   2.318   5.991  16.951  0.5701  0.6326  2.0037
 4585TIP3    H235247   2.391   6.011  16.821 -0.6687  0.1493  1.2196
 4586TIP3   OH235248   0.530   5.493   4.161 -0.1852  0.0531 -0.8721
 4586TIP3    H135249   0.515   5.586   4.145 -3.7479 -0.7320 -2.4623
 4586TIP3    H235250   0.541   5.454   4.074  1.8102 -0.9714 -0.2053
 4587TIP3   OH235251   2.452   2.130  11.729  0.1453 -0.1846 -0.0913
 4587TIP3    H135252   2.357   2.142  11.728  0.1432 -0.2555 -0.9770
 4587TIP3    H235253   2.465   2.040  11.700  0.5187  0.0965 -0.7948
 4588TIP3   OH235254   1.946   5.802  11.973 -0.0933 -0.1355 -0.3150
 4588TIP3    H135255   1.851   5.818  11.967 -0.1923 -0.1367  1.1468
 4588TIP3    H235256   1.959   5.721  11.925 -1.2371 -1.5488  1.6761
 4589TIP3   OH235257   6.654   4.795  13.897 -0.4415  0.5763  0.5654
 4589TIP3    H135258   6.608   4.712  13.898 -1.0349  0.9013  0.6703
 4589TIP3    H235259   6.737   4.776  13.854 -1.2805  0.2810 -0.9907
 4590TIP3   OH235260   3.927   1.162  13.639 -0.6281 -0.0484 -0.3317
 4590TIP3    H135261   3.959   1.228  13.578 -0.8216  0.1326 -0.2366
 4590TIP3    H235262   4.001   1.103  13.651 -0.7444 -0.3686 -1.1290
 4591TIP3   OH235263   4.671   4.016  13.738  0.8372 -0.4952  0.5133
 4591TIP3    H135264   4.656   3.950  13.806  1.8686  0.1891  1.4091
 4591TIP3    H235265   4.624   4.093  13.768  0.6975 -0.4082  0.0836
 4592TIP3   OH235266   0.794   4.247   2.303  0.0105  0.4285 -0.5710
 4592TIP3    H135267   0.799   4.160   2.343  0.2404  0.1941 -1.1043
 4592TIP3    H235268   0.703   4.273   2.312  0.1509  0.5730  0.5134
 4593TIP3   OH235269   0.662   1.759  17.198 -0.0546  0.5716 -0.1672
 4593TIP3    H135270   0.691   1.668  17.202  0.2710  0.6675 -0.3827
 4593TIP3    H235271   0.670   1.791  17.288 -0.0150  0.4397 -0.1238
 4594TIP3   OH235272   1.259   4.380  12.384 -0.3560 -0.2671 -0.2390
 4594TIP3    H135273   1.263   4.476  12.393  1.1457 -0.1630 -1.6982
 4594TIP3    H235274   1.170   4.363  12.352 -1.4370  0.4017  2.2951
 4595TIP3   OH235275   0.432   4.025   1.739  0.2125 -0.0037 -0.3963
 4595TIP3    H135276   0.442   3.993   1.829  0.2707  0.9898 -0.0412
 4595TIP3    H235277   0.410   3.947   1.688 -1.2010 -0.3454  0.7111
 4596TIP3   OH235278   4.112   0.489  12.747  0.0910 -0.0202 -0.4796
 4596TIP3    H135279   4.079   0.457  12.662 -0.3280  0.9113 -0.6799
 4596TIP3    H235280   4.049   0.455  12.811  0.0383 -0.1839 -0.6180
 4597TIP3   OH235281   1.530   0.382   2.247 -0.2853 -0.4811 -0.5080
 4597TIP3    H135282   1.549   0.354   2.157 -2.0338 -1.8967 -0.4611
 4597TIP3    H235283   1.451   0.435   2.239  1.3547  2.1248 -0.1985
 4598TIP3   OH235284   2.759   5.968  14.547  0.0222  0.1772  0.4674
 4598TIP3    H135285   2.679   5.916  14.539 -0.8989  1.4928  0.8510
 4598TIP3    H235286   2.812   5.922  14.612 -0.6289 -0.4593  0.5489
 4599TIP3   OH235287   3.670   1.381   2.955  0.3247 -0.3979  0.0772
 4599TIP3    H135288   3.654   1.299   3.002  1.0624  0.1714  1.3707
 4599TIP3    H235289   3.676   1.447   3.025 -0.3634  0.7662 -0.9506
 4600TIP3   OH235290   5.947   3.594   6.033  0.5549 -0.0862  0.3759
 4600TIP3    H135291   5.869   3.575   6.085 -0.8285  2.0884 -0.8394
 4600TIP3    H235292   5.933   3.545   5.951  0.5471  0.1440  0.2386
 4601TIP3   OH235293   1.929   0.583   4.045  0.1563 -0.7715  0.0772
 4601TIP3    H135294   1.881   0.645   4.100 -0.4318 -2.1912  1.1683
 4601TIP3    H235295   2.021   0.608   4.057  0.0030 -0.8106  1.3811
 4602TIP3   OH235296   6.154   0.644   5.507  0.3001  0.1736  0.2511
 4602TIP3    H135297   6.083   0.708   5.508 -0.4088 -0.6132  0.8060
 4602TIP3    H235298   6.124   0.577   5.445  0.3018 -0.4488  0.9264
 4603TIP3   OH235299   3.741   0.230   3.415 -0.1386 -0.2089 -0.6074
 4603TIP3    H135300   3.728   0.271   3.329  2.6920 -0.5476 -1.2373
 4603TIP3    H235301   3.831   0.198   3.413 -0.9089 -2.6932  1.4646
 4604TIP3   OH235302   0.893   3.184  16.878 -0.0182 -0.4958  0.5891
 4604TIP3    H135303   0.961   3.117  16.891  0.8162  0.4726  1.2651
 4604TIP3    H235304   0.823   3.158  16.937  1.0033  0.1496  2.1099
 4605TIP3   OH235305   1.217   5.412  13.668 -0.6124  0.1192 -0.7031
 4605TIP3    H135306   1.310   5.435  13.672 -0.4597 -0.6224  0.3884
 4605TIP3    H235307   1.201   5.391  13.576  0.5762 -0.8111 -0.7075
 4606TIP3   OH235308   6.353   1.061  14.877 -0.4254  0.5361 -0.5656
 4606TIP3    H135309   6.266   1.042  14.911 -1.3020  2.1490 -1.8382
 4606TIP3    H235310   6.359   1.011  14.795 -0.5189  1.2075 -0.9790
 4607TIP3   OH235311   6.800   1.913   0.480  0.1090  0.1714 -0.0364
 4607TIP3    H135312   6.798   1.857   0.403 -0.2780  0.4865 -0.2622
 4607TIP3    H235313   6.807   1.853   0.554 -2.2246 -0.2937 -0.1557
 4608TIP3   OH235314   6.145   4.037   0.836 -0.0771  0.6950  0.3848
 4608TIP3    H135315   6.188   4.060   0.918  0.0156  1.8557  0.0211
 4608TIP3    H235316   6.059   4.079   0.842 -0.6715 -0.5080  0.5420
 4609TIP3   OH235317   4.248   5.872   3.075 -0.6313  0.1146 -0.1322
 4609TIP3    H135318   4.336   5.879   3.111 -0.2241  1.7512 -1.4252
 4609TIP3    H235319   4.200   5.944   3.116 -1.7201 -1.4934  1.4948
 4610TIP3   OH235320   1.376   5.932   2.830 -0.0534  0.2098 -0.2402
 4610TIP3    H135321   1.422   5.849   2.846 -2.7300 -1.2561  0.0613
 4610TIP3    H235322   1.319   5.943   2.906 -0.3290  1.9390 -0.6739
 4611TIP3   OH235323   5.316   6.185  16.832  0.1618 -0.3931  0.1292
 4611TIP3    H135324   5.255   6.114  16.810 -1.8717  0.6498  2.1287
 4611TIP3    H235325   5.397   6.141  16.856  0.2689 -1.8204 -2.6302
 4612TIP3   OH235326   6.762   3.465  17.028 -0.4867 -0.3530 -0.3342
 4612TIP3    H135327   6.736   3.382  17.066 -1.0077 -0.4188 -0.8311
 4612TIP3    H235328   6.811   3.509  17.097  1.4971 -1.8914 -0.7156
 4613TIP3   OH235329   2.791   3.138   3.145  0.2587 -0.5545 -0.2772
 4613TIP3    H135330   2.880   3.125   3.110  0.9298  0.9808  0.8455
 4613TIP3    H235331   2.760   3.218   3.103  0.4378  0.3966  1.3786
 4614TIP3   OH235332   0.637   2.309   4.429  0.6085 -0.1050 -0.1389
 4614TIP3    H135333   0.548   2.286   4.402  0.6392 -0.0416 -0.2911
 4614TIP3    H235334   0.686   2.317   4.347  1.0256 -1.2702 -0.0139
 4615TIP3   OH235335   3.196   3.990  13.563  0.1041 -0.5238 -0.3575
 4615TIP3    H135336   3.230   4.006  13.651 -0.0811  1.0177 -0.5589
 4615TIP3    H235337   3.258   4.032  13.504 -0.0543 -1.0937 -0.9369
 4616TIP3   OH235338   4.806   5.016   5.754  0.5833 -0.0505  0.1064
 4616TIP3    H135339   4.842   5.073   5.686 -2.0515 -0.6376 -1.8321
 4616TIP3    H235340   4.751   5.074   5.807  0.3818 -0.1626  0.0201
 4617TIP3   OH235341   3.952   2.199   3.891  0.4244 -0.1457 -1.4523
 4617TIP3    H135342   3.978   2.281   3.849  1.5989 -1.0421 -2.4948
 4617TIP3    H235343   4.032   2.169   3.935 -0.4633  0.1573  0.4049
 4618TIP3   OH235344   5.177   0.948   5.507 -0.1202  0.6256  0.1755
 4618TIP3    H135345   5.109   0.888   5.540 -0.5410  0.7728 -0.4207
 4618TIP3    H235346   5.133   1.001   5.441  0.0987  2.0060  1.1081
 4619TIP3   OH235347   2.128   4.991  15.767  0.4706 -0.5235 -0.5743
 4619TIP3    H135348   2.066   4.967  15.835  0.9668 -0.8427 -0.2255
 4619TIP3    H235349   2.090   4.959  15.686  0.2807 -0.9006 -0.3348
 4620TIP3   OH235350   5.364   3.351   2.133  0.2628  0.3371 -0.0646
 4620TIP3    H135351   5.417   3.421   2.170  1.8721 -0.5812 -0.6154
 4620TIP3    H235352   5.340   3.382   2.045 -1.7653  1.5782  0.8716
 4621TIP3   OH235353   2.711   1.031  11.005 -0.5821  0.2010 -0.6355
 4621TIP3    H135354   2.751   1.113  11.035 -0.4020  0.5652 -1.8499
 4621TIP3    H235355   2.754   1.013  10.921 -2.6699  0.3608 -1.7529
 4622TIP3   OH235356   4.086   2.159  14.164 -0.1288  0.1968  0.1450
 4622TIP3    H135357   4.042   2.229  14.116  0.5113  2.2393  2.4126
 4622TIP3    H235358   4.178   2.183  14.163  1.0499 -3.6957 -3.9860
 4623TIP3   OH235359   0.660   1.690   2.165  0.0415 -0.0320  0.7389
 4623TIP3    H135360   0.743   1.720   2.127 -0.4875  0.5733  0.0438
 4623TIP3    H235361   0.673   1.695   2.259  0.6561  0.4579  0.6299
 4624TIP3   OH235362   0.194   0.185  14.049 -0.1487 -0.1063  0.6677
 4624TIP3    H135363   0.254   0.132  14.102 -1.1052 -1.9373  0.0009
 4624TIP3    H235364   0.186   0.136  13.967 -0.0712  1.7564 -0.4832
 4625TIP3   OH235365   5.842   5.988   5.779  0.4448  0.2253 -0.2682
 4625TIP3    H135366   5.913   6.047   5.753  0.2809  0.4623 -0.1762
 4625TIP3    H235367   5.799   5.966   5.696  0.0419  0.8284 -0.2250
 4626TIP3   OH235368   5.075   4.968  15.988 -0.4945 -0.3007  0.6642
 4626TIP3    H135369   5.116   4.994  15.906 -1.9531  4.4870  1.2616
 4626TIP3    H235370   4.986   4.945  15.964 -0.5464 -0.1419  0.7019
 4627TIP3   OH235371   0.102   5.402   4.267 -0.1971 -0.2656 -0.6206
 4627TIP3    H135372   0.163   5.475   4.275  1.4963 -1.7182  0.1686
 4627TIP3    H235373   0.024   5.430   4.316  0.7505  0.6761  0.3761
 4628TIP3   OH235374   5.490   2.817  13.240  0.0762 -0.1216 -0.0282
 4628TIP3    H135375   5.410   2.865  13.219  0.3865 -0.0365 -1.0252
 4628TIP3    H235376   5.561   2.875  13.211  0.5685  0.6613  2.6152
 4629TIP3   OH235377   2.117   0.661  16.020  1.2552 -0.2923  0.1263
 4629TIP3    H135378   2.152   0.723  15.956 -1.8772  2.1942  0.6922
 4629TIP3    H235379   2.122   0.708  16.103 -2.5698 -0.1026  0.3410
 4630TIP3   OH235380   6.265   0.240   3.538 -0.0583  0.3986  0.3429
 4630TIP3    H135381   6.261   0.147   3.515  0.1976  0.7076 -1.0040
 4630TIP3    H235382   6.204   0.282   3.478 -0.9249  0.9937  1.6161
 4631TIP3   OH235383   0.543   5.399  12.713  0.0301 -0.5739  0.1966
 4631TIP3    H135384   0.525   5.406  12.806 -1.4311  1.9593 -0.2379
 4631TIP3    H235385   0.512   5.481  12.676  0.9529 -1.3712 -2.4761
 4632TIP3   OH235386   2.316   5.707  15.559  0.0236  0.5608  0.3645
 4632TIP3    H135387   2.368   5.628  15.543 -0.7933 -0.1559  1.1885
 4632TIP3    H235388   2.329   5.725  15.652 -0.8517  0.6230  0.4734
 4633TIP3   OH235389   2.734   4.005  16.126  0.7295 -0.3458  0.4006
 4633TIP3    H135390   2.663   3.968  16.178  2.3062 -1.5910  1.7338
 4633TIP3    H235391   2.785   3.928  16.097  1.3034  0.4873 -0.8700
 4634TIP3   OH235392   5.762   0.155   4.988  0.0697  0.0616  0.1031
 4634TIP3    H135393   5.677   0.196   5.003  0.0511  1.0771 -2.5246
 4634TIP3    H235394   5.825   0.219   5.021 -0.1377  0.0059  0.6077
 4635TIP3   OH235395   1.682   5.871   2.005 -0.5696  0.1027  0.4114
 4635TIP3    H135396   1.725   5.820   1.936  2.4478 -0.2274  2.4271
 4635TIP3    H235397   1.672   5.959   1.968 -0.0219 -0.3496 -0.8308
 4636TIP3   OH235398   2.381   0.750   0.320 -0.4947 -0.3562 -0.3653
 4636TIP3    H135399   2.298   0.770   0.276 -0.8732  0.5504  0.7288
 4636TIP3    H235400   2.361   0.757   0.413  0.7769 -0.2721 -0.0869
 4637TIP3   OH235401   5.934   1.445   6.585  0.3437 -0.2823 -0.3473
 4637TIP3    H135402   6.002   1.505   6.616 -0.7424  0.2528  1.0603
 4637TIP3    H235403   5.982   1.366   6.559  1.6825  0.7650 -1.1651
 4638TIP3   OH235404   4.855   1.422   1.012 -0.1250  0.0228  0.2483
 4638TIP3    H135405   4.946   1.391   1.012 -0.0894  0.1279  0.0711
 4638TIP3    H235406   4.852   1.486   0.941  0.0234  1.0470  1.1462
 4639TIP3   OH235407   4.454   6.792  13.595  0.8210 -0.1150 -0.1717
 4639TIP3    H135408   4.402   6.834  13.527  0.2072  0.7146  0.7859
 4639TIP3    H235409   4.474   6.705  13.561 -2.0685 -0.8322 -0.1372
 4640TIP3   OH235410   6.681   3.871  16.134 -0.1240 -0.0544 -0.6360
 4640TIP3    H135411   6.767   3.829  16.130  0.8958  1.9562 -0.3307
 4640TIP3    H235412   6.696   3.960  16.103 -1.4013  1.3722  2.5660
 4641TIP3   OH235413   4.011   2.841   0.560 -0.5795 -0.1467 -0.1252
 4641TIP3    H135414   3.989   2.798   0.643  0.1250  0.5905  0.4472
 4641TIP3    H235415   4.065   2.777   0.514 -2.7166 -1.4175 -0.9513
 4642TIP3   OH235416   3.649   4.157  12.033 -0.3904 -0.4015  0.0907
 4642TIP3    H135417   3.565   4.183  12.071 -2.0788 -0.3253 -3.4810
 4642TIP3    H235418   3.636   4.067  12.006  1.4502 -1.1021  1.4158
 4643TIP3   OH235419   0.956   5.573  13.921 -0.2905  0.6623  0.1407
 4643TIP3    H135420   0.896   5.520  13.973 -0.8901  0.1249 -1.0612
 4643TIP3    H235421   0.937   5.663  13.946 -0.7293  0.4254  0.6683
 4644TIP3   OH235422   6.798   3.416   3.279 -0.3751 -0.8096  0.7246
 4644TIP3    H135423   6.825   3.336   3.325 -1.2516 -2.0186 -0.8050
 4644TIP3    H235424   6.828   3.403   3.189  0.1128  0.9170  0.6253
 4645TIP3   OH235425   1.729   4.927  12.394 -0.1374  0.3902  0.3276
 4645TIP3    H135426   1.736   4.839  12.356 -0.1027 -0.2005  1.6666
 4645TIP3    H235427   1.637   4.934  12.422 -0.2694  0.9797 -0.2451
 4646TIP3   OH235428   5.224   4.898  11.685  0.2804  0.2206  0.0011
 4646TIP3    H135429   5.218   4.859  11.598  1.3924 -0.9787  0.4423
 4646TIP3    H235430   5.280   4.838  11.734  0.6225  1.5011  1.2010
 4647TIP3   OH235431   3.219   2.150  14.078  0.1636 -0.0001 -0.0115
 4647TIP3    H135432   3.254   2.238  14.063  0.7913 -0.1321  0.6600
 4647TIP3    H235433   3.156   2.161  14.148  0.7687 -0.2005  0.5715
 4648TIP3   OH235434   2.579   2.733  15.656  0.3452 -0.1145  0.4732
 4648TIP3    H135435   2.571   2.820  15.615 -0.6782 -0.5819 -0.3220
 4648TIP3    H235436   2.562   2.671  15.585 -0.4350 -0.9517  1.3864
 4649TIP3   OH235437   5.932   1.779  16.230  0.0621 -0.2202 -0.1531
 4649TIP3    H135438   5.853   1.732  16.253 -0.8444  0.8427 -1.0489
 4649TIP3    H235439   5.982   1.785  16.312 -0.6664 -1.0933  0.3533
 4650TIP3   OH235440   1.281   2.428  14.170 -0.2834  0.4162 -0.1130
 4650TIP3    H135441   1.233   2.403  14.091  0.5700  0.7183 -0.7377
 4650TIP3    H235442   1.298   2.521  14.159 -1.3097  0.7562  1.0555
 4651TIP3   OH235443   6.586   2.690  13.951 -0.0759  0.0345 -0.0962
 4651TIP3    H135444   6.581   2.783  13.930 -0.3984  0.0200 -0.0809
 4651TIP3    H235445   6.608   2.647  13.869  1.7597  0.2933  0.2356
 4652TIP3   OH235446   1.529   0.411   5.366 -0.3203  0.3727  0.5321
 4652TIP3    H135447   1.545   0.436   5.275  0.7679 -1.3865  0.2187
 4652TIP3    H235448   1.602   0.451   5.414 -1.1974  1.7708  0.7397
 4653TIP3   OH235449   3.581   2.881   2.066 -0.2409 -0.2100 -0.3768
 4653TIP3    H135450   3.600   2.791   2.042 -3.4620 -0.6882 -1.3010
 4653TIP3    H235451   3.490   2.880   2.096  0.1724  2.4437  1.1326
 4654TIP3   OH235452   4.383   5.484  10.910 -0.3179  0.2915  0.3684
 4654TIP3    H135453   4.417   5.574  10.918  0.7249 -0.2604  2.4032
 4654TIP3    H235454   4.453   5.437  10.864 -0.4926  0.3091  0.0817
 4655TIP3   OH235455   5.661   2.795  15.365  0.1005  0.3795  0.3767
 4655TIP3    H135456   5.606   2.784  15.443  1.4133 -2.6690  0.9386
 4655TIP3    H235457   5.748   2.813  15.399  0.9045 -2.0380 -0.3211
 4656TIP3   OH235458   5.673   4.763  14.773 -0.6850  0.4862  0.3612
 4656TIP3    H135459   5.647   4.676  14.805  0.8624 -0.3489 -0.5904
 4656TIP3    H235460   5.600   4.820  14.797 -1.5281 -0.9907  1.3951
 4657TIP3   OH235461   3.116   4.028   5.720 -0.1310  0.2349 -0.4507
 4657TIP3    H135462   3.030   3.993   5.695 -0.1165 -0.1179 -0.0309
 4657TIP3    H235463   3.132   4.099   5.659  0.7582 -1.8077 -2.6959
 4658TIP3   OH235464   4.041   3.213   1.385  0.2673 -0.6460 -0.0330
 4658TIP3    H135465   4.015   3.264   1.463 -1.3977  1.5894 -1.9652
 4658TIP3    H235466   4.136   3.208   1.390  0.1654 -0.7957  2.2984
 4659TIP3   OH235467   0.166   4.168   4.977 -0.0724 -0.9938  0.6972
 4659TIP3    H135468   0.234   4.199   5.037 -0.1079  0.3322  0.0836
 4659TIP3    H235469   0.156   4.240   4.914 -1.2603 -1.6414  0.1336
 4660TIP3   OH235470   1.227   0.925   3.797  0.1873  0.6701 -0.1151
 4660TIP3    H135471   1.184   0.938   3.713 -3.3371  0.5789  1.5862
 4660TIP3    H235472   1.220   0.831   3.813  1.0153  0.6565  0.2014
 4661TIP3   OH235473   1.088   6.171  12.645 -0.4761 -0.1122  0.2788
 4661TIP3    H135474   1.179   6.146  12.658 -0.2863  0.8270  0.8176
 4661TIP3    H235475   1.061   6.207  12.729 -1.0500  0.5051 -0.1689
 4662TIP3   OH235476   3.721   6.790  15.483  0.1295 -0.6178 -0.3583
 4662TIP3    H135477   3.738   6.838  15.564 -0.5799  0.4762 -0.8511
 4662TIP3    H235478   3.803   6.793  15.434  0.7576 -1.8326  0.5907
 4663TIP3   OH235479   6.671   6.344  14.423 -0.4538 -0.3881 -0.2393
 4663TIP3    H135480   6.594   6.401  14.422 -0.6233 -0.6092 -2.3827
 4663TIP3    H235481   6.743   6.400  14.394  0.2779 -0.0981  2.0682
 4664TIP3   OH235482   2.205   6.744   4.329 -0.4829 -0.3050  0.6653
 4664TIP3    H135483   2.255   6.671   4.366 -1.3112 -0.3857  1.6299
 4664TIP3    H235484   2.232   6.820   4.380 -0.6678 -0.1807  0.5773
 4665TIP3   OH235485   1.750   5.973   2.952 -0.1261  0.1408 -0.0791
 4665TIP3    H135486   1.678   6.035   2.938 -0.0265  0.0264 -1.1540
 4665TIP3    H235487   1.730   5.900   2.893 -0.6595 -1.2299  1.7551
 4666TIP3   OH235488   6.042   4.931  17.084 -0.6109  0.1444  0.3858
 4666TIP3    H135489   6.092   4.986  17.024  0.8654 -2.3734 -0.7885
 4666TIP3    H235490   5.960   4.914  17.039  0.4410 -1.6357 -0.9359
 4667TIP3   OH235491   5.515   5.166  12.518  0.0563  0.0563  0.3211
 4667TIP3    H135492   5.505   5.074  12.493  1.4858 -0.2374  0.8257
 4667TIP3    H235493   5.608   5.185  12.503 -0.5417  1.8713 -1.3002
 4668TIP3   OH235494   6.515   3.724  13.026 -0.0147 -0.6029  0.9072
 4668TIP3    H135495   6.452   3.653  13.014 -1.4646  0.6803  0.7122
 4668TIP3    H235496   6.544   3.746  12.937 -0.8044  0.1225  0.8208
 4669TIP3   OH235497   1.915   0.260   1.976 -0.1767  0.2364  0.0997
 4669TIP3    H135498   1.993   0.214   1.944 -0.9712 -0.5391 -0.7460
 4669TIP3    H235499   1.847   0.239   1.912 -0.9416  1.3568  0.5356
 4670TIP3   OH235500   6.693   4.765   4.610 -0.1347  0.3345 -0.7697
 4670TIP3    H135501   6.779   4.740   4.577 -0.6795  0.5048 -2.3771
 4670TIP3    H235502   6.707   4.784   4.702  1.5770  0.4709 -1.0454
 4671TIP3   OH235503   0.624   0.295  10.996  0.3647  0.5526  0.1685
 4671TIP3    H135504   0.589   0.215  11.036  0.5719 -0.1849 -1.0920
 4671TIP3    H235505   0.567   0.365  11.029  1.6874  0.2502  3.2633
 4672TIP3   OH235506   5.979   0.340   4.411 -0.4356  0.0925 -0.1978
 4672TIP3    H135507   6.006   0.431   4.423 -0.0648 -0.0225 -0.1333
 4672TIP3    H235508   5.888   0.345   4.383 -0.5736  0.4570  0.3246
 4673TIP3   OH235509   3.261   2.657   0.497 -0.5294  0.2485 -0.2215
 4673TIP3    H135510   3.338   2.702   0.463  0.1209 -1.3422 -0.8846
 4673TIP3    H235511   3.243   2.587   0.434 -2.0725  0.1407  0.3088
 4674TIP3   OH235512   5.424   6.606   0.374  0.5815 -0.3904 -0.0865
 4674TIP3    H135513   5.391   6.653   0.451  1.8084 -1.6007  1.2074
 4674TIP3    H235514   5.397   6.660   0.300  0.5291  1.5137  1.2703
 4675TIP3   OH235515   2.346   6.441   5.607  0.2862 -0.0045  0.0163
 4675TIP3    H135516   2.351   6.351   5.576 -0.8124 -0.2526  0.5712
 4675TIP3    H235517   2.436   6.474   5.596  0.6348 -1.0687 -0.4328
 4676TIP3   OH235518   2.484   3.609   1.307 -0.3273  0.1031  0.0945
 4676TIP3    H135519   2.568   3.564   1.320 -0.3973 -0.6187 -1.8265
 4676TIP3    H235520   2.486   3.681   1.370  1.2972 -0.5067  0.7780
 4677TIP3   OH235521   1.595   5.573  15.123 -0.5247 -0.0852 -0.1238
 4677TIP3    H135522   1.602   5.618  15.039 -0.9392 -0.3282 -0.2925
 4677TIP3    H235523   1.632   5.486  15.107  0.3598  0.2297  0.2263
 4678TIP3   OH235524   1.475   2.296   5.610 -0.0776 -0.0859 -0.1825
 4678TIP3    H135525   1.510   2.334   5.690 -0.6359  0.9032 -0.3924
 4678TIP3    H235526   1.486   2.365   5.544  0.2828 -0.8521 -0.9340
 4679TIP3   OH235527   5.667   2.165   2.924 -0.3575  0.0993 -0.2739
 4679TIP3    H135528   5.587   2.203   2.961 -1.1765 -0.6923 -1.2038
 4679TIP3    H235529   5.689   2.093   2.983 -0.0888  0.5737  0.2133
 4680TIP3   OH235530   2.805   5.745   1.408 -0.1052  0.1381  0.3356
 4680TIP3    H135531   2.889   5.774   1.443 -0.0698  0.5505 -0.0701
 4680TIP3    H235532   2.741   5.804   1.447 -0.2280 -0.3180  0.8144
 4681TIP3   OH235533   1.093   5.397   4.410  0.0490 -0.1032 -0.7319
 4681TIP3    H135534   1.082   5.304   4.394 -0.6000 -0.2516  0.5432
 4681TIP3    H235535   1.079   5.438   4.325 -2.7566 -0.9184 -0.7195
 4682TIP3   OH235536   2.670   3.535  14.134  0.2874 -0.0160 -0.3722
 4682TIP3    H135537   2.612   3.460  14.148 -0.7448  0.9160  0.4288
 4682TIP3    H235538   2.758   3.499  14.146 -0.1927 -1.1153 -0.0374
 4683TIP3   OH235539   3.313   6.404   2.472 -0.2009  0.5726 -0.5971
 4683TIP3    H135540   3.220   6.387   2.461  0.2029 -2.4422  0.0701
 4683TIP3    H235541   3.341   6.342   2.540  2.1589  1.8495 -0.3412
 4684TIP3   OH235542   4.306   6.612  11.545  0.2866 -0.3193  0.4431
 4684TIP3    H135543   4.376   6.583  11.487  0.1311 -0.7525  0.4704
 4684TIP3    H235544   4.305   6.708  11.535  0.6227 -0.3441  0.1513
 4685TIP3   OH235545   3.018   2.494  10.596 -0.2360  0.1770 -0.1572
 4685TIP3    H135546   3.021   2.418  10.654  1.6878  0.9739  0.8334
 4685TIP3    H235547   2.956   2.554  10.637 -2.3857 -1.1424 -1.3631
 4686TIP3   OH235548   4.883   4.127   4.048 -0.5710  0.1946 -0.8041
 4686TIP3    H135549   4.802   4.132   4.100 -0.5054  0.2178 -0.7034
 4686TIP3    H235550   4.897   4.216   4.016 -2.3588 -0.4378 -3.5296
 4687TIP3   OH235551   4.784   2.467   1.453 -0.4547  0.2783  0.0413
 4687TIP3    H135552   4.759   2.495   1.541  0.7980  4.7597 -0.8952
 4687TIP3    H235553   4.720   2.509   1.395  0.2271 -0.5441 -1.3432
 4688TIP3   OH235554   3.437   3.246  15.723 -0.3761  0.1561 -0.3144
 4688TIP3    H135555   3.385   3.167  15.707  1.8110 -1.6180  0.9421
 4688TIP3    H235556   3.441   3.289  15.638 -0.8597 -1.5859 -1.2499
 4689TIP3   OH235557   5.386   6.028  14.126 -0.8168  0.4859 -0.4485
 4689TIP3    H135558   5.354   6.061  14.042 -1.7179  1.0511  0.1207
 4689TIP3    H235559   5.432   6.102  14.165 -0.7568  0.3454 -0.2520
 4690TIP3   OH235560   2.415   4.217  10.450 -0.4029  0.1944  0.4253
 4690TIP3    H135561   2.509   4.227  10.463 -0.0832  0.9363 -2.2290
 4690TIP3    H235562   2.407   4.157  10.376 -1.9396  2.7053 -1.5106
 4691TIP3   OH235563   1.183   3.673   3.248 -0.1739 -0.2245  0.2651
 4691TIP3    H135564   1.213   3.731   3.318  1.0964 -0.3677 -0.1459
 4691TIP3    H235565   1.209   3.586   3.277 -1.1650 -0.4824  0.4005
 4692TIP3   OH235566   3.955   5.516  15.729  0.0340  0.8073  0.0748
 4692TIP3    H135567   3.914   5.430  15.737  1.1177  0.2327 -0.3352
 4692TIP3    H235568   3.969   5.528  15.635 -2.0844  2.3993 -0.0589
 4693TIP3   OH235569   5.687   1.742  11.775  0.2523  0.1163  0.7342
 4693TIP3    H135570   5.685   1.825  11.728 -2.5502 -0.8018 -0.9204
 4693TIP3    H235571   5.709   1.677  11.708 -2.2705 -1.0230  0.9358
 4694TIP3   OH235572   6.092   3.859  15.954 -0.2489  0.6652  0.6321
 4694TIP3    H135573   6.185   3.844  15.935 -0.6829 -2.2679  0.6466
 4694TIP3    H235574   6.057   3.895  15.873  0.7358  1.0364  0.3578
 4695TIP3   OH235575   0.980   0.127  16.428  0.0835  0.1965  0.1346
 4695TIP3    H135576   0.991   0.219  16.405  1.2534  0.0728  0.1618
 4695TIP3    H235577   1.000   0.080  16.347  2.2793 -0.1512  0.8422
 4696TIP3   OH235578   5.143   0.957  15.797  0.4695  1.1709  0.1136
 4696TIP3    H135579   5.157   0.870  15.834  2.4767  1.3694 -0.1135
 4696TIP3    H235580   5.117   1.011  15.872  1.5654  0.9010  0.6939
 4697TIP3   OH235581   4.886   3.811   4.573 -0.4916 -0.2857  1.0455
 4697TIP3    H135582   4.839   3.828   4.492  2.2832  0.2899 -0.4742
 4697TIP3    H235583   4.899   3.716   4.574 -1.2384 -0.3920  1.2469
 4698TIP3   OH235584   4.635   1.384   4.029  0.2773  0.1771  0.1164
 4698TIP3    H135585   4.673   1.347   4.109  0.9104 -1.3876 -0.8871
 4698TIP3    H235586   4.648   1.316   3.963 -2.0867  0.6017 -0.8438
 4699TIP3   OH235587   0.222   4.246  16.884  0.0184 -0.5210  0.0846
 4699TIP3    H135588   0.247   4.177  16.823  2.8887  0.4426  0.0750
 4699TIP3    H235589   0.225   4.326  16.832  2.2359  0.2772  1.3435
 4700TIP3   OH235590   3.097   2.823   1.513  0.1508 -0.1971 -0.4093
 4700TIP3    H135591   3.025   2.875   1.548  0.8924 -0.1309  1.0450
 4700TIP3    H235592   3.055   2.742   1.483 -0.8640  0.7983 -1.8024
 4701TIP3   OH235593   5.652   1.568  14.487 -0.1090  0.2664 -0.5189
 4701TIP3    H135594   5.645   1.481  14.447 -0.4543 -0.1111  0.3403
 4701TIP3    H235595   5.596   1.624  14.434 -0.5224 -0.2167 -0.5932
 4702TIP3   OH235596   1.312   6.160   3.131  0.1744  0.1738  0.2500
 4702TIP3    H135597   1.404   6.133   3.124  0.3109  0.4312  1.0775
 4702TIP3    H235598   1.272   6.095   3.189  0.2887  1.1972  1.4851
 4703TIP3   OH235599   4.423   0.363  13.776  0.4486 -0.1459 -0.1052
 4703TIP3    H135600   4.365   0.332  13.707  1.2980 -1.8752 -0.0767
 4703TIP3    H235601   4.405   0.457  13.783 -1.8563 -0.5333 -0.5420
 4704TIP3   OH235602   5.916   1.173  17.008 -0.0651 -1.1810 -0.2456
 4704TIP3    H135603   5.973   1.172  16.931  0.0055 -3.5565 -0.1946
 4704TIP3    H235604   5.840   1.121  16.982 -0.5508 -1.0638  0.9192
 4705TIP3   OH235605   5.349   3.358   0.856 -0.2114  0.0341  0.8878
 4705TIP3    H135606   5.261   3.325   0.875 -0.3672 -0.1774 -0.1833
 4705TIP3    H235607   5.350   3.446   0.893 -0.8648  0.0245  0.9377
 4706TIP3   OH235608   5.655   2.206  13.386 -0.3843  0.0160  0.3935
 4706TIP3    H135609   5.724   2.272  13.379 -1.1032  1.0964  2.8302
 4706TIP3    H235610   5.579   2.246  13.343  0.2800 -0.9086 -1.7066
 4707TIP3   OH235611   5.290   6.454   1.273  0.2172  0.1423 -0.4607
 4707TIP3    H135612   5.206   6.437   1.230  0.2234 -0.3041 -0.2889
 4707TIP3    H235613   5.309   6.374   1.321  0.4201  0.4880  0.0331
 4708TIP3   OH235614   1.155   1.472   4.084  0.0612  0.4372  0.0673
 4708TIP3    H135615   1.112   1.395   4.122  1.3210 -1.5927 -2.5059
 4708TIP3    H235616   1.088   1.512   4.029  0.4136 -0.7777 -1.2636
 4709TIP3   OH235617   1.261   4.021   2.044  0.4793  0.3590 -0.0533
 4709TIP3    H135618   1.204   3.991   1.973  0.5940 -0.4760  0.2010
 4709TIP3    H235619   1.218   4.099   2.078  1.1630  1.6371 -1.9978
 4710TIP3   OH235620   2.280   6.482  12.175 -0.1670 -0.3303  0.0529
 4710TIP3    H135621   2.340   6.502  12.102  0.5131  1.9398  1.1690
 4710TIP3    H235622   2.338   6.466  12.249 -0.8974  0.8802  0.9040
 4711TIP3   OH235623   0.548   4.290   3.117 -0.2914 -0.2309  0.0954
 4711TIP3    H135624   0.583   4.318   3.201  0.7291  2.2919 -1.1370
 4711TIP3    H235625   0.454   4.310   3.122 -0.3790 -0.7927  0.8774
 4712TIP3   OH235626   5.782   3.232   4.249  0.0347 -0.2967 -0.0290
 4712TIP3    H135627   5.757   3.287   4.176  1.1277 -2.4560 -2.1088
 4712TIP3    H235628   5.878   3.224   4.242 -0.0354 -1.9617  0.5153
 4713TIP3   OH235629   3.154   5.513   3.264 -0.1210 -0.5175  0.3260
 4713TIP3    H135630   3.166   5.578   3.194 -0.5956 -1.9113 -1.0915
 4713TIP3    H235631   3.122   5.564   3.338 -1.8828  0.6886 -1.1985
 4714TIP3   OH235632   5.162   1.985   1.767 -0.6452 -0.1816  0.2923
 4714TIP3    H135633   5.075   1.971   1.806 -1.2065  1.4327 -0.3214
 4714TIP3    H235634   5.204   2.048   1.826 -0.7322  0.7092 -0.5815
 4715TIP3   OH235635   0.107   3.744  16.567 -0.5679  0.4090 -0.0109
 4715TIP3    H135636   0.032   3.690  16.541 -0.0083 -0.8380  0.9092
 4715TIP3    H235637   0.165   3.683  16.613 -0.4918  2.0682  2.1416
 4716TIP3   OH235638   1.992   5.742   6.044  0.0642 -0.7846 -0.1685
 4716TIP3    H135639   1.903   5.722   6.075  0.0875 -0.3440  0.1821
 4716TIP3    H235640   1.983   5.745   5.949 -0.6785  1.0409 -0.0604
 4717TIP3   OH235641   2.190   2.393   4.240 -0.6060 -0.0631 -0.4476
 4717TIP3    H135642   2.165   2.365   4.151  2.5852  0.6205 -1.6292
 4717TIP3    H235643   2.284   2.375   4.244 -0.4445  1.3118  2.3024
 4718TIP3   OH235644   1.733   0.815   3.701  0.4324  0.3113  0.2134
 4718TIP3    H135645   1.724   0.870   3.623  0.5887  0.0589  0.0177
 4718TIP3    H235646   1.709   0.873   3.773 -1.0379  0.1614 -0.1334
 4719TIP3   OH235647   2.979   0.152  11.415 -0.0049 -0.6401  0.0156
 4719TIP3    H135648   3.027   0.164  11.497  0.6082 -0.8436 -0.3110
 4719TIP3    H235649   2.952   0.061  11.416 -0.0685 -0.6207  0.0338
 4720TIP3   OH235650   4.978   2.530   5.614  0.5083 -0.2332 -0.3891
 4720TIP3    H135651   5.015   2.485   5.538  1.1097 -0.1051 -0.1729
 4720TIP3    H235652   4.893   2.489   5.627 -0.2164  0.6930 -2.0027
 4721TIP3   OH235653   3.082   2.750   3.449 -0.1740 -0.1033  0.1288
 4721TIP3    H135654   3.146   2.814   3.478 -0.6779  0.8524 -0.8550
 4721TIP3    H235655   3.009   2.801   3.413 -1.1775 -1.1841  0.5529
 4722TIP3   OH235656   5.781   1.992   1.356 -0.3689  0.5509 -0.1039
 4722TIP3    H135657   5.838   2.069   1.349  2.2413 -1.2156  0.9831
 4722TIP3    H235658   5.760   1.986   1.449 -1.0124  0.2611 -0.2630
 4723TIP3   OH235659   1.950   0.837  17.054 -0.1611  0.1790  0.1790
 4723TIP3    H135660   2.039   0.869  17.065 -0.8061  1.5805  1.4715
 4723TIP3    H235661   1.898   0.915  17.038 -1.1873 -0.6231 -0.5511
 4724TIP3   OH235662   1.945   2.919  16.817 -0.0811 -0.6857  0.2041
 4724TIP3    H135663   1.924   2.950  16.905  1.4638  0.5050  0.1779
 4724TIP3    H235664   1.988   2.993  16.775 -1.8202 -0.8674 -1.9552
 4725TIP3   OH235665   5.328   5.449   5.036  0.0658 -0.8085  0.2222
 4725TIP3    H135666   5.249   5.402   5.009 -0.9435 -0.1018  1.8756
 4725TIP3    H235667   5.324   5.532   4.988 -0.2190 -0.7680  0.3107
 4726TIP3   OH235668   2.820   6.490   3.281  0.8369  0.3601  0.2987
 4726TIP3    H135669   2.731   6.458   3.264  0.5326  0.5722  1.4238
 4726TIP3    H235670   2.849   6.526   3.198 -0.2423  0.5269 -0.0148
 4727TIP3   OH235671   4.492   2.964  16.975  0.4804  0.0591 -0.9706
 4727TIP3    H135672   4.570   2.982  17.028 -1.0468 -0.9975  1.7386
 4727TIP3    H235673   4.459   2.881  17.008 -2.7060  1.2431 -0.9602
 4728TIP3   OH235674   5.922   0.613   2.296  0.8034 -0.4786  1.1384
 4728TIP3    H135675   5.869   0.687   2.266  1.5945 -0.2494  0.2555
 4728TIP3    H235676   5.877   0.580   2.373  0.4009  0.8991  1.5085
 4729TIP3   OH235677   6.005   5.794   0.400  0.1112  0.0663 -0.2785
 4729TIP3    H135678   6.030   5.712   0.444 -1.1365  0.0599  0.4303
 4729TIP3    H235679   6.020   5.862   0.466  2.2422  0.5847 -1.2319
 4730TIP3   OH235680   6.405   0.042  16.693 -0.0271  0.2298  0.2753
 4730TIP3    H135681   6.443  -0.045  16.705 -0.4082  0.2465  1.6501
 4730TIP3    H235682   6.448   0.075  16.614  0.0986 -1.2054 -0.2838
 4731TIP3   OH235683   3.564   0.271   4.748  0.0104 -0.3007 -0.5085
 4731TIP3    H135684   3.637   0.211   4.732  0.9311  0.7360 -0.2653
 4731TIP3    H235685   3.525   0.284   4.662  0.8856  0.1199 -0.8430
 4732TIP3   OH235686   5.074   0.887  14.588  0.4490  0.3932 -0.0500
 4732TIP3    H135687   5.022   0.946  14.642  0.9641 -0.5350  1.4742
 4732TIP3    H235688   5.164   0.919  14.598  0.7059 -0.5456  0.6476
 4733TIP3   OH235689   1.660   3.211  16.235 -0.7354 -0.4178  0.3955
 4733TIP3    H135690   1.683   3.303  16.223 -0.9671 -0.2581  1.1249
 4733TIP3    H235691   1.684   3.192  16.326  0.5970 -1.4625 -0.1567
 4734TIP3   OH235692   2.142   2.639   0.524  0.2191 -0.0559  0.4122
 4734TIP3    H135693   2.070   2.582   0.553 -1.2515  1.9050  0.7428
 4734TIP3    H235694   2.215   2.580   0.509 -0.8950 -1.8926  1.9727
 4735TIP3   OH235695   1.360   1.595   4.469  0.3168 -0.0794  0.5163
 4735TIP3    H135696   1.297   1.576   4.539 -0.1101  1.3851  0.5284
 4735TIP3    H235697   1.313   1.652   4.409  1.3341  0.2559  0.0315
 4736TIP3   OH235698   2.690   3.501  14.524 -0.0311  0.4632  0.9890
 4736TIP3    H135699   2.616   3.471  14.577 -0.3262  0.5303  0.6207
 4736TIP3    H235700   2.758   3.436  14.538 -0.8626 -0.7045 -0.2699
 4737TIP3   OH235701   0.051   0.427  13.498  0.1237 -0.1945 -0.1976
 4737TIP3    H135702   0.057   0.402  13.406 -1.2240 -0.4805 -0.2110
 4737TIP3    H235703  -0.004   0.506  13.498 -0.5085 -0.6291  0.4306
 4738TIP3   OH235704   6.291   5.145  16.334  0.0031 -0.2681 -0.4179
 4738TIP3    H135705   6.281   5.053  16.358 -3.0889  0.0868 -0.0816
 4738TIP3    H235706   6.270   5.193  16.415  0.5051  0.7430 -0.8801
 4739TIP3   OH235707   3.568   3.703  11.807 -0.9390 -0.4686  0.2996
 4739TIP3    H135708   3.600   3.784  11.846 -1.3553 -0.6378  1.0130
 4739TIP3    H235709   3.638   3.674  11.750 -0.4681 -0.0141  0.6470
 4740TIP3   OH235710   1.670   3.846  13.394 -0.4253  0.2441  0.5110
 4740TIP3    H135711   1.705   3.860  13.306  0.4834  0.1186  0.8498
 4740TIP3    H235712   1.589   3.897  13.396 -0.0693  0.8385 -0.1503
 4741TIP3   OH235713   2.661   3.438   5.251  0.3588  0.4663  0.4877
 4741TIP3    H135714   2.669   3.361   5.195  2.3955 -0.0159  1.3734
 4741TIP3    H235715   2.751   3.459   5.275 -0.2812  2.3346  1.3355
 4742TIP3   OH235716   2.216   1.140   5.391 -0.3226  0.4994  0.0604
 4742TIP3    H135717   2.153   1.158   5.321  0.6488 -0.5000 -1.0760
 4742TIP3    H235718   2.289   1.199   5.374  0.9926 -1.4508 -1.2058
 4743TIP3   OH235719   0.661   5.750  10.567  0.3416  0.2447 -0.1361
 4743TIP3    H135720   0.734   5.693  10.590  0.5591  0.2262 -0.8721
 4743TIP3    H235721   0.601   5.693  10.519 -1.8457 -0.6710  3.4740
 4744TIP3   OH235722   3.259   3.542  15.719 -0.4808  0.4886  0.0775
 4744TIP3    H135723   3.352   3.520  15.715 -0.8026 -0.6594 -1.7582
 4744TIP3    H235724   3.251   3.625  15.672 -0.5527 -0.0358 -0.8453
 4745TIP3   OH235725   5.270   4.083  16.042  0.4061 -0.2971  0.6213
 4745TIP3    H135726   5.321   4.071  15.963 -0.8459  1.4035 -0.4910
 4745TIP3    H235727   5.303   4.017  16.103  1.6798 -1.3279 -1.1573
 4746TIP3   OH235728   0.322   4.963   6.422 -0.8066 -0.1347  0.1060
 4746TIP3    H135729   0.301   5.052   6.452 -1.3265 -0.6443  1.2783
 4746TIP3    H235730   0.242   4.933   6.379 -0.4991  0.1098 -0.6375
 4747TIP3   OH235731   0.592   5.592   4.577 -0.0564 -0.6413  0.0448
 4747TIP3    H135732   0.617   5.649   4.505  0.7260 -1.3903 -0.2909
 4747TIP3    H235733   0.556   5.514   4.534  0.0696 -0.9355  0.4697
 4748TIP3   OH235734   3.270   2.485  11.154 -0.5183  0.2692  0.0079
 4748TIP3    H135735   3.358   2.520  11.168  0.0897 -1.4827  0.7620
 4748TIP3    H235736   3.246   2.447  11.239 -1.5992 -0.1243 -0.4668
 4749TIP3   OH235737   0.012   3.245   4.715  0.2403 -0.0373 -0.5237
 4749TIP3    H135738   0.106   3.232   4.729  0.2356  0.3219 -0.1681
 4749TIP3    H235739  -0.000   3.230   4.621  0.7632  0.5974 -0.6976
 4750TIP3   OH235740   6.232   6.359  16.423  0.1210  0.0055 -0.3612
 4750TIP3    H135741   6.234   6.436  16.479 -0.8596  1.6320 -2.5109
 4750TIP3    H235742   6.140   6.335  16.417  0.5361 -2.2947  1.4981
 4751TIP3   OH235743   0.371   3.665  17.211 -0.3919 -0.3051 -0.3933
 4751TIP3    H135744   0.363   3.749  17.255 -1.9769 -0.1472 -0.9500
 4751TIP3    H235745   0.450   3.625  17.249 -0.3632  0.8606  0.8069
 4752TIP3   OH235746   0.956   0.603  13.170 -0.5911  0.3316 -0.1690
 4752TIP3    H135747   1.049   0.611  13.149 -1.0047  1.2825 -1.7162
 4752TIP3    H235748   0.953   0.604  13.266  1.0113 -0.0533 -0.1024
 4753TIP3   OH235749   1.512   1.133   4.221 -0.2870 -0.0944  0.3111
 4753TIP3    H135750   1.570   1.096   4.287 -1.0362 -2.2771 -0.1997
 4753TIP3    H235751   1.558   1.209   4.188  1.1088 -0.2970  1.7294
 4754TIP3   OH235752   2.099   3.416  15.435 -0.0896  0.0009  0.1514
 4754TIP3    H135753   2.033   3.435  15.502  2.1315  1.7189  1.9106
 4754TIP3    H235754   2.136   3.501  15.412  0.5874 -0.7850 -1.8222
 4755TIP3   OH235755   5.863   0.498  12.330  0.0620 -0.0171 -0.7416
 4755TIP3    H135756   5.951   0.523  12.303 -0.0322  1.1264 -0.0202
 4755TIP3    H235757   5.829   0.575  12.375 -0.4440 -1.2631  1.0508
 4756TIP3   OH235758   5.957   1.861   2.282 -0.9490  0.4465 -0.1400
 4756TIP3    H135759   6.009   1.831   2.356 -2.1092 -0.9956  0.1206
 4756TIP3    H235760   5.896   1.925   2.319 -1.1220  0.1774  0.0405
 4757TIP3   OH235761   3.370   1.518   0.500  0.8940  0.5984 -0.3548
 4757TIP3    H135762   3.285   1.503   0.541  0.8481 -0.5132 -0.8501
 4757TIP3    H235763   3.433   1.515   0.572  0.6761 -0.0565 -0.1942
 4758TIP3   OH235764   5.755   0.968   5.125  0.4375 -0.2493 -0.4122
 4758TIP3    H135765   5.762   0.874   5.144  0.9812 -0.0115  0.6103
 4758TIP3    H235766   5.841   1.003   5.148  0.1348  0.5483 -0.4869
 4759TIP3   OH235767   3.498   3.576   2.860  0.1662 -0.1621  0.0809
 4759TIP3    H135768   3.516   3.541   2.947  1.3684  1.3364  0.4449
 4759TIP3    H235769   3.498   3.499   2.803  0.2467 -1.0508  1.2632
 4760TIP3   OH235770   6.651   0.960  13.096 -0.3028  0.0705 -0.3498
 4760TIP3    H135771   6.564   0.990  13.068 -0.9524  0.0948  1.6039
 4760TIP3    H235772   6.666   0.881  13.045 -1.7524 -0.2822 -0.2542
 4761TIP3   OH235773   5.301   0.210  13.868  0.4770 -0.3908  0.2203
 4761TIP3    H135774   5.300   0.304  13.850  1.7725 -0.5803 -0.9713
 4761TIP3    H235775   5.226   0.196  13.925  0.5943  1.4533  0.8704
 4762TIP3   OH235776   0.839   1.343  16.543  0.3067  0.3987  0.1401
 4762TIP3    H135777   0.781   1.354  16.618 -0.7386  0.1784 -0.6234
 4762TIP3    H235778   0.826   1.422  16.491 -0.8476 -0.5495 -1.0550
 4763TIP3   OH235779   6.415   3.694  14.799 -0.0081 -0.0356  0.2506
 4763TIP3    H135780   6.361   3.706  14.877 -1.6381 -1.6891 -0.5840
 4763TIP3    H235781   6.352   3.684  14.727  1.4085 -1.5597 -0.8127
 4764TIP3   OH235782   3.376   5.469   4.987 -0.2005 -0.3983 -0.7128
 4764TIP3    H135783   3.385   5.375   4.970  0.6116 -0.1527 -1.7239
 4764TIP3    H235784   3.339   5.504   4.906 -1.7817 -0.0458  0.1651
 4765TIP3   OH235785   1.058   4.985   1.042 -0.7394 -0.1332  0.0333
 4765TIP3    H135786   1.144   4.986   1.001 -1.5838 -3.5887 -1.9673
 4765TIP3    H235787   1.076   4.958   1.132  0.3903  0.7186  0.0860
 4766TIP3   OH235788   5.855   4.955  12.311 -0.4715  0.0533 -0.0095
 4766TIP3    H135789   5.883   4.978  12.223 -0.7291  0.7275  0.0826
 4766TIP3    H235790   5.879   5.030  12.365 -1.3227  0.1111  0.2965
 4767TIP3   OH235791   1.937   1.546   3.745 -0.0229 -0.3717 -0.3704
 4767TIP3    H135792   1.866   1.543   3.809  1.1913  1.2399  1.1330
 4767TIP3    H235793   1.909   1.613   3.682  0.7519  1.2655  0.9949
 4768TIP3   OH235794   2.220   5.893  14.658  0.4867  0.3894 -0.1004
 4768TIP3    H135795   2.228   5.924  14.568 -0.4748  1.0143  0.0322
 4768TIP3    H235796   2.180   5.966  14.705 -1.0917 -0.7573  0.3738
 4769TIP3   OH235797   0.870   0.210  11.063 -0.3640  0.1693 -0.2876
 4769TIP3    H135798   0.864   0.114  11.056 -1.6647  0.2344 -0.2142
 4769TIP3    H235799   0.779   0.240  11.058  0.1796  1.5709 -2.5181
 4770TIP3   OH235800   1.067   5.663   5.133 -0.0076  0.8814  0.0747
 4770TIP3    H135801   1.047   5.598   5.066 -1.8065  2.5640 -1.0794
 4770TIP3    H235802   1.062   5.747   5.087  0.5408  1.9505  1.9095
 4771TIP3   OH235803   0.299   3.180  15.738 -0.6775  0.0701  0.1708
 4771TIP3    H135804   0.355   3.250  15.772  0.9871  0.5310 -3.2786
 4771TIP3    H235805   0.225   3.226  15.700 -0.2188 -0.1075 -0.9490
 4772TIP3   OH235806   5.108   0.079   0.881 -0.0978 -0.5013 -0.2652
 4772TIP3    H135807   5.203   0.075   0.867  0.2235  1.1127  1.2527
 4772TIP3    H235808   5.071   0.079   0.793  1.3746  0.1162 -0.8965
 4773TIP3   OH235809   0.836   0.505   5.189  0.1986  0.0008  0.6448
 4773TIP3    H135810   0.928   0.519   5.167 -0.1570  1.2253 -0.1354
 4773TIP3    H235811   0.799   0.593   5.194 -0.7508 -0.4449  1.7866
 4774TIP3   OH235812   4.724   1.097   3.384  0.2116 -0.4554  0.1158
 4774TIP3    H135813   4.795   1.053   3.337  1.2304  0.9102  0.3515
 4774TIP3    H235814   4.763   1.124   3.467 -0.4053  0.8561 -0.0064
 4775TIP3   OH235815   4.598   6.268  15.538  0.1267 -0.2484  0.6965
 4775TIP3    H135816   4.608   6.294  15.447  0.5433 -0.0327  0.8060
 4775TIP3    H235817   4.569   6.176  15.534  0.7347 -0.4224  0.3665
 4776TIP3   OH235818   3.405   4.329  11.994  0.6214  0.3626  0.1502
 4776TIP3    H135819   3.340   4.268  12.030  0.4882  0.1051 -0.5179
 4776TIP3    H235820   3.354   4.399  11.955  0.6399 -1.2780 -2.9354
 4777TIP3   OH235821   0.365   1.572   5.787 -0.0506  0.1528 -0.0533
 4777TIP3    H135822   0.309   1.545   5.714 -0.3581  2.0491 -0.5328
 4777TIP3    H235823   0.389   1.662   5.767 -0.3551  0.7891  2.3414
 4778TIP3   OH235824   0.363   2.391  12.035  0.4528 -0.2657  0.6087
 4778TIP3    H135825   0.329   2.383  12.124 -1.8070  2.3140  0.0558
 4778TIP3    H235826   0.353   2.304  11.997 -0.3775 -0.9061  2.2528
 4779TIP3   OH235827   2.242   2.559  16.344 -0.1051 -0.1038 -0.2688
 4779TIP3    H135828   2.220   2.619  16.415 -1.6441 -0.2422 -0.6008
 4779TIP3    H235829   2.275   2.480  16.387 -1.0252 -0.1868  0.3015
 4780TIP3   OH235830   2.473   2.155  13.683 -0.0294  0.1180  0.3732
 4780TIP3    H135831   2.384   2.119  13.693 -0.1598 -0.1089 -1.4024
 4780TIP3    H235832   2.472   2.236  13.735 -0.5986 -0.9951  2.1234
 4781TIP3   OH235833   0.764   0.648   1.534  0.0951 -0.1107  0.4103
 4781TIP3    H135834   0.689   0.594   1.560  1.1069 -1.1359  1.2848
 4781TIP3    H235835   0.835   0.585   1.521  0.8266  0.8518 -0.3418
 4782TIP3   OH235836   4.267   5.065  17.163  0.7709 -0.6346  0.1506
 4782TIP3    H135837   4.261   5.095  17.254  1.5105 -0.2539  0.0730
 4782TIP3    H235838   4.206   4.991  17.159  1.4038 -1.2312  1.1899
 4783TIP3   OH235839   4.246   6.371   1.964  0.5633 -0.3357 -1.1301
 4783TIP3    H135840   4.315   6.422   2.006  0.6156 -0.1432 -1.4472
 4783TIP3    H235841   4.252   6.284   2.004 -0.4830  0.3122  0.4830
 4784TIP3   OH235842   6.285   1.069  13.276 -0.3219 -0.1925 -0.4603
 4784TIP3    H135843   6.365   1.018  13.287 -0.0156  0.0321 -1.6093
 4784TIP3    H235844   6.259   1.092  13.365  0.9249 -0.2047 -0.0848
 4785TIP3   OH235845   5.464   0.485  16.189  0.2606  0.5500 -0.1461
 4785TIP3    H135846   5.427   0.570  16.164  1.4651  0.9537 -0.6017
 4785TIP3    H235847   5.540   0.508  16.243  0.2259 -0.2511  0.2480
 4786TIP3   OH235848   2.343   4.102   1.992 -0.0481  0.1336 -0.5684
 4786TIP3    H135849   2.280   4.049   1.944 -0.0516 -0.2163 -0.1867
 4786TIP3    H235850   2.348   4.184   1.944 -0.2700 -0.1037 -0.9950
 4787TIP3   OH235851   1.662   0.034  15.260 -0.7007 -0.3287 -0.4445
 4787TIP3    H135852   1.725   0.096  15.225 -1.2268 -0.1421 -1.0859
 4787TIP3    H235853   1.596   0.088  15.304 -0.2181 -0.5433  0.5505
 4788TIP3   OH235854   2.348   3.950  15.149 -0.5851 -0.0620  0.2709
 4788TIP3    H135855   2.286   4.007  15.105 -0.5302 -0.7242 -0.6779
 4788TIP3    H235856   2.382   3.894  15.079  0.2627 -0.4319  0.9780
 4789TIP3   OH235857   2.969   5.107  13.513 -0.2964 -0.1949 -0.5208
 4789TIP3    H135858   3.062   5.084  13.517 -0.2042  0.1443 -0.6981
 4789TIP3    H235859   2.928   5.051  13.578  0.2484  0.6856  0.6053
 4790TIP3   OH235860   0.948   6.465   0.098  0.3712  0.5860 -0.3489
 4790TIP3    H135861   0.920   6.483   0.187 -0.4206  0.0165 -0.4723
 4790TIP3    H235862   1.009   6.536   0.076 -0.4904  1.4885  0.1534
 4791TIP3   OH235863   6.129   1.915   6.352 -0.6816  0.5881  0.3090
 4791TIP3    H135864   6.110   1.833   6.397 -0.5732  0.0864 -0.5423
 4791TIP3    H235865   6.048   1.966   6.358 -1.9703 -1.0500 -2.2683
 4792TIP3   OH235866   5.798   4.445  13.860  0.3481  0.2646  0.2045
 4792TIP3    H135867   5.702   4.453  13.854  0.1900  0.2227  2.2464
 4792TIP3    H235868   5.829   4.535  13.868  0.5125  0.3055 -0.9466
 4793TIP3   OH235869   4.107   3.917   1.962  0.0382 -0.0650  0.5571
 4793TIP3    H135870   4.165   3.983   1.925  1.1928 -1.8295 -0.8440
 4793TIP3    H235871   4.165   3.858   2.010 -0.7179 -1.1706  0.1362
 4794TIP3   OH235872   6.200   2.152  14.487 -0.1271  0.1495  0.2938
 4794TIP3    H135873   6.166   2.081  14.433 -0.8473  0.1393  0.7621
 4794TIP3    H235874   6.144   2.153  14.565  0.5814  0.4913  0.8114
 4795TIP3   OH235875   3.314   4.139  17.290 -0.1009 -0.0196  0.2626
 4795TIP3    H135876   3.378   4.202  17.257  0.1944 -0.3787  0.1451
 4795TIP3    H235877   3.282   4.177  17.372 -0.6931  0.7811 -0.3366
 4796TIP3   OH235878   3.880   4.805   3.071  0.3780  0.2030  0.5989
 4796TIP3    H135879   3.957   4.861   3.079  1.8579 -1.7839  0.3984
 4796TIP3    H235880   3.905   4.737   3.008 -0.5743 -2.0586  2.5877
 4797TIP3   OH235881   5.982   1.537  12.350  0.2014 -0.4294  0.3638
 4797TIP3    H135882   5.988   1.538  12.254  1.4777 -0.6823  0.4379
 4797TIP3    H235883   5.897   1.578  12.369  1.1817  2.2644 -0.7596
 4798TIP3   OH235884   4.371   3.892   3.898 -0.4231 -0.7823 -0.0141
 4798TIP3    H135885   4.317   3.818   3.870 -0.0926 -0.9051 -0.3338
 4798TIP3    H235886   4.405   3.866   3.983  1.1443 -1.7758 -0.9213
 4799TIP3   OH235887   3.791   3.775   2.908  0.4360 -0.4645  0.2502
 4799TIP3    H135888   3.758   3.703   2.963  2.2522 -0.2307  1.6879
 4799TIP3    H235889   3.847   3.732   2.844  3.6352 -0.1809  2.7165
 4800TIP3   OH235890   2.747   6.285  16.346  0.0540 -0.1262 -0.1307
 4800TIP3    H135891   2.833   6.283  16.389 -0.6525  0.6244  1.3631
 4800TIP3    H235892   2.694   6.341  16.402 -0.6876  1.5697 -2.4341
 4801TIP3   OH235893   3.218   6.408   0.032  0.4669 -0.3324  0.1180
 4801TIP3    H135894   3.222   6.355   0.111  0.6580 -1.7041 -0.7984
 4801TIP3    H235895   3.308   6.438   0.018  0.2562  0.7342  0.9523
 4802TIP3   OH235896   4.717   6.542  12.948 -0.8775 -0.1931 -0.3166
 4802TIP3    H135897   4.736   6.577  13.035 -0.9443  0.5430 -0.5950
 4802TIP3    H235898   4.731   6.448  12.956  0.7612  0.0583  0.0687
 4803TIP3   OH235899   4.320   2.773  15.277  0.4572 -0.1998  0.3748
 4803TIP3    H135900   4.228   2.800  15.277  0.8655  1.3385 -1.9986
 4803TIP3    H235901   4.323   2.702  15.212  0.9440 -0.1839  0.3808
 4804TIP3   OH235902   3.219   2.681  14.359 -0.1195  0.1738 -0.1200
 4804TIP3    H135903   3.185   2.644  14.440 -0.0352  0.2220 -0.0629
 4804TIP3    H235904   3.195   2.617  14.292 -3.2461  1.7616 -0.5992
 4805TIP3   OH235905   4.579   5.809   5.000 -0.0874 -0.4946 -0.4177
 4805TIP3    H135906   4.600   5.791   5.092  0.3418  0.3006 -0.3550
 4805TIP3    H235907   4.488   5.836   5.002  0.2428  0.6078 -0.0765
 4806TIP3   OH235908   1.829   2.173  16.644  0.8203 -0.8970  0.3479
 4806TIP3    H135909   1.906   2.180  16.588 -0.8700  0.4708 -1.8989
 4806TIP3    H235910   1.787   2.092  16.617 -0.5263  0.2581 -1.1120
 4807TIP3   OH235911   3.718   0.747   1.213 -1.1134 -0.2865  0.0456
 4807TIP3    H135912   3.770   0.823   1.235 -1.3152  0.3404 -1.5495
 4807TIP3    H235913   3.749   0.678   1.272  0.3280  0.5297  0.2581
 4808TIP3   OH235914   0.433   5.679  17.124 -0.5846 -0.1547 -0.4631
 4808TIP3    H135915   0.452   5.587  17.140 -1.2605 -0.6247 -2.2064
 4808TIP3    H235916   0.508   5.710  17.072  0.5395  0.7746  1.6610
 4809TIP3   OH235917   4.851   1.605  15.646  0.1934 -0.4850 -0.0729
 4809TIP3    H135918   4.916   1.646  15.703 -0.8090  1.4375 -0.2956
 4809TIP3    H235919   4.903   1.566  15.575  1.2284 -0.5701  0.7270
 4810TIP3   OH235920   3.614   6.420   1.028  0.5905  0.3587 -0.0103
 4810TIP3    H135921   3.555   6.346   1.015 -0.4168  1.0262  0.6552
 4810TIP3    H235922   3.605   6.441   1.121 -0.2317  2.2412 -0.5033
 4811TIP3   OH235923   2.683   2.917  16.995  0.3104  0.2789  0.0282
 4811TIP3    H135924   2.740   2.894  17.068  1.2153  0.0969 -0.7388
 4811TIP3    H235925   2.634   2.837  16.976 -3.2060  1.4377  3.3147
 4812TIP3   OH235926   0.213   6.693  12.951 -0.1231  0.4268 -0.3541
 4812TIP3    H135927   0.258   6.661  12.873 -0.2932 -0.1953 -0.1951
 4812TIP3    H235928   0.281   6.696  13.018 -0.5324 -1.5332  0.1776
 4813TIP3   OH235929   2.866   1.580   0.073 -0.6733 -0.1484 -0.4620
 4813TIP3    H135930   2.807   1.629   0.015  0.2501  0.3176 -1.0227
 4813TIP3    H235931   2.894   1.505   0.021 -0.1403  0.0676 -0.4914
 4814TIP3   OH235932   4.583   2.178   2.009 -0.4814 -0.4707  0.1519
 4814TIP3    H135933   4.576   2.084   1.996 -1.2596 -0.3035 -0.6580
 4814TIP3    H235934   4.568   2.216   1.923 -0.4259  0.4076  0.5188
 4815TIP3   OH235935   6.700   6.520   1.609 -0.2783  0.0540 -1.0298
 4815TIP3    H135936   6.720   6.541   1.518 -0.2540 -0.1932 -1.0817
 4815TIP3    H235937   6.715   6.602   1.657  0.5303 -0.0492 -1.1135
 4816TIP3   OH235938   3.044   3.571   1.225  0.2687  0.1484  0.1480
 4816TIP3    H135939   3.125   3.549   1.272  0.9101 -0.1946 -1.0945
 4816TIP3    H235940   2.989   3.614   1.291  0.2415 -2.3070  1.8329
 4817TIP3   OH235941   4.877   0.958   3.206 -0.0004  0.3501  0.3313
 4817TIP3    H135942   4.840   0.874   3.235  1.1404 -0.7086 -1.2375
 4817TIP3    H235943   4.971   0.944   3.206  0.2791  2.0584  1.2724
 4818TIP3   OH235944   2.766   2.391  10.891 -0.4791  0.1914 -0.7387
 4818TIP3    H135945   2.751   2.420  10.801  0.9802  1.3601 -0.6357
 4818TIP3    H235946   2.842   2.333  10.885 -0.9638 -0.4888 -0.3853
 4819TIP3   OH235947   5.807   3.131   4.638  0.1402  0.2944 -0.1537
 4819TIP3    H135948   5.729   3.157   4.686  0.5278  1.4592 -0.1342
 4819TIP3    H235949   5.776   3.113   4.549  0.2229  3.2111 -0.8138
 4820TIP3   OH235950   2.519   2.822   0.506  0.2779 -0.7093 -0.1611
 4820TIP3    H135951   2.487   2.878   0.577  1.7337  0.0413 -0.0628
 4820TIP3    H235952   2.609   2.851   0.493  0.6808 -2.2809 -0.8967
 4821TIP3   OH235953   1.824   5.746  13.422  0.3130  0.3605 -0.5565
 4821TIP3    H135954   1.729   5.745  13.438  0.3939 -2.5684  0.0912
 4821TIP3    H235955   1.859   5.805  13.488 -1.2097  3.1013 -2.0830
 4822TIP3   OH235956   6.182   0.207  17.160  0.7300  0.1328  0.3258
 4822TIP3    H135957   6.125   0.133  17.184 -3.2831  2.0483 -2.6339
 4822TIP3    H235958   6.216   0.184  17.073  1.6106  0.5636  0.5565
 4823TIP3   OH235959   5.927   3.533  13.886 -0.5337  0.1313  0.4588
 4823TIP3    H135960   6.018   3.520  13.860 -0.6755  0.4431 -0.2027
 4823TIP3    H235961   5.878   3.533  13.804 -1.2298 -0.7965  0.8723
 4824TIP3   OH235962   1.144   1.393   0.413 -0.1630 -0.1035 -0.4921
 4824TIP3    H135963   1.063   1.442   0.426  0.0218 -0.0840  0.5633
 4824TIP3    H235964   1.212   1.460   0.410  0.1017 -0.2901  1.0539
 4825TIP3   OH235965   5.506   1.759   4.224  0.6571 -0.1859 -0.1147
 4825TIP3    H135966   5.568   1.688   4.245 -1.1044 -1.4928  0.8275
 4825TIP3    H235967   5.562   1.833   4.201  2.6224 -0.9100  2.0621
 4826TIP3   OH235968   5.037   2.155  14.921  0.4431 -0.1404 -0.4777
 4826TIP3    H135969   4.970   2.181  14.984  1.0004  0.8874 -0.2920
 4826TIP3    H235970   5.100   2.105  14.973  1.0308  0.9176 -0.1402
 4827TIP3   OH235971   1.253   4.853   0.653 -0.0911 -0.2462  0.1643
 4827TIP3    H135972   1.206   4.909   0.592 -0.3812 -0.6552  0.0082
 4827TIP3    H235973   1.286   4.912   0.720  1.0078  0.3413 -0.8672
 4828TIP3   OH235974   4.444   3.949   4.571 -0.2710 -0.2714  0.3819
 4828TIP3    H135975   4.395   4.012   4.624 -1.1298  0.1430 -0.8876
 4828TIP3    H235976   4.503   4.003   4.519  1.2305 -0.7369  1.5498
 4829TIP3   OH235977   5.309   4.619  12.123 -0.1076  0.4926  0.1521
 4829TIP3    H135978   5.262   4.535  12.116 -1.1336  1.0130  0.6666
 4829TIP3    H235979   5.248   4.676  12.170  1.2389  1.0420  1.2326
 4830TIP3   OH235980   6.415   6.681   5.344  0.1773  0.3829 -0.4469
 4830TIP3    H135981   6.407   6.770   5.309 -2.8371 -0.3464 -1.7713
 4830TIP3    H235982   6.373   6.685   5.430  0.0456  0.2150 -0.5053
 4831TIP3   OH235983   6.119   0.403   0.066 -0.2618 -0.0769 -0.2697
 4831TIP3    H135984   6.131   0.323   0.016  2.8822 -0.5757  1.1863
 4831TIP3    H235985   6.058   0.455   0.014 -1.7622 -3.0631 -1.6108
 4832TIP3   OH235986   2.608   2.430   0.234 -0.1686 -0.2484  0.0251
 4832TIP3    H135987   2.614   2.481   0.315  1.8480 -1.6847  0.8187
 4832TIP3    H235988   2.526   2.459   0.193 -1.3401  0.3241  2.6829
 4833TIP3   OH235989   3.527   3.118  17.002 -0.4330 -0.2052  0.0784
 4833TIP3    H135990   3.473   3.043  17.027 -1.8563  0.6256 -0.4466
 4833TIP3    H235991   3.476   3.194  17.029  0.3885  0.5997 -0.6324
 4834TIP3   OH235992   5.367   6.803  16.629  0.4346  0.2930 -0.4958
 4834TIP3    H135993   5.454   6.778  16.598  0.5625  1.1292 -0.8372
 4834TIP3    H235994   5.375   6.896  16.650 -0.8790  0.8798 -2.4028
 4835TIP3   OH235995   2.429   5.694  12.055  0.1130  0.0067 -0.0730
 4835TIP3    H135996   2.446   5.701  12.149  0.1819  1.8065 -0.1944
 4835TIP3    H235997   2.333   5.696  12.048  0.1074 -0.1483 -0.0424
 4836TIP3   OH235998   0.764   3.780   5.343 -0.2490  0.2619 -0.0045
 4836TIP3    H135999   0.755   3.874   5.350  0.7624  0.3193  0.6407
 4836TIP3    H236000   0.676   3.745   5.356 -0.6299  1.1158 -0.3156
 4837TIP3   OH236001   0.713   1.380  16.794 -0.3022 -0.6119 -0.0598
 4837TIP3    H136002   0.705   1.475  16.798  0.3180 -0.5233 -0.7090
 4837TIP3    H236003   0.629   1.347  16.825 -0.5270  0.1488  0.1459
 4838TIP3   OH236004   3.194   5.810  11.534 -0.3038  0.1025 -0.1738
 4838TIP3    H136005   3.238   5.727  11.517  1.5324  1.6146 -3.1729
 4838TIP3    H236006   3.244   5.850  11.605 -0.8536 -1.0495  0.8933
 4839TIP3   OH236007   3.676   0.307   4.355  0.0155 -0.0672 -0.2862
 4839TIP3    H136008   3.613   0.270   4.292  0.1397 -0.8888  0.0588
 4839TIP3    H236009   3.732   0.233   4.378  2.8843  1.2435 -2.6913
 4840TIP3   OH236010   4.956   2.121   5.102  0.3088 -0.5949 -0.6605
 4840TIP3    H136011   4.923   2.076   5.025  0.7420  0.2345 -1.3450
 4840TIP3    H236012   4.907   2.203   5.105  0.0878 -0.7517  0.1175
 4841TIP3   OH236013   5.639   2.273  14.825  0.3450 -0.8334 -0.1853
 4841TIP3    H136014   5.593   2.354  14.848 -0.8835  0.0135 -5.0245
 4841TIP3    H236015   5.731   2.298  14.820  0.2454 -0.3055  0.5528
 4842TIP3   OH236016   5.258   5.102   5.119 -0.4779 -0.2753  0.5341
 4842TIP3    H136017   5.294   5.057   5.042 -0.0627  2.2005 -0.7943
 4842TIP3    H236018   5.325   5.091   5.187  2.2768  2.9128 -1.4367
 4843TIP3   OH236019   3.884   1.182   4.227 -0.1203  0.7709  0.1813
 4843TIP3    H136020   3.911   1.208   4.315 -1.1672  0.1206  0.7033
 4843TIP3    H236021   3.961   1.139   4.190 -0.3495 -0.8723  1.5676
 4844TIP3   OH236022   2.157   3.493   0.920 -0.5892 -0.1787 -0.0903
 4844TIP3    H136023   2.192   3.474   0.833 -0.3120 -1.1868  0.2372
 4844TIP3    H236024   2.233   3.523   0.970 -0.5694 -0.4744  0.0586
 4845TIP3   OH236025   2.685   1.200   0.178  0.3818  0.1117 -0.5160
 4845TIP3    H136026   2.763   1.233   0.133 -0.6975  1.3591 -1.5391
 4845TIP3    H236027   2.628   1.277   0.185 -0.7176 -0.7644  0.2921
 4846TIP3   OH236028   4.822   2.591   0.090  0.0140  0.2181 -0.0315
 4846TIP3    H136029   4.845   2.539   0.167  1.1416 -0.8940 -1.0946
 4846TIP3    H236030   4.902   2.594   0.038 -1.3031 -0.8882 -2.2045
 4847TIP3   OH236031   4.181   5.069  10.323  0.1152 -0.3847  0.5332
 4847TIP3    H136032   4.093   5.079  10.359 -0.5133  0.5457 -1.2023
 4847TIP3    H236033   4.167   5.034  10.235  1.5168 -0.6979  0.4213
 4848TIP3   OH236034   2.986   5.513  10.872 -0.3749 -0.2760  0.0043
 4848TIP3    H136035   2.919   5.471  10.818 -0.1142  0.4221 -0.8893
 4848TIP3    H236036   3.057   5.448  10.877 -0.0362 -0.0178 -1.2359
 4849TIP3   OH236037   1.633   6.614   1.545 -0.8215 -0.3005  0.4206
 4849TIP3    H136038   1.615   6.605   1.452 -0.4096  0.9487  0.2159
 4849TIP3    H236039   1.551   6.646   1.583 -0.7305  0.0117  0.3545
 4850TIP3   OH236040   4.403   5.034  11.023  0.7027  0.1774 -0.2192
 4850TIP3    H136041   4.392   5.124  11.056  0.9574 -0.1443  0.7584
 4850TIP3    H236042   4.465   5.043  10.951 -0.7280  1.0560 -1.3834
 4851TIP3   OH236043   3.159   3.674  10.717  0.4802  0.2988 -0.1107
 4851TIP3    H136044   3.214   3.654  10.642 -0.6043 -1.8312 -0.4003
 4851TIP3    H236045   3.090   3.607  10.714 -1.0547  1.7730  1.2833
 4852TIP3   OH236046   5.135   2.971  12.492 -0.4323  0.3292 -0.4242
 4852TIP3    H136047   5.184   2.954  12.411 -0.2327  0.4046 -0.3211
 4852TIP3    H236048   5.195   3.024  12.545 -0.1845 -0.5341  0.1684
 4853TIP3   OH236049   3.661   0.170   5.130  0.2289 -0.1693  0.3727
 4853TIP3    H136050   3.755   0.183   5.139  0.3313 -0.5682 -0.0772
 4853TIP3    H236051   3.631   0.247   5.081  0.3953 -0.2690  0.1125
 4854TIP3   OH236052   3.975   1.998  13.364 -0.1406 -0.2306 -0.1355
 4854TIP3    H136053   3.967   1.936  13.437  0.0797  0.5421  0.5534
 4854TIP3    H236054   3.955   2.083  13.403 -2.0430 -0.0632 -1.4274
 4855TIP3   OH236055   1.359   5.830  10.550  0.3269 -0.0036  0.3343
 4855TIP3    H136056   1.441   5.799  10.513 -0.9046 -1.7954 -1.0073
 4855TIP3    H236057   1.375   5.922  10.571  2.7765 -0.4304  0.4724
 4856TIP3   OH236058   0.690   6.020  13.801  0.1997 -0.4005  0.0446
 4856TIP3    H136059   0.634   6.095  13.822  0.0819 -0.7045  0.8606
 4856TIP3    H236060   0.713   5.983  13.887 -0.7865 -2.0381 -0.3588
 4857TIP3   OH236061   5.343   6.634  16.269 -0.1153  0.2647 -0.1520
 4857TIP3    H136062   5.316   6.542  16.276  0.3504  0.2091  1.0002
 4857TIP3    H236063   5.272   6.684  16.308  0.4262  0.2713  0.8341
 4858TIP3   OH236064   5.153   3.905  14.047 -0.2900 -0.2804 -0.1468
 4858TIP3    H136065   5.216   3.951  13.991 -1.0700  0.3904 -0.4814
 4858TIP3    H236066   5.122   3.833  13.994  0.2581 -0.6667  0.0519
 4859TIP3   OH236067   3.704   3.547   5.667  0.0763 -0.0721 -0.1354
 4859TIP3    H136068   3.749   3.471   5.702  0.1022 -0.8650 -1.8223
 4859TIP3    H236069   3.720   3.543   5.573 -0.9708  1.3280 -0.3957
 4860TIP3   OH236070   5.313   5.769  15.006  0.1021 -0.6941  0.4019
 4860TIP3    H136071   5.365   5.692  15.028 -2.2409 -1.1837  4.7971
 4860TIP3    H236072   5.372   5.843  15.021  0.3246 -1.3387  2.8516
 4861TIP3   OH236073   2.903   1.844   6.011  0.0329  0.2636 -0.0667
 4861TIP3    H136074   2.952   1.803   5.940  0.9180  0.2676  0.5416
 4861TIP3    H236075   2.967   1.898   6.058 -0.7674  1.0843  0.1128
 4862TIP3   OH236076   2.471   4.264   5.715 -0.0654 -0.3636  0.0552
 4862TIP3    H136077   2.438   4.351   5.736  0.8810 -0.0824  0.3813
 4862TIP3    H236078   2.488   4.224   5.800 -2.2234 -1.5517 -0.0245
 4863TIP3   OH236079   1.163   2.527  15.529  0.2472 -0.2878  0.5054
 4863TIP3    H136080   1.186   2.543  15.437  1.8405 -0.9546  0.7628
 4863TIP3    H236081   1.222   2.584  15.578  0.6745 -1.2723  1.1604
 4864TIP3   OH236082   4.003   0.605   5.223  0.2624 -0.4264 -0.0037
 4864TIP3    H136083   4.059   0.609   5.300  2.7038 -1.3032 -1.6859
 4864TIP3    H236084   4.021   0.519   5.184  0.1440  0.5509 -2.3135
 4865TIP3   OH236085   3.771   4.955  13.979 -0.1984  0.1188 -0.0897
 4865TIP3    H136086   3.723   4.957  13.896  1.2413  2.5955 -0.9063
 4865TIP3    H236087   3.714   5.002  14.040  0.2117  1.2401 -0.5466
 4866TIP3   OH236088   2.539   0.850   0.672 -0.0487 -0.2248 -0.3491
 4866TIP3    H136089   2.514   0.759   0.687  0.5191 -0.2669  0.3519
 4866TIP3    H236090   2.632   0.847   0.653 -0.2185  0.1142 -1.2715
 4867TIP3   OH236091   4.233   3.149  15.377  0.3021 -0.4193  0.1458
 4867TIP3    H136092   4.265   3.176  15.291  0.5463 -0.6117  0.1778
 4867TIP3    H236093   4.155   3.097  15.358  2.0273 -2.9853 -0.1228
 4868TIP3   OH236094   0.447   0.716   4.500  0.1594 -0.2725 -0.2039
 4868TIP3    H136095   0.469   0.687   4.411  3.7670 -1.9550  1.1803
 4868TIP3    H236096   0.524   0.763   4.530 -1.4153  1.1494  1.7372
 4869TIP3   OH236097   0.639   0.839  16.203 -0.8842 -0.4670  0.5144
 4869TIP3    H136098   0.554   0.880  16.191 -1.1098 -0.8725  0.7413
 4869TIP3    H236099   0.636   0.800  16.290 -0.0495  0.5119  1.0067
 4870TIP3   OH236100   3.980   6.750   2.387 -0.6745 -0.8553  0.3217
 4870TIP3    H136101   4.001   6.707   2.304 -0.3040 -0.2719  0.1122
 4870TIP3    H236102   4.059   6.739   2.440  0.9098  2.8902 -1.0991
 4871TIP3   OH236103   1.625   1.800  14.841  0.2722  0.1374  0.3460
 4871TIP3    H136104   1.571   1.857  14.896 -0.9358  1.2030 -1.8769
 4871TIP3    H236105   1.704   1.851  14.823  0.5450 -0.1038  0.8436
 4872TIP3   OH236106   3.139   5.042   6.422 -0.2272  0.2714  0.9091
 4872TIP3    H136107   3.228   5.065   6.396 -0.3852 -0.3194 -0.1934
 4872TIP3    H236108   3.106   4.987   6.350 -1.5208  0.5912  1.2364
 4873TIP3   OH236109   0.781   6.269   1.848  0.2504 -0.4076  0.3571
 4873TIP3    H136110   0.770   6.187   1.800  0.2251 -1.3551  1.9454
 4873TIP3    H236111   0.869   6.299   1.825  0.6222 -1.3727  0.4595
 4874TIP3   OH236112   0.285   6.108   4.538 -0.3036  0.0124  0.1291
 4874TIP3    H136113   0.250   6.049   4.470  1.4086 -0.9774  0.0874
 4874TIP3    H236114   0.356   6.059   4.578  0.8170  1.8727  0.4636
 4875TIP3   OH236115   2.623   5.039   5.964 -0.3891 -0.3504 -0.4149
 4875TIP3    H136116   2.567   4.997   6.030  1.3160  1.3259  2.2078
 4875TIP3    H236117   2.709   4.999   5.977 -0.3778 -1.1616 -2.7802
 4876TIP3   OH236118   5.704   0.898  16.701  0.4241 -0.0522 -0.4187
 4876TIP3    H136119   5.726   0.929  16.790  1.3179  0.3476 -0.7720
 4876TIP3    H236120   5.773   0.935  16.646  1.1600 -2.1766 -0.9537
 4877TIP3   OH236121   3.868   0.519  13.897  0.0764 -0.0390 -0.3837
 4877TIP3    H136122   3.838   0.434  13.929  0.0724  0.4655  0.9786
 4877TIP3    H236123   3.943   0.498  13.841  0.0201 -0.9438 -0.1336
 4878TIP3   OH236124   1.395   0.297   5.824 -0.3529 -0.8107  0.1319
 4878TIP3    H136125   1.345   0.292   5.905 -0.4860 -1.5684  0.0074
 4878TIP3    H236126   1.481   0.262   5.847 -0.4892 -1.3261 -0.1249
 4879TIP3   OH236127   6.469   2.158   1.472 -0.1811 -0.1141 -0.5275
 4879TIP3    H136128   6.412   2.231   1.499 -2.3834 -2.2559  0.8585
 4879TIP3    H236129   6.554   2.180   1.509 -1.0283  1.3132  0.6637
 4880TIP3   OH236130   5.518   0.855  13.331 -0.2698 -0.0045 -0.6134
 4880TIP3    H136131   5.554   0.789  13.390 -0.4218  0.4262 -0.0256
 4880TIP3    H236132   5.467   0.806  13.267  1.8637 -0.6714 -1.8158
 4881TIP3   OH236133   1.215   3.891  15.045 -0.7372 -0.1820  0.3653
 4881TIP3    H136134   1.308   3.876  15.025 -0.9601  0.7383 -1.4455
 4881TIP3    H236135   1.175   3.805  15.038 -0.4702 -0.1895 -1.5237
 4882TIP3   OH236136   2.567   6.524  14.494 -0.3799 -0.3056 -0.1273
 4882TIP3    H136137   2.564   6.438  14.452  0.4713 -0.8105  0.8322
 4882TIP3    H236138   2.479   6.559  14.482 -0.6337 -1.1551 -0.8447
 4883TIP3   OH236139   1.788   1.232  12.401  0.9233 -0.9616  0.3989
 4883TIP3    H136140   1.873   1.265  12.371  0.5744 -0.1858  0.2657
 4883TIP3    H236141   1.805   1.139  12.421  0.9764 -1.7331 -2.9460
 4884TIP3   OH236142   0.062   4.086  15.724 -0.3134  0.4581  0.3488
 4884TIP3    H136143  -0.021   4.042  15.740 -0.1553  0.4581  1.2258
 4884TIP3    H236144   0.129   4.023  15.751 -0.0022  0.1840 -1.0365
 4885TIP3   OH236145   5.708   2.479  11.204 -0.7525 -0.1329  0.9152
 4885TIP3    H136146   5.776   2.415  11.182  1.0036  1.5148  1.3932
 4885TIP3    H236147   5.630   2.427  11.220  0.2893 -2.0440 -0.0898
 4886TIP3   OH236148   0.266   0.113  12.176 -0.3449 -0.3055 -0.3595
 4886TIP3    H136149   0.273   0.053  12.103  0.5016 -0.4162 -0.2024
 4886TIP3    H236150   0.185   0.090  12.220  0.9747 -2.6909  0.8913
 4887TIP3   OH236151   3.838   5.348  13.909 -0.2805 -0.1315 -0.3388
 4887TIP3    H136152   3.930   5.349  13.936 -0.1707  3.0900 -0.6734
 4887TIP3    H236153   3.840   5.318  13.818  0.9012  3.8067 -1.6966
 4888TIP3   OH236154   2.112   1.018   0.065 -0.2865 -0.4945 -0.5931
 4888TIP3    H136155   2.033   1.065   0.038  0.1590  0.6080 -0.0379
 4888TIP3    H236156   2.138   0.968  -0.012 -0.1761  1.0133 -1.5640
 4889TIP3   OH236157   0.764   1.841   5.714 -0.5783 -0.7157 -0.1261
 4889TIP3    H136158   0.741   1.879   5.629  1.5086 -2.4927 -1.5469
 4889TIP3    H236159   0.821   1.906   5.755 -0.0528 -0.6806 -0.9127
 4890TIP3   OH236160   6.512   1.013  14.548  0.1931 -0.3491  0.3187
 4890TIP3    H136161   6.441   1.073  14.570 -0.0463 -0.3489 -0.4456
 4890TIP3    H236162   6.494   0.986  14.458  1.8510  0.6200 -0.3168
 4891TIP3   OH236163   4.684   5.556   4.170 -0.2691 -0.8166  0.1077
 4891TIP3    H136164   4.660   5.646   4.192 -1.4061 -1.0906  0.0315
 4891TIP3    H236165   4.663   5.548   4.077  0.3391 -0.9955 -0.0129
 4892TIP3   OH236166   4.769   1.878  13.487 -0.3303  0.2758  0.1353
 4892TIP3    H136167   4.780   1.908  13.396 -0.7378  0.7626  0.2436
 4892TIP3    H236168   4.740   1.956  13.534  1.5142  0.4622  1.0294
 4893TIP3   OH236169   6.407   2.143  15.177 -0.9086 -0.0845  0.0461
 4893TIP3    H136170   6.370   2.143  15.089 -1.4566 -1.1867  0.2793
 4893TIP3    H236171   6.445   2.056  15.188  1.3969  0.8718 -0.0270
 4894TIP3   OH236172   5.659   2.674   3.134  0.1494  0.0440  0.1560
 4894TIP3    H136173   5.662   2.706   3.224  1.4367 -0.9042  0.4560
 4894TIP3    H236174   5.566   2.673   3.112 -0.1116  0.9920  1.2208
 4895TIP3   OH236175   2.482   0.206  14.068 -0.1983  0.6675  0.3277
 4895TIP3    H136176   2.487   0.226  13.974 -2.9338 -0.1883 -0.0598
 4895TIP3    H236177   2.499   0.112  14.074 -0.5810  0.6145  0.6209
 4896TIP3   OH236178   0.881   4.647   2.109  0.0807 -0.4763 -0.4116
 4896TIP3    H136179   0.827   4.696   2.047 -0.2408 -0.4796 -0.1390
 4896TIP3    H236180   0.826   4.639   2.187  1.4062  1.7263  0.8177
 4897TIP3   OH236181   2.278   4.660   1.558 -0.0035 -0.2140 -0.8240
 4897TIP3    H136182   2.298   4.743   1.602 -0.1740 -1.1246  0.9903
 4897TIP3    H236183   2.183   4.658   1.552 -0.0845 -1.0253  0.6144
 4898TIP3   OH236184   5.529   0.325  13.769  0.0704  0.0035 -0.2869
 4898TIP3    H136185   5.510   0.246  13.820  0.4703  0.8208  1.1502
 4898TIP3    H236186   5.610   0.305  13.722  0.2520 -0.3777  0.1944
 4899TIP3   OH236187   1.486   1.052  14.776  0.4591 -0.4665  0.3249
 4899TIP3    H136188   1.433   1.087  14.705  0.3422  0.5276  0.8968
 4899TIP3    H236189   1.423   1.011  14.835  0.5371 -1.1244 -0.0473
 4900TIP3   OH236190   5.079   0.127  12.953 -0.3420 -0.1501  0.3388
 4900TIP3    H136191   5.136   0.065  13.000 -1.6746 -1.3054  0.4722
 4900TIP3    H236192   5.105   0.213  12.986 -0.3901 -0.8427  2.2747
 4901TIP3   OH236193   1.703   6.366  10.852  0.0473 -0.2019  0.2282
 4901TIP3    H136194   1.666   6.333  10.770  1.2539 -0.2208 -0.3203
 4901TIP3    H236195   1.733   6.455  10.831 -2.3782  0.9541  1.4588
 4902TIP3   OH236196   6.109   1.039  15.911 -0.0330 -0.2950 -0.3264
 4902TIP3    H136197   6.087   1.132  15.919  1.9672  0.2011 -0.1072
 4902TIP3    H236198   6.179   1.038  15.845 -1.1758 -1.8447 -1.5494
 4903TIP3   OH236199   3.728   5.388   1.202  0.3734  0.0162  0.3225
 4903TIP3    H136200   3.644   5.421   1.234 -1.1805 -2.2444 -1.2976
 4903TIP3    H236201   3.756   5.453   1.138 -1.6576 -0.7151 -1.3510
 4904TIP3   OH236202   0.750   1.065   2.331 -0.2980 -0.2920 -0.2553
 4904TIP3    H136203   0.721   1.075   2.241 -0.1564 -0.7485 -0.3489
 4904TIP3    H236204   0.670   1.075   2.383 -0.7515 -2.1947 -0.5449
 4905TIP3   OH236205   3.326   3.678  12.169 -0.2188  0.0876  0.5275
 4905TIP3    H136206   3.397   3.707  12.226 -0.0818 -1.3967  1.1316
 4905TIP3    H236207   3.370   3.631  12.098 -0.3607  2.2229 -1.0233
 4906TIP3   OH236208   5.268   0.660   2.636 -0.0714  0.7083 -0.0301
 4906TIP3    H136209   5.198   0.703   2.587 -1.4411 -1.1198  0.2644
 4906TIP3    H236210   5.276   0.710   2.717 -0.7445  1.1970 -0.2626
 4907TIP3   OH236211   5.529   2.949   6.035 -0.2249 -0.0282 -0.2796
 4907TIP3    H136212   5.491   3.012   6.096  1.1161  0.1427  0.3954
 4907TIP3    H236213   5.454   2.912   5.988 -1.1238  1.0760  0.2766
 4908TIP3   OH236214   4.528   0.593   5.243  0.2481  0.0435 -0.3446
 4908TIP3    H136215   4.570   0.525   5.297 -0.5144 -1.8150 -2.0113
 4908TIP3    H236216   4.446   0.553   5.215  0.8374  0.7458 -3.2466
 4909TIP3   OH236217   3.036   3.781  15.849 -0.0147 -0.4082 -0.0775
 4909TIP3    H136218   3.071   3.749  15.766  0.9207 -3.1519  1.3401
 4909TIP3    H236219   2.982   3.857  15.824  2.4307  0.5108 -2.8586
 4910TIP3   OH236220   4.128   1.747  15.403 -0.4361  0.0969 -0.1297
 4910TIP3    H136221   4.113   1.654  15.420  1.2509 -0.5307 -1.8662
 4910TIP3    H236222   4.041   1.787  15.408 -1.2971 -1.7142 -0.2338
 4911TIP3   OH236223   3.068   2.411  14.857 -0.4967  0.5053  0.0277
 4911TIP3    H136224   3.144   2.458  14.889  1.0134 -0.4358 -2.0093
 4911TIP3    H236225   3.034   2.365  14.933  0.8812  1.0842  1.0148
 4912TIP3   OH236226   1.749   0.517   5.499 -0.1645 -0.7781  0.0851
 4912TIP3    H136227   1.725   0.528   5.591 -0.6364 -0.2696 -0.0982
 4912TIP3    H236228   1.810   0.589   5.481 -0.5890 -0.4844 -0.1798
 4913TIP3   OH236229   6.727   0.127   2.278 -0.1125 -0.4555 -0.0288
 4913TIP3    H136230   6.719   0.215   2.315  1.7839 -1.0930  2.0411
 4913TIP3    H236231   6.654   0.078   2.315 -0.6149 -0.0206 -0.4317
 4914TIP3   OH236232   0.157   4.649  13.011 -0.0720 -0.2750  0.2920
 4914TIP3    H136233   0.227   4.617  13.068  1.0242 -0.0673 -0.9158
 4914TIP3    H236234   0.141   4.577  12.950  2.3494  1.3069 -2.3926
 4915TIP3   OH236235   6.649   4.459   2.497 -0.5761  0.3025 -0.3641
 4915TIP3    H136236   6.578   4.400   2.469 -0.1832 -0.5933  0.5053
 4915TIP3    H236237   6.727   4.423   2.456  0.0976 -1.3428  2.2431
 4916TIP3   OH236238   3.307   3.604   1.395  0.2550  0.6084 -0.1703
 4916TIP3    H136239   3.238   3.594   1.460  0.4282  1.8593  0.2159
 4916TIP3    H236240   3.356   3.522   1.399  0.0961  0.5668  1.0747
 4917TIP3   OH236241   6.161   3.403   6.651  0.4503  0.0330  0.6076
 4917TIP3    H136242   6.223   3.395   6.578  1.2632 -0.5113  1.3455
 4917TIP3    H236243   6.142   3.313   6.676  0.0499  0.2151  0.9638
 4918TIP3   OH236244   5.715   6.455  16.709 -0.8246  0.6534 -0.0504
 4918TIP3    H136245   5.647   6.390  16.694 -0.0978  0.0550 -0.7777
 4918TIP3    H236246   5.731   6.452  16.803  1.8396 -2.9030 -0.5230
 4919TIP3   OH236247   0.503   4.840   0.917 -0.0384 -0.3047  0.1840
 4919TIP3    H136248   0.450   4.784   0.860 -0.8556 -0.6590  1.2897
 4919TIP3    H236249   0.506   4.924   0.870 -1.4486 -0.3219  0.0189
 4920TIP3   OH236250   5.403   4.912  16.637 -0.0910  0.2167  0.4642
 4920TIP3    H136251   5.311   4.936  16.631 -0.0974  0.4757  1.5252
 4920TIP3    H236252   5.408   4.852  16.711  0.7522  1.0354  1.0904
 4921TIP3   OH236253   6.335   0.449  16.580 -0.2476  0.3854 -0.2987
 4921TIP3    H136254   6.329   0.503  16.501  2.9142  1.4408  0.1093
 4921TIP3    H236255   6.425   0.416  16.580 -0.6567 -0.8672  2.0566
 4922TIP3   OH236256   6.586   1.563  11.777  0.1726 -0.1838 -0.8139
 4922TIP3    H136257   6.642   1.628  11.820  0.2935 -1.7296  1.4863
 4922TIP3    H236258   6.645   1.492  11.754 -0.3421 -0.5239 -1.0841
 4923TIP3   OH236259   2.398   1.004   2.546  0.0987 -0.4517  0.1701
 4923TIP3    H136260   2.344   0.964   2.614  0.3750  0.2146  0.7969
 4923TIP3    H236261   2.404   1.096   2.572  0.8927 -0.3616 -0.3159
 4924TIP3   OH236262   0.984   1.647  16.961  0.5872  0.2346  0.2264
 4924TIP3    H136263   0.965   1.572  17.018  0.5996  0.5145  0.6037
 4924TIP3    H236264   0.915   1.710  16.981  0.6131  0.3476 -0.0416
 4925TIP3   OH236265   4.608   0.631   1.687  0.0631  0.0815  0.3085
 4925TIP3    H136266   4.596   0.645   1.593  2.6669 -1.4511 -0.2947
 4925TIP3    H236267   4.677   0.693   1.711  1.6816 -1.7883  0.5277
 4926TIP3   OH236268   0.785   4.817  11.140 -0.5474  0.2130  0.5833
 4926TIP3    H136269   0.811   4.773  11.059 -0.5567 -1.4086  1.4387
 4926TIP3    H236270   0.843   4.893  11.145  0.6003 -0.5894 -0.1000
 4927TIP3   OH236271   2.385   2.370   5.056 -0.2307  0.3000  0.3244
 4927TIP3    H136272   2.302   2.354   5.010 -0.6589  1.5752  0.6244
 4927TIP3    H236273   2.418   2.452   5.017  1.7942 -1.1118 -1.0595
 4928TIP3   OH236274   4.519   1.352   4.660  0.2443  0.0455 -0.5075
 4928TIP3    H136275   4.500   1.394   4.744 -1.1607  0.0024 -0.7900
 4928TIP3    H236276   4.484   1.413   4.595 -1.8266 -1.5608 -0.9209
 4929TIP3   OH236277   1.748   1.332  15.794 -0.1194  0.2809 -0.3466
 4929TIP3    H136278   1.716   1.255  15.841  0.0309  1.1715  1.2506
 4929TIP3    H236279   1.669   1.382  15.774 -0.0875  0.4842  0.0236
 4930TIP3   OH236280   0.892   0.255   2.396  0.1853  0.4341 -0.1533
 4930TIP3    H136281   0.839   0.333   2.416  0.0833 -0.0052  1.3160
 4930TIP3    H236282   0.835   0.202   2.340 -0.2699  0.7902 -0.0365
 4931TIP3   OH236283   2.368   6.681  10.666  0.1666 -0.4761  0.5262
 4931TIP3    H136284   2.301   6.711  10.604  2.4494 -1.2244 -2.4605
 4931TIP3    H236285   2.370   6.748  10.734 -2.1346  0.6258 -0.4285
 4932TIP3   OH236286   5.500   3.762  15.929  0.1705  0.3517  0.1957
 4932TIP3    H136287   5.502   3.670  15.903  0.0079  0.4233 -0.0790
 4932TIP3    H236288   5.532   3.809  15.852 -1.3259  0.6431 -0.2563
 4933TIP3   OH236289   1.618   5.900  14.630  0.1062 -0.1563  0.2405
 4933TIP3    H136290   1.553   5.969  14.627  1.0053  0.8213  2.1745
 4933TIP3    H236291   1.568   5.819  14.643 -0.7598  0.5150  1.1127
 4934TIP3   OH236292   4.765   2.757  10.406  0.0896 -0.1338 -0.5207
 4934TIP3    H136293   4.788   2.692  10.340  1.7078  1.1333 -1.2132
 4934TIP3    H236294   4.816   2.731  10.483 -2.1765 -1.9086  0.4513
 4935TIP3   OH236295   2.328   3.259  12.487  0.2000 -0.1168 -0.0369
 4935TIP3    H136296   2.334   3.286  12.579  0.3685  1.0185 -0.3827
 4935TIP3    H236297   2.418   3.241  12.461  0.7541  3.9749 -1.2908
 4936TIP3   OH236298   1.589   1.056   3.940  0.1264 -0.2945  0.4057
 4936TIP3    H136299   1.583   1.085   4.031 -0.3395 -0.2393  0.3583
 4936TIP3    H236300   1.564   0.964   3.942 -0.7167 -0.0724  0.2110
 4937TIP3   OH236301   5.780   3.820   4.518  0.0851  0.4115  0.3395
 4937TIP3    H136302   5.820   3.832   4.432  1.8191 -1.4801  0.8408
 4937TIP3    H236303   5.778   3.907   4.557  0.9568  0.9799 -0.8968
 4938TIP3   OH236304   5.341   5.978  15.522  0.3949 -0.0024  0.1526
 4938TIP3    H136305   5.322   5.947  15.433 -0.8704  1.3585 -0.0728
 4938TIP3    H236306   5.436   5.972  15.529  0.5132 -0.1105 -1.3078
 4939TIP3   OH236307   1.590   3.644  10.642 -0.0919 -0.0220 -0.1980
 4939TIP3    H136308   1.673   3.606  10.673 -0.2834  0.6602  1.2041
 4939TIP3    H236309   1.533   3.643  10.719 -1.2960 -0.1979 -1.0734
 4940TIP3   OH236310   0.103   5.372  15.584 -0.3952 -0.4962 -0.2679
 4940TIP3    H136311   0.019   5.386  15.542 -0.3450 -0.7090 -0.4436
 4940TIP3    H236312   0.117   5.277  15.577 -0.0321 -0.4308 -0.4549
 4941TIP3   OH236313   3.722   2.967   4.984 -0.4406  0.3022  0.2625
 4941TIP3    H136314   3.649   2.986   5.043 -2.2239 -0.8150 -1.5337
 4941TIP3    H236315   3.779   3.044   4.991 -0.3591 -0.0092  3.7646
 4942TIP3   OH236316   0.535   1.820  12.419 -0.0706 -0.2340 -0.5516
 4942TIP3    H136317   0.509   1.893  12.474 -0.4798 -0.1710 -0.8227
 4942TIP3    H236318   0.551   1.747  12.480 -0.3650 -0.1219 -0.3399
 4943TIP3   OH236319   1.909   1.618  15.522 -0.1901 -0.2292 -0.7406
 4943TIP3    H136320   1.968   1.694  15.526 -0.8409  0.4731 -3.2600
 4943TIP3    H236321   1.967   1.544  15.509  0.3469  0.0679 -0.0548
 4944TIP3   OH236322   3.148   3.697   1.611  0.1530 -0.1559  0.2869
 4944TIP3    H136323   3.189   3.658   1.689 -2.2560 -0.5112  1.4303
 4944TIP3    H236324   3.130   3.787   1.636 -0.0890 -0.1026 -0.0791
 4945TIP3   OH236325   2.162   5.362   0.365  0.1683  0.1731 -0.0169
 4945TIP3    H136326   2.144   5.439   0.419  1.0593  1.9539 -2.1538
 4945TIP3    H236327   2.257   5.361   0.356 -0.0703  1.2937 -3.4068
 4946TIP3   OH236328   5.583   1.967   5.617 -0.1557  0.3187  0.3173
 4946TIP3    H136329   5.563   1.965   5.711  1.4153  0.7317  0.6844
 4946TIP3    H236330   5.527   2.036   5.582 -1.9747 -0.9527  0.6264
 4947TIP3   OH236331   3.760   4.932   1.300  0.3392  0.4282  0.1146
 4947TIP3    H136332   3.691   4.923   1.234  1.1941  0.5766 -0.8150
 4947TIP3    H236333   3.733   5.005   1.354  0.4661  1.4137 -1.1271
 4948TIP3   OH236334   0.961   0.646  15.274  0.3027  0.2679  0.1248
 4948TIP3    H136335   0.884   0.703  15.268  0.1123  0.0886  0.7828
 4948TIP3    H236336   0.926   0.557  15.261  0.6491  0.3212 -1.2530
 4949TIP3   OH236337   6.131   1.829  16.030 -0.1753  0.1533  0.2581
 4949TIP3    H136338   6.144   1.890  16.103 -1.1379  1.9682 -1.0570
 4949TIP3    H236339   6.036   1.817  16.025  0.0221 -1.6045  0.6204
 4950TIP3   OH236340   4.947   5.372   6.563  0.8710  0.4794  0.7595
 4950TIP3    H136341   4.909   5.440   6.508  2.1572  0.5738 -0.0080
 4950TIP3    H236342   4.872   5.316   6.585 -0.3604  2.6106  2.1335
 4951TIP3   OH236343   5.598   6.162   3.835 -0.5496  0.7173 -0.0983
 4951TIP3    H136344   5.509   6.175   3.866 -1.0318  0.3545 -1.3035
 4951TIP3    H236345   5.643   6.120   3.907 -2.4323 -2.9031 -0.9426
 4952TIP3   OH236346   3.663   6.752  11.053 -0.3538  0.2087  0.4907
 4952TIP3    H136347   3.701   6.738  11.140 -0.4795  0.2814  0.5581
 4952TIP3    H236348   3.730   6.800  11.004 -0.5985  0.8787  0.8027
 4953TIP3   OH236349   1.291   4.233  15.851 -0.5277 -0.4588  0.0936
 4953TIP3    H136350   1.196   4.220  15.862 -0.8051  0.6548 -0.9235
 4953TIP3    H236351   1.302   4.328  15.851  0.1957 -0.5127 -2.9876
 4954TIP3   OH236352   3.437   1.773   3.279  0.4773  0.2301 -0.3760
 4954TIP3    H136353   3.504   1.833   3.247  2.9585 -1.7206  0.9853
 4954TIP3    H236354   3.420   1.801   3.368  0.1094  0.1897 -0.4348
 4955TIP3   OH236355   6.443   3.034  13.731 -0.4699  0.2424 -0.0474
 4955TIP3    H136356   6.529   3.004  13.761 -0.3849 -0.3878 -0.8999
 4955TIP3    H236357   6.415   3.096  13.798  0.8825  0.8483 -0.0161
 4956TIP3   OH236358   0.884   2.497   4.305  0.0949  0.5679 -0.2239
 4956TIP3    H136359   0.947   2.429   4.329 -0.5858  0.2374  0.6657
 4956TIP3    H236360   0.832   2.458   4.235 -0.7257 -0.0820  0.7373
 4957TIP3   OH236361   5.486   2.496  15.014 -0.2587  0.2103 -0.1327
 4957TIP3    H136362   5.574   2.499  15.051 -0.5165  2.1654  0.4008
 4957TIP3    H236363   5.434   2.448  15.079 -0.1771  1.5028  0.9122
 4958TIP3   OH236364   6.370   5.106  11.478  0.4232 -0.4845  0.2041
 4958TIP3    H136365   6.361   5.092  11.384  0.4157 -1.9974  0.4137
 4958TIP3    H236366   6.290   5.153  11.503  1.1026  1.2153 -0.7719
 4959TIP3   OH236367   0.792   0.857  15.256  0.3718  0.2060 -0.3714
 4959TIP3    H136368   0.762   0.904  15.178 -1.1572  1.8023  1.1150
 4959TIP3    H236369   0.730   0.882  15.324 -0.0004 -3.3816  0.7086
 4960TIP3   OH236370   5.822   5.702  14.269  0.1202  0.4244  0.1673
 4960TIP3    H136371   5.765   5.700  14.193  0.3824  1.6441 -0.0682
 4960TIP3    H236372   5.858   5.613  14.274 -1.2813 -0.1680 -0.0528
 4961TIP3   OH236373   5.020   3.621  12.426  0.3414 -0.0907 -0.2264
 4961TIP3    H136374   5.019   3.534  12.465 -1.4153 -0.0521 -0.1579
 4961TIP3    H236375   5.040   3.605  12.333  0.5975 -0.5075 -0.1046
 4962TIP3   OH236376   5.883   2.176  15.253  0.9514  0.2988  0.7330
 4962TIP3    H136377   5.907   2.267  15.273 -0.5359  0.4500  1.8499
 4962TIP3    H236378   5.800   2.162  15.298 -0.0280 -0.8884 -1.3495
 4963TIP3   OH236379   0.351   2.000  16.151  0.5735 -0.5540  0.1471
 4963TIP3    H136380   0.281   2.003  16.086 -1.2443 -1.3780  2.0194
 4963TIP3    H236381   0.410   1.932  16.120  0.9715  0.6636 -1.8451
 4964TIP3   OH236382   5.162   1.772  13.985  0.0679  0.4588 -0.6743
 4964TIP3    H136383   5.244   1.725  14.002  0.5470  0.8314 -1.9079
 4964TIP3    H236384   5.163   1.788  13.891 -2.3432 -1.1918 -1.0045
 4965TIP3   OH236385   0.355   6.109   5.307  0.2584  0.7355 -0.8208
 4965TIP3    H136386   0.373   6.071   5.393  3.5708  0.2234 -1.6710
 4965TIP3    H236387   0.278   6.061   5.275 -1.1449  1.0926  1.9035
 4966TIP3   OH236388   3.618   6.726   0.839  0.5151 -0.3663 -0.0046
 4966TIP3    H136389   3.530   6.721   0.874  0.0240  1.2678 -0.9524
 4966TIP3    H236390   3.607   6.716   0.744  1.2393  0.8437 -0.2241
 4967TIP3   OH236391   6.117   6.216  11.129  0.4184  0.5678 -0.0583
 4967TIP3    H136392   6.071   6.236  11.210  1.6688 -0.0386  0.8186
 4967TIP3    H236393   6.172   6.293  11.113 -0.0277  0.8000 -0.4795
 4968TIP3   OH236394   3.847   5.071   3.174 -0.0857  0.8474 -0.0555
 4968TIP3    H136395   3.941   5.054   3.179 -0.2332 -0.7711 -1.8895
 4968TIP3    H236396   3.833   5.103   3.085 -1.2474  1.3339  0.2887
 4969TIP3   OH236397   0.634   1.088  16.781  0.1137  0.1767 -0.3165
 4969TIP3    H136398   0.647   1.180  16.761 -0.5364 -0.1469 -2.3347
 4969TIP3    H236399   0.551   1.065  16.738  0.4785 -1.4366 -0.1920
 4970TIP3   OH236400   3.179   6.505   5.776 -0.0345  0.6980 -0.6895
 4970TIP3    H136401   3.147   6.475   5.861  1.7657  2.8217  0.7835
 4970TIP3    H236402   3.137   6.590   5.764 -0.4594  0.3099 -2.0722
 4971TIP3   OH236403   2.718   1.447   5.390 -0.2037  0.2945  0.1855
 4971TIP3    H136404   2.636   1.482   5.424 -2.1905 -1.4068 -2.6076
 4971TIP3    H236405   2.712   1.353   5.404  0.4113 -0.0507 -1.7005
 4972TIP3   OH236406   5.180   1.710  16.208 -0.2949 -0.3838  0.3105
 4972TIP3    H136407   5.256   1.757  16.242 -0.0202  0.9603 -2.0888
 4972TIP3    H236408   5.140   1.671  16.286  1.7199  0.5079  1.8515
 4973TIP3   OH236409   3.173   5.528   5.188  0.0494  0.1311 -0.1262
 4973TIP3    H136410   3.160   5.441   5.226  1.1266 -0.1412 -0.3706
 4973TIP3    H236411   3.238   5.515   5.119 -0.3440  1.0010 -0.6689
 4974TIP3   OH236412   2.026   3.249   1.467 -0.1370  0.2346  0.2720
 4974TIP3    H136413   2.043   3.186   1.397  1.6687  0.0171  0.8874
 4974TIP3    H236414   2.031   3.335   1.424  0.8734  0.0989  0.1067
 4975TIP3   OH236415   2.750   3.640   4.706  0.2609  0.2228 -0.0405
 4975TIP3    H136416   2.764   3.675   4.794  0.9763 -0.9707  0.3240
 4975TIP3    H236417   2.672   3.585   4.713 -0.0341  0.6012 -0.2957
 4976TIP3   OH236418   4.845   3.612  11.182  0.3462  0.1688 -1.1789
 4976TIP3    H136419   4.857   3.597  11.088  0.3389 -1.3032 -0.9504
 4976TIP3    H236420   4.758   3.653  11.188  0.9996  1.7212 -1.9302
 4977TIP3   OH236421   0.455   2.679   5.763  0.5798 -0.2101 -0.0393
 4977TIP3    H136422   0.402   2.710   5.690 -0.2507  0.0065  0.6416
 4977TIP3    H236423   0.398   2.690   5.840  1.2205 -0.9907  0.5548
 4978TIP3   OH236424   0.114   1.660   0.721 -0.7318 -0.4601  0.5587
 4978TIP3    H136425   0.052   1.614   0.665  1.5641 -0.4936 -2.1030
 4978TIP3    H236426   0.069   1.740   0.748 -2.3166 -1.0362 -0.3339
 4979TIP3   OH236427   3.062   3.847   0.522  0.3019  0.1786 -0.4939
 4979TIP3    H136428   3.147   3.863   0.564  0.2305 -1.2045  0.2055
 4979TIP3    H236429   3.084   3.808   0.438  0.3479 -1.9734  0.4789
 4980TIP3   OH236430   1.903   3.208   4.289  0.1974 -0.9295  0.3193
 4980TIP3    H136431   1.821   3.224   4.243 -0.9147  0.2204  2.6289
 4980TIP3    H236432   1.917   3.114   4.282  0.4393 -0.7036 -2.9450
 4981TIP3   OH236433   3.503   2.096  11.157 -0.3632  0.0648 -0.1884
 4981TIP3    H136434   3.580   2.066  11.206  0.3787  0.7947 -0.9013
 4981TIP3    H236435   3.508   2.049  11.074 -1.7829 -1.3970  0.5324
 4982TIP3   OH236436   0.798   2.021  14.675  0.1532 -0.2194 -0.0785
 4982TIP3    H136437   0.763   1.946  14.725  1.8248  1.1386  3.2861
 4982TIP3    H236438   0.882   1.990  14.643  0.4608 -0.0668  0.5800
 4983TIP3   OH236439   5.020   4.420   1.620 -0.0215 -0.7645  0.6616
 4983TIP3    H136440   4.958   4.385   1.684  0.0788 -0.3074  1.0132
 4983TIP3    H236441   5.092   4.454   1.673 -0.1589  0.0544  0.3325
 4984TIP3   OH236442   1.183   3.940  16.040  0.5332 -0.2471  0.3861
 4984TIP3    H136443   1.143   3.916  15.957  0.5424  0.6028  0.1407
 4984TIP3    H236444   1.268   3.897  16.039  1.0471  0.7649 -0.5804
 4985TIP3   OH236445   0.573   1.211  15.980  0.5894 -0.4062  0.6911
 4985TIP3    H136446   0.601   1.202  16.071  1.5775  0.7743  0.5146
 4985TIP3    H236447   0.624   1.284  15.946 -2.0071  1.1899  0.0682
 4986TIP3   OH236448   4.427   4.688   5.634 -0.3746 -0.1863 -0.5762
 4986TIP3    H136449   4.456   4.720   5.719 -0.9237 -1.4207  0.0938
 4986TIP3    H236450   4.496   4.715   5.574 -0.7680  2.1219 -0.0379
 4987TIP3   OH236451   6.076   6.031   1.660 -0.0610 -0.2108 -0.3943
 4987TIP3    H136452   6.093   6.016   1.567  1.6019 -0.6222 -0.0346
 4987TIP3    H236453   6.082   6.126   1.670 -0.2462 -0.1647 -0.7153
 4988TIP3   OH236454   3.171   2.192  16.430 -0.3258  0.1342  0.6213
 4988TIP3    H136455   3.100   2.151  16.479  0.7950 -1.4753  0.9061
 4988TIP3    H236456   3.197   2.127  16.365  0.2552  1.0875 -0.1135
 4989TIP3   OH236457   5.180   0.473  13.810 -0.3447  0.1264  0.2777
 4989TIP3    H136458   5.160   0.567  13.819  1.5104  0.4658  1.0356
 4989TIP3    H236459   5.168   0.454  13.717  0.7716  1.4801 -0.1580
 4990TIP3   OH236460   2.839   2.791  12.343 -0.0119  0.0312 -0.4805
 4990TIP3    H136461   2.888   2.873  12.353 -1.4497  0.7431  0.9926
 4990TIP3    H236462   2.905   2.723  12.358  1.2642  0.8828 -1.9981
 4991TIP3   OH236463   4.397   0.235   0.664 -0.1269  0.1274  0.1459
 4991TIP3    H136464   4.459   0.168   0.694 -0.1453 -0.3302 -0.8145
 4991TIP3    H236465   4.322   0.226   0.722  0.1904 -0.1747  0.5099
 4992TIP3   OH236466   3.705   3.093   3.746  0.2996  0.6315  0.5617
 4992TIP3    H136467   3.648   3.170   3.746 -1.1598 -0.4346  0.6492
 4992TIP3    H236468   3.693   3.054   3.832 -0.0634 -0.4777  0.0201
 4993TIP3   OH236469   4.185   0.389  15.326  0.1676  0.2531  0.4056
 4993TIP3    H136470   4.262   0.340  15.297  1.1573  1.3518  1.1269
 4993TIP3    H236471   4.130   0.397  15.248  0.7724 -0.5743 -0.1076
 4994TIP3   OH236472   2.338   5.130   5.611  0.3094  0.2494  0.5935
 4994TIP3    H136473   2.264   5.149   5.552 -0.1891  0.8718  1.4069
 4994TIP3    H236474   2.350   5.035   5.604 -0.7324  0.1041  0.6431
 4995TIP3   OH236475   5.359   6.288   3.317  0.2052 -0.4922 -0.2424
 4995TIP3    H136476   5.417   6.234   3.263 -0.5970 -1.3274 -0.3015
 4995TIP3    H236477   5.414   6.319   3.388  0.7705 -1.1352 -0.3917
 4996TIP3   OH236478   2.724   1.966   0.173  0.6171  0.0667  1.0505
 4996TIP3    H136479   2.730   1.928   0.261  0.4906 -1.0790  0.5840
 4996TIP3    H236480   2.667   2.042   0.182  1.3607  0.4994  2.1308
 4997TIP3   OH236481   6.660   6.600  12.492  0.5864  0.0144 -0.0669
 4997TIP3    H136482   6.636   6.606  12.585  1.3055  0.9775  0.0726
 4997TIP3    H236483   6.613   6.523  12.460 -0.2820  0.1136  0.9098
 4998TIP3   OH236484   4.020   0.007  15.452 -0.3819 -0.1974  0.7849
 4998TIP3    H136485   4.018  -0.058  15.521  0.7670 -1.3763 -0.2683
 4998TIP3    H236486   4.096  -0.017  15.398 -1.6532  0.2692 -1.2788
 4999TIP3   OH236487   2.977   4.303  15.101 -0.0974  0.5906  0.3723
 4999TIP3    H136488   2.905   4.240  15.097 -0.6568  1.1928  0.8637
 4999TIP3    H236489   2.937   4.386  15.075  1.2597  0.2386 -3.1887
 5000TIP3   OH236490   3.143   0.461   5.713 -0.7057  1.0766 -0.2467
 5000TIP3    H136491   3.206   0.502   5.654 -0.5843  1.5237  0.1856
 5000TIP3    H236492   3.163   0.498   5.799 -1.0909  0.6801  0.0197
 5001TIP3   OH236493   3.404   5.457   1.333  0.0964  0.2487  0.3150
 5001TIP3    H136494   3.365   5.427   1.251  3.3237  2.1059 -2.0058
 5001TIP3    H236495   3.358   5.537   1.355 -1.1715 -0.5657  0.6830
 5002TIP3   OH236496   6.630   4.748  13.529  0.2338  0.3671  0.3979
 5002TIP3    H136497   6.566   4.799  13.577 -0.7376 -0.1540 -0.3353
 5002TIP3    H236498   6.579   4.680  13.484  0.9673  1.5999 -2.3890
 5003TIP3   OH236499   2.643   3.493   0.868 -0.0913  0.4662  0.1647
 5003TIP3    H136500   2.692   3.476   0.787 -0.5934 -1.2520  0.2208
 5003TIP3    H236501   2.555   3.460   0.850 -0.2429  0.1984  1.3698
 5004TIP3   OH236502   0.937   3.322   2.196 -0.1042 -0.7563 -0.2105
 5004TIP3    H136503   0.964   3.259   2.264 -2.9404 -1.5267  0.2634
 5004TIP3    H236504   0.850   3.351   2.224  0.4846  2.1726 -1.2943
 5005TIP3   OH236505   4.534   4.599   3.138  0.0532  0.1833 -0.2072
 5005TIP3    H136506   4.609   4.551   3.174  1.0640  1.3871 -0.6885
 5005TIP3    H236507   4.571   4.650   3.066 -1.3312  0.4125 -0.7611
 5006TIP3   OH236508   6.540   5.722  17.179  0.7085  0.5980 -0.1035
 5006TIP3    H136509   6.495   5.713  17.096 -2.5907  0.3863  1.6373
 5006TIP3    H236510   6.552   5.816  17.190 -2.0155  0.8906  0.7414
 5007TIP3   OH236511   0.465   0.203   1.798 -0.6258  0.3217 -0.1091
 5007TIP3    H136512   0.482   0.161   1.882 -1.5422 -1.0063 -0.5744
 5007TIP3    H236513   0.446   0.294   1.820 -2.0932 -0.2946  1.2451
 5008TIP3   OH236514   5.274   0.756   5.890  0.1342 -0.0477  0.4283
 5008TIP3    H136515   5.248   0.669   5.918 -2.0087  0.4110 -0.0194
 5008TIP3    H236516   5.192   0.806   5.886  0.8481  1.0465 -2.5480
 5009TIP3   OH236517   0.333   3.630  11.736  0.3286 -0.0213  0.6734
 5009TIP3    H136518   0.418   3.593  11.759  0.8471  0.1616 -0.8814
 5009TIP3    H236519   0.350   3.681  11.657 -1.7305 -2.0596 -1.1583
 5010TIP3   OH236520   4.706   0.128  12.811  0.1505 -0.0563 -0.3595
 5010TIP3    H136521   4.734   0.183  12.884 -1.4344 -1.1550  1.1496
 5010TIP3    H236522   4.785   0.114  12.759  1.1033  1.5337  0.6203
 5011TIP3   OH236523   5.901   5.956  14.204  0.4201 -0.2615  0.1707
 5011TIP3    H136524   5.993   5.932  14.188 -0.3034 -1.2559 -2.7006
 5011TIP3    H236525   5.860   5.874  14.232 -0.2097 -0.5131 -1.4332
 5012TIP3   OH236526   4.972   4.246  14.431 -0.1308  0.2655 -0.1549
 5012TIP3    H136527   5.047   4.199  14.394  0.3001  1.2299 -0.5370
 5012TIP3    H236528   4.953   4.200  14.513  1.4497  0.5402  0.3883
 5013TIP3   OH236529   1.266   4.667   6.174  0.1524 -0.0803  0.0824
 5013TIP3    H136530   1.264   4.626   6.260  0.5129 -1.8627 -0.7464
 5013TIP3    H236531   1.323   4.743   6.185 -1.3116  0.8003  1.8742
 5014TIP3   OH236532   4.670   3.704  15.932  0.7537  0.3030  0.6975
 5014TIP3    H136533   4.618   3.627  15.907  1.1746  0.4897 -0.8354
 5014TIP3    H236534   4.709   3.680  16.016  2.0718 -1.8066 -0.4431
 5015TIP3   OH236535   5.026   1.202   2.482 -0.2710 -0.5884  0.0588
 5015TIP3    H136536   5.118   1.214   2.503  0.0664 -0.5283 -1.3869
 5015TIP3    H236537   4.985   1.285   2.505  0.7971  0.9363 -3.2078
 5016TIP3   OH236538   1.711   6.438   1.930 -0.1784 -0.1869 -0.2774
 5016TIP3    H136539   1.619   6.452   1.952 -0.5099 -1.0706 -1.0519
 5016TIP3    H236540   1.748   6.525   1.922 -0.7138  0.1699  1.0053
 5017TIP3   OH236541   0.131   4.336   5.932 -0.2457  0.5976  0.6167
 5017TIP3    H136542   0.191   4.269   5.963  0.0293  1.7698  2.7064
 5017TIP3    H236543   0.185   4.416   5.927 -0.9705  1.0488 -0.1981
 5018TIP3   OH236544   2.878   1.682   4.142  0.0074 -0.1508  0.4163
 5018TIP3    H136545   2.817   1.748   4.111  1.0199  0.1670 -0.9951
 5018TIP3    H236546   2.953   1.690   4.082  0.4042 -2.1293  0.6205
 5019TIP3   OH236547   3.768   0.632  17.066 -0.4566 -0.1147 -0.1551
 5019TIP3    H136548   3.697   0.568  17.068  1.2618 -2.0933  0.7077
 5019TIP3    H236549   3.792   0.644  17.159 -1.8616  3.1160 -0.1496
 5020TIP3   OH236550   1.442   5.181   3.595  0.5746 -0.0027 -0.7294
 5020TIP3    H136551   1.436   5.099   3.644  2.2172 -0.7582 -1.7515
 5020TIP3    H236552   1.457   5.248   3.661 -1.2266 -0.4473  0.1592
 5021TIP3   OH236553   3.527   5.043  12.919  0.4404 -0.7464 -0.4755
 5021TIP3    H136554   3.490   4.994  12.993  0.4967 -0.8327 -0.5050
 5021TIP3    H236555   3.609   4.998  12.898  1.1582  0.1330  0.3516
 5022TIP3   OH236556   4.463   2.832  13.550 -0.0489  0.2878  0.1558
 5022TIP3    H136557   4.502   2.762  13.601  1.4739  1.1297  0.1922
 5022TIP3    H236558   4.477   2.806  13.459  1.1739  0.8613  0.1612
 5023TIP3   OH236559   4.084   5.793  11.674  0.5497  0.0914  0.0069
 5023TIP3    H136560   4.160   5.850  11.663 -0.1331  0.9950 -0.1283
 5023TIP3    H236561   4.011   5.843  11.636  0.3739 -1.9415 -2.4248
 5024TIP3   OH236562   5.932   5.169   4.061 -0.7393  0.1823 -0.0897
 5024TIP3    H136563   5.896   5.114   4.130  0.0882  1.2448  1.2124
 5024TIP3    H236564   5.875   5.246   4.060 -1.3166 -0.2409 -1.2533
 5025TIP3   OH236565   1.049   1.933  14.619  0.1514 -0.1790 -0.4671
 5025TIP3    H136566   1.081   2.020  14.644 -0.0543  0.0673 -1.0493
 5025TIP3    H236567   1.086   1.874  14.685  0.1797  0.3666  0.0132
 5026TIP3   OH236568   3.444   0.542  11.211  0.4080 -0.0119  0.0830
 5026TIP3    H136569   3.407   0.476  11.270  1.8848 -2.3832 -1.5730
 5026TIP3    H236570   3.368   0.574  11.161 -0.0654 -1.8381 -0.4082
 5027TIP3   OH236571   1.744   0.439   0.618 -0.1138 -0.3071 -0.1010
 5027TIP3    H136572   1.741   0.529   0.583  0.0757  0.0721  0.8489
 5027TIP3    H236573   1.777   0.449   0.707 -0.2699 -1.3122  0.0723
 5028TIP3   OH236574   1.474   6.178  14.270  0.1735 -0.0524 -0.1958
 5028TIP3    H136575   1.487   6.093  14.230 -0.2040 -0.8779  1.3983
 5028TIP3    H236576   1.441   6.233  14.198  0.0806 -1.3258 -1.1541
 5029TIP3   OH236577   6.816   3.957   3.318  0.2561  0.0042 -0.2959
 5029TIP3    H136578   6.855   4.020   3.379 -0.2807 -0.3626  0.4257
 5029TIP3    H236579   6.873   3.880   3.323  1.2111  0.6073 -1.5646
 5030TIP3   OH236580   4.980   5.359  12.715  0.2337 -0.4536  0.4844
 5030TIP3    H136581   5.062   5.323  12.750  0.9603 -1.5078 -2.1716
 5030TIP3    H236582   4.997   5.452  12.704  0.9598 -0.6009  0.3201
 5031TIP3   OH236583   4.270   2.152   3.799 -0.0836 -0.0067  0.3834
 5031TIP3    H136584   4.309   2.077   3.842 -0.0289 -0.9775 -1.3075
 5031TIP3    H236585   4.341   2.190   3.747 -0.2038  1.0096  0.9436
 5032TIP3   OH236586   5.014   4.901   3.503 -0.4164 -0.3336  0.2272
 5032TIP3    H136587   5.084   4.960   3.475 -1.3138  0.5420 -0.1794
 5032TIP3    H236588   4.956   4.893   3.428 -1.4518 -0.0184  0.9755
 5033TIP3   OH236589   5.553   6.032  14.457 -0.4220 -0.1454  0.0053
 5033TIP3    H136590   5.550   6.043  14.362 -0.9292  0.1142  0.0474
 5033TIP3    H236591   5.612   5.957  14.471  1.3248  1.1230 -0.4020
 5034TIP3   OH236592   0.725   1.370   4.464  0.1258  0.5954  0.2782
 5034TIP3    H136593   0.656   1.424   4.501  0.6760  0.7461  1.1137
 5034TIP3    H236594   0.721   1.386   4.370  0.1235  1.9164  0.4888
 5035TIP3   OH236595   3.141   0.235  11.697  0.0770 -0.2709 -0.8946
 5035TIP3    H136596   3.182   0.151  11.715  1.1044  0.2572 -0.7266
 5035TIP3    H236597   3.113   0.267  11.784 -0.9410 -0.7482 -1.0391
 5036TIP3   OH236598   2.834   2.461  13.274 -0.0708  0.6678  0.4692
 5036TIP3    H136599   2.905   2.522  13.293  1.7290 -1.3172  0.3082
 5036TIP3    H236600   2.831   2.403  13.351  0.6305 -1.2073 -0.8649
 5037TIP3   OH236601   4.353   2.912   6.142  0.2967  0.0132  0.1185
 5037TIP3    H136602   4.381   3.001   6.122  2.3687  0.0006  2.6337
 5037TIP3    H236603   4.432   2.868   6.174 -0.6384 -2.8143 -1.2652
 5038TIP3   OH236604   1.797   5.673   6.564  0.3642 -0.2452  0.0655
 5038TIP3    H136605   1.710   5.710   6.580  0.3469 -0.1842 -0.1596
 5038TIP3    H236606   1.855   5.718   6.625  0.1664 -0.5786  0.5041
 5039TIP3   OH236607   6.448   2.011   2.063 -0.0779 -0.0355 -0.5624
 5039TIP3    H136608   6.366   2.046   2.097 -0.7115 -1.6939 -0.3378
 5039TIP3    H236609   6.506   2.088   2.056 -1.2600  0.9643  0.3530
 5040TIP3   OH236610   0.540   4.900   1.387 -0.0582  0.3293 -0.0263
 5040TIP3    H136611   0.623   4.944   1.404 -0.2090  0.2338  1.0037
 5040TIP3    H236612   0.554   4.852   1.306  0.9910  0.0852  0.2930
 5041TIP3   OH236613   4.976   0.438   1.041 -0.7017 -0.4289  0.1271
 5041TIP3    H136614   4.928   0.454   0.959  0.9321 -0.7390 -0.9130
 5041TIP3    H236615   4.935   0.360   1.078 -0.2648 -1.3527 -1.3220
 5042TIP3   OH236616   6.493   1.211   4.921 -0.5291 -0.4826  0.4659
 5042TIP3    H136617   6.443   1.266   4.862 -0.8910 -0.2627  0.9819
 5042TIP3    H236618   6.566   1.178   4.867 -1.9776 -1.9148 -0.6686
 5043TIP3   OH236619   1.199   4.245   1.626 -0.1919 -0.1013  0.0994
 5043TIP3    H136620   1.260   4.319   1.620 -0.0954 -0.2348 -0.6453
 5043TIP3    H236621   1.153   4.259   1.708  1.6242 -0.5822  1.2304
 5044TIP3   OH236622   5.773   1.160   4.036  0.3853  0.5203  0.0247
 5044TIP3    H136623   5.843   1.222   4.056 -0.0045  0.7407  0.7119
 5044TIP3    H236624   5.696   1.196   4.079 -0.5074  1.0631 -1.9683
 5045TIP3   OH236625   0.209   6.055   1.994  0.4302 -0.0893  0.3325
 5045TIP3    H136626   0.137   6.117   2.007  0.6773  0.1277  0.6894
 5045TIP3    H236627   0.274   6.103   1.944  0.0252 -0.5159 -0.6079
 5046TIP3   OH236628   5.737   4.524   1.837 -0.2787 -0.3260  0.1042
 5046TIP3    H136629   5.742   4.466   1.761 -1.0058 -1.1557  0.6862
 5046TIP3    H236630   5.777   4.606   1.807  0.9660 -1.1877 -0.6536
 5047TIP3   OH236631   5.141   4.578  13.956 -0.1194  0.3302 -0.4150
 5047TIP3    H136632   5.128   4.484  13.949 -0.6284  0.2679  1.2539
 5047TIP3    H236633   5.074   4.616  13.899  0.1396 -0.2957 -1.1515
 5048TIP3   OH236634   0.461   4.758  15.126  0.2540  0.4520 -0.2882
 5048TIP3    H136635   0.466   4.667  15.095  2.0802  0.4023  0.0961
 5048TIP3    H236636   0.379   4.791  15.091 -0.0194 -1.0964 -1.1368
 5049TIP3   OH236637   1.656   1.723   0.796  0.7679  0.0645  0.3894
 5049TIP3    H136638   1.693   1.674   0.723  0.2594 -0.3901  0.4326
 5049TIP3    H236639   1.732   1.753   0.847  1.1099  0.1998 -0.2056
 5050TIP3   OH236640   5.851   1.039   1.821  0.3102 -1.0231  0.0135
 5050TIP3    H136641   5.930   0.988   1.840  1.5487  0.9602  0.3310
 5050TIP3    H236642   5.859   1.116   1.877 -2.1660 -1.0888  0.4853
 5051TIP3   OH236643   6.659   4.199  14.682 -0.5680 -0.4043  0.3091
 5051TIP3    H136644   6.602   4.139  14.633 -0.9659  0.4042 -0.2240
 5051TIP3    H236645   6.601   4.243  14.744 -0.0926 -1.2968  1.4014
 5052TIP3   OH236646   2.067   5.971   1.036  0.6420  0.0075  0.1186
 5052TIP3    H136647   2.153   6.011   1.052 -0.1829  1.1858  1.7616
 5052TIP3    H236648   2.005   6.029   1.080 -0.7423 -2.2582  1.2423
 5053TIP3   OH236649   2.471   0.599  15.407  0.1773  0.3885  0.3871
 5053TIP3    H136650   2.564   0.595  15.429  0.0569  0.1675  0.8786
 5053TIP3    H236651   2.466   0.575  15.315  0.6542  0.8527  0.2385
 5054TIP3   OH236652   5.028   5.043   4.356 -0.7686  0.3181  0.9666
 5054TIP3    H136653   4.947   5.042   4.304 -0.7902  0.2293  1.0004
 5054TIP3    H236654   5.025   5.126   4.403 -1.1387  0.0409  1.4361
 5055TIP3   OH236655   4.949   6.803  10.986  0.9798  0.0638 -0.6588
 5055TIP3    H136656   4.948   6.890  10.946  0.6690  0.8992  1.1272
 5055TIP3    H236657   5.041   6.787  11.007  0.8423  0.6431  0.4306
 5056TIP3   OH236658   0.016   3.002  12.573  0.1494  0.4829  0.0855
 5056TIP3    H136659  -0.047   2.945  12.528  0.8898 -0.9067  0.7741
 5056TIP3    H236660   0.072   3.036  12.503  1.5129 -1.9339 -0.0557
 5057TIP3   OH236661   6.152   3.954  13.453 -0.2449  0.5328  0.1706
 5057TIP3    H136662   6.210   3.997  13.517  0.5171  1.3510 -1.0407
 5057TIP3    H236663   6.070   3.942  13.500  1.0014 -1.0143  2.0648
 5058TIP3   OH236664   3.097   5.719   4.050  0.2837 -0.0996  0.7331
 5058TIP3    H136665   3.064   5.644   4.001 -0.6241 -0.4322  1.8536
 5058TIP3    H236666   3.168   5.753   3.995 -1.4083  0.1965 -1.3459
 5059TIP3   OH236667   4.523   4.786  12.257 -0.2272 -0.3735 -0.0126
 5059TIP3    H136668   4.589   4.850  12.231  0.4045 -1.4519 -1.0847
 5059TIP3    H236669   4.454   4.838  12.298 -1.0205  1.3307 -3.3648
 5060TIP3   OH236670   3.209   5.000  13.483  0.3856 -0.0651 -0.3573
 5060TIP3    H136671   3.272   5.027  13.550  1.2890  1.1434 -1.6412
 5060TIP3    H236672   3.236   4.912  13.458  0.0821 -0.4920  0.8193
 5061TIP3   OH236673   0.133   2.317   2.708 -0.3891  0.8573  0.1793
 5061TIP3    H136674   0.225   2.325   2.683 -0.5586  0.7159 -0.5014
 5061TIP3    H236675   0.106   2.407   2.729 -0.3568  1.0418 -0.5561
 5062TIP3   OH236676   6.580   5.145  14.001  0.6703 -0.1882  0.4875
 5062TIP3    H136677   6.567   5.062  14.048 -0.6380  0.2642  0.9373
 5062TIP3    H236678   6.616   5.118  13.916 -1.4201 -1.3759 -0.0614
 5063TIP3   OH236679   0.387   6.218  14.186 -0.1592  0.3175 -0.2382
 5063TIP3    H136680   0.326   6.174  14.245  0.2629 -2.1281 -1.5910
 5063TIP3    H236681   0.388   6.164  14.107  1.8929  1.6879 -1.1917
 5064TIP3   OH236682   4.713   6.394  14.126  0.0240 -0.2584 -0.4070
 5064TIP3    H136683   4.800   6.361  14.149  0.0825  0.8846  1.0465
 5064TIP3    H236684   4.703   6.474  14.177 -1.5578  0.0692 -1.1970
 5065TIP3   OH236685   2.503   0.343   3.375 -0.1112  0.1169  0.3427
 5065TIP3    H136686   2.548   0.326   3.457 -0.2727 -0.1149  0.3842
 5065TIP3    H236687   2.542   0.424   3.342 -0.2981  0.4057  0.8231
 5066TIP3   OH236688   1.089   0.140   4.918  0.3901  0.6470  0.1624
 5066TIP3    H136689   1.044   0.106   4.995  0.3129 -0.2988 -0.2918
 5066TIP3    H236690   1.050   0.093   4.844  1.5754  0.3949 -0.3103
 5067TIP3   OH236691   6.809   4.276   3.397  0.4049  0.1095  0.0078
 5067TIP3    H136692   6.902   4.301   3.390 -0.0972  1.4122 -2.8039
 5067TIP3    H236693   6.765   4.331   3.333 -2.3199 -0.6795  1.1354
 5068TIP3   OH236694   3.304   0.411   5.166  0.0695  0.9176 -0.4675
 5068TIP3    H136695   3.340   0.357   5.096  0.0006 -0.4729  0.5320
 5068TIP3    H236696   3.211   0.389   5.168  0.0712  0.9441  0.0586
 5069TIP3   OH236697   0.268   3.760  12.732  0.1176 -0.7337  0.1221
 5069TIP3    H136698   0.305   3.806  12.657  2.3348  0.9121  2.1461
 5069TIP3    H236699   0.186   3.807  12.751  0.9620  0.6486  0.4273
 5070TIP3   OH236700   5.471   0.716  17.002  0.3320  0.1479 -0.0687
 5070TIP3    H136701   5.434   0.628  16.999 -1.8150  0.9875  1.2322
 5070TIP3    H236702   5.471   0.745  16.911 -1.0946 -0.3321 -0.2314
 5071TIP3   OH236703   3.263   5.038  14.662  0.3716 -0.1302  0.2601
 5071TIP3    H136704   3.201   5.016  14.591 -0.6161  0.0446  1.0542
 5071TIP3    H236705   3.337   5.078  14.617 -1.1158  1.8546 -0.5276
 5072TIP3   OH236706   3.292   0.719  11.581 -0.5644 -0.2807 -0.0428
 5072TIP3    H136707   3.268   0.652  11.517  1.5139  0.1922 -1.3502
 5072TIP3    H236708   3.384   0.736  11.566 -1.0014  2.8027  0.3461
 5073TIP3   OH236709   3.780   0.065   5.701 -0.0974 -0.8780 -0.7172
 5073TIP3    H136710   3.843   0.097   5.637 -0.9729 -0.3150 -1.3175
 5073TIP3    H236711   3.696   0.069   5.655 -0.9019  0.5528  0.8057
 5074TIP3   OH236712   4.353   3.686  11.267  0.4519 -0.0912  0.7880
 5074TIP3    H136713   4.365   3.597  11.302  1.5141  0.0158  0.7020
 5074TIP3    H236714   4.258   3.700  11.271  0.3217 -1.0369  1.2786
 5075TIP3   OH236715   1.293   2.999  15.994  0.5725  0.5699 -0.2343
 5075TIP3    H136716   1.349   3.045  15.931  1.2552 -1.0068 -0.8082
 5075TIP3    H236717   1.205   3.031  15.974  1.0031  1.4744 -0.7462
 5076TIP3   OH236718   0.615   6.088   1.035  0.1466 -0.2865 -0.0268
 5076TIP3    H136719   0.630   6.045   1.119 -0.7260 -0.1856  0.1868
 5076TIP3    H236720   0.659   6.032   0.971 -0.6133 -1.2720  0.2937
 5077TIP3   OH236721   6.438   5.249   5.803 -0.5404 -0.8844 -0.7936
 5077TIP3    H136722   6.497   5.244   5.727 -0.5436  3.1766 -1.2084
 5077TIP3    H236723   6.357   5.286   5.768 -0.7692  0.4256  1.0243
 5078TIP3   OH236724   6.559   3.914   2.074  0.1545 -0.3046  0.2034
 5078TIP3    H136725   6.596   4.002   2.077 -0.1801 -0.2159  2.1728
 5078TIP3    H236726   6.466   3.926   2.088 -0.0283 -0.9039 -0.4646
 5079TIP3   OH236727   4.558   2.074   0.557 -0.5211  0.1029 -0.0335
 5079TIP3    H136728   4.559   2.168   0.538  0.7566 -0.1531 -1.3882
 5079TIP3    H236729   4.537   2.068   0.650 -1.1270  1.7060 -0.0494
 5080TIP3   OH236730   6.388   6.466  12.130 -0.2822  0.3288  0.1038
 5080TIP3    H136731   6.295   6.455  12.150  0.6989 -3.0843  3.2669
 5080TIP3    H236732   6.404   6.409  12.055 -0.3225 -0.7090  0.8812
 5081TIP3   OH236733   3.146   1.169   3.461 -0.2542 -0.1256  0.1007
 5081TIP3    H136734   3.093   1.231   3.411  0.0109  1.0507  1.2466
 5081TIP3    H236735   3.235   1.185   3.432 -0.4038 -1.4739 -1.1612
 5082TIP3   OH236736   3.866   0.411  13.314  0.9074  0.1684 -0.1887
 5082TIP3    H136737   3.816   0.341  13.272  0.3395  1.0613 -1.0120
 5082TIP3    H236738   3.810   0.443  13.384  0.1540  1.4168 -1.3444
 5083TIP3   OH236739   2.201   4.062  11.215 -0.2022 -0.0015  0.2240
 5083TIP3    H136740   2.109   4.090  11.214  0.0124  0.6944 -0.3750
 5083TIP3    H236741   2.207   4.003  11.290 -1.8327 -2.3819 -1.4756
 5084TIP3   OH236742   2.352   5.077   4.606  0.3606 -0.3063 -0.5906
 5084TIP3    H136743   2.398   5.158   4.587 -1.8934  1.1382 -0.0473
 5084TIP3    H236744   2.358   5.067   4.701 -1.5731  0.6076 -0.3559
 5085TIP3   OH236745   1.380   4.719  13.587  0.2158 -0.4646 -0.5476
 5085TIP3    H136746   1.472   4.745  13.594 -0.5151  2.4655 -1.0483
 5085TIP3    H236747   1.362   4.719  13.493 -0.4944 -0.2557 -0.4152
 5086TIP3   OH236748   5.176   5.414  15.195  0.9171 -0.3145  0.1408
 5086TIP3    H136749   5.248   5.414  15.132 -0.7001 -0.5534 -1.7748
 5086TIP3    H236750   5.193   5.489  15.252  2.3658 -0.0422 -0.6318
 5087TIP3   OH236751   4.184   4.564  16.246 -0.2439 -0.3617 -0.1180
 5087TIP3    H136752   4.194   4.591  16.338 -2.4713 -0.7385  0.2660
 5087TIP3    H236753   4.173   4.469  16.250  1.3066 -0.5934 -0.9395
 5088TIP3   OH236754   4.602   1.611   5.106  0.2252  0.0134  0.8154
 5088TIP3    H136755   4.564   1.550   5.170 -1.2551 -0.4456 -0.4772
 5088TIP3    H236756   4.623   1.556   5.031  0.5536  0.8109  0.3239
 5089TIP3   OH236757   5.800   3.120  10.515 -0.5903  0.7088  0.3501
 5089TIP3    H136758   5.842   3.039  10.544  2.5523  1.1761 -2.5327
 5089TIP3    H236759   5.746   3.093  10.441 -0.3683  1.0605  0.0593
 5090TIP3   OH236760   4.207   1.493  12.001 -0.3920  0.1124  0.2791
 5090TIP3    H136761   4.277   1.554  11.978  0.2654 -0.4149  0.8677
 5090TIP3    H236762   4.136   1.549  12.032 -1.1678  0.8348 -2.5895
 5091TIP3   OH236763   1.011   0.309   6.137  0.2256 -0.2529 -0.6618
 5091TIP3    H136764   1.077   0.368   6.173  1.3920 -1.1140 -1.3931
 5091TIP3    H236765   0.960   0.282   6.214  1.6442 -0.7509  0.1256
 5092TIP3   OH236766   3.425   0.839   1.526  0.2879  0.5070 -0.1080
 5092TIP3    H136767   3.470   0.764   1.564  0.3753  0.6894  0.1519
 5092TIP3    H236768   3.487   0.912   1.536  0.2354  0.5954 -0.4271
 5093TIP3   OH236769   0.459   0.598   1.476 -0.0706  0.1373 -0.0883
 5093TIP3    H136770   0.514   0.618   1.401 -0.2145 -0.8096 -0.4651
 5093TIP3    H236771   0.418   0.514   1.453 -1.2065  0.5326  0.4340
 5094TIP3   OH236772   5.652   4.485  11.626 -0.3942 -0.2191  0.2894
 5094TIP3    H136773   5.651   4.513  11.718 -0.5355 -1.3969  0.6682
 5094TIP3    H236774   5.632   4.564  11.576  0.3018  0.5678  1.2379
 5095TIP3   OH236775   6.647   4.373  16.959  0.7846  0.2371 -0.2260
 5095TIP3    H136776   6.673   4.285  16.934  1.4855  0.5376 -0.5679
 5095TIP3    H236777   6.615   4.365  17.049 -0.2108 -0.5632 -0.6507
 5096TIP3   OH236778   3.975   3.374   1.594  0.4189  0.2226  0.2903
 5096TIP3    H136779   3.957   3.341   1.682 -0.5426  1.8248  0.6993
 5096TIP3    H236780   3.890   3.378   1.552  1.0454 -2.2485 -1.3739
 5097TIP3   OH236781   5.547   2.228  11.207 -0.5522  0.4794 -0.1659
 5097TIP3    H136782   5.596   2.147  11.196 -2.1378 -0.9190  2.5553
 5097TIP3    H236783   5.456   2.205  11.186 -0.8921  1.7348 -0.1328
 5098TIP3   OH236784   0.782   3.421  12.648  0.1390  0.0952  0.5476
 5098TIP3    H136785   0.807   3.341  12.602 -0.9779 -0.8056  1.4900
 5098TIP3    H236786   0.713   3.459  12.593 -1.3481 -1.0951  1.5996
 5099TIP3   OH236787   6.327   3.738  12.573  0.0084  0.1922  0.2132
 5099TIP3    H136788   6.271   3.816  12.575  0.3599  0.4360  0.4893
 5099TIP3    H236789   6.275   3.671  12.618  0.0947  0.5233  0.8077
 5100TIP3   OH236790   5.062   1.012  13.575 -0.0350  0.0415  0.4461
 5100TIP3    H136791   5.054   0.960  13.655 -1.1461 -0.1016  0.2427
 5100TIP3    H236792   4.998   1.082  13.585  1.2509  1.2288  0.5891
 5101TIP3   OH236793   0.230   5.735  11.202 -0.0700 -0.6456 -0.3131
 5101TIP3    H136794   0.231   5.736  11.298  1.0465  3.9228 -0.2736
 5101TIP3    H236795   0.299   5.672  11.179 -0.2551 -1.7072  1.8687
 5102TIP3   OH236796   2.865   3.238  16.617 -0.0483  1.0379  0.1382
 5102TIP3    H136797   2.944   3.218  16.567 -1.5745  0.3763 -2.0383
 5102TIP3    H236798   2.887   3.320  16.663  2.3206  0.2170  0.5601
 5103TIP3   OH236799   3.244   0.925  14.727 -0.2187 -0.1387 -0.4901
 5103TIP3    H136800   3.207   0.873  14.656  1.6983 -1.5431 -0.5037
 5103TIP3    H236801   3.323   0.964  14.691  0.2668 -0.1022  0.5724
 5104TIP3   OH236802   3.080   6.636   5.162 -0.0685  0.4023  0.0700
 5104TIP3    H136803   3.091   6.728   5.184 -0.5201  0.0853  1.6625
 5104TIP3    H236804   3.125   6.626   5.078 -1.3049  2.3778 -0.8486
 5105TIP3   OH236805   0.065   3.867   2.234  0.3491  0.1389 -0.5088
 5105TIP3    H136806   0.037   3.797   2.174  0.8472 -0.6476  0.1553
 5105TIP3    H236807   0.160   3.855   2.241  0.1930 -0.2749  1.0495
 5106TIP3   OH236808   2.029   5.535  17.212  0.1783 -0.2642  0.0669
 5106TIP3    H136809   1.962   5.476  17.246  1.4466 -1.8107 -0.0800
 5106TIP3    H236810   2.100   5.478  17.184  1.7814  1.3689  0.6656
 5107TIP3   OH236811   1.082   2.581   5.519 -0.2124  0.0561 -0.6931
 5107TIP3    H136812   1.088   2.574   5.424  1.1854 -1.3196 -0.5261
 5107TIP3    H236813   1.049   2.669   5.535  0.2884  0.5675 -2.4356
 5108TIP3   OH236814   5.932   2.877  17.248 -0.7983  0.4771 -0.1666
 5108TIP3    H136815   5.923   2.795  17.200  1.0445 -0.8661  1.7308
 5108TIP3    H236816   5.878   2.939  17.198 -0.3174 -1.2535 -2.9845
 5109TIP3   OH236817   1.806   3.757   2.519  0.0870 -0.6234  0.1933
 5109TIP3    H136818   1.745   3.757   2.445 -0.2641  0.5362  0.4711
 5109TIP3    H236819   1.749   3.764   2.596  0.5583  0.4256  0.4562
 5110TIP3   OH236820   6.358   0.183  14.538  0.4369 -0.5228  0.2811
 5110TIP3    H136821   6.433   0.182  14.479  0.9177  0.4010  0.8572
 5110TIP3    H236822   6.306   0.259  14.511 -0.2781 -1.1330 -0.0931
 5111TIP3   OH236823   5.402   3.375   1.842 -0.1594  0.3505 -0.1364
 5111TIP3    H136824   5.357   3.291   1.856 -1.8330  1.2550  0.0833
 5111TIP3    H236825   5.407   3.384   1.747  0.2000 -0.0931 -0.1597
 5112TIP3   OH236826   5.312   5.379   5.606  0.0004 -0.0737  0.2840
 5112TIP3    H136827   5.240   5.395   5.545 -1.0595 -1.5907  1.0993
 5112TIP3    H236828   5.307   5.452   5.668 -1.3957 -0.6268  0.8439
 5113TIP3   OH236829   3.594   1.172  12.044  0.1622  0.0081  0.1044
 5113TIP3    H136830   3.523   1.199  12.102 -1.1218  0.4572 -1.6603
 5113TIP3    H236831   3.579   1.079  12.030  1.0565 -0.3260  1.2734
 5114TIP3   OH236832   0.170   1.205   6.992 -0.4606  0.4662 -0.2935
 5114TIP3    H136833   0.246   1.261   6.975  0.4673 -1.3637 -2.6369
 5114TIP3    H236834   0.126   1.199   6.907 -2.5504  0.5047  0.7616
 5115TIP3   OH236835   2.519   3.158  11.566 -0.0405  0.2095 -0.3779
 5115TIP3    H136836   2.535   3.162  11.472 -1.4233  0.5277 -0.6095
 5115TIP3    H236837   2.604   3.177  11.606  1.1232 -2.2980 -1.5470
 5116TIP3   OH236838   5.030   4.173   1.465  0.4039  0.5574 -0.2607
 5116TIP3    H136839   5.065   4.194   1.379  0.4739  0.2180 -0.3169
 5116TIP3    H236840   5.015   4.258   1.507 -0.9485  0.7474 -1.1255
 5117TIP3   OH236841   4.529   4.947   3.491  0.2687  0.6730  0.1377
 5117TIP3    H136842   4.544   4.957   3.585  2.3917  0.1043 -0.1083
 5117TIP3    H236843   4.557   4.858   3.471 -2.2168  0.0271 -0.6846
 5118TIP3   OH236844   0.650   1.998   4.558  0.2783  0.2136 -0.5317
 5118TIP3    H136845   0.614   2.000   4.647 -1.4106 -0.9874 -1.1558
 5118TIP3    H236846   0.692   2.083   4.547  1.0507  0.1241  1.6347
 5119TIP3   OH236847   3.625   2.442  13.067  0.3883  0.3194 -0.3092
 5119TIP3    H136848   3.649   2.349  13.067  0.4189  0.3169  1.1632
 5119TIP3    H236849   3.709   2.488  13.067  0.4232  0.3191  2.3548
 5120TIP3   OH236850   6.591   5.448   3.063  0.1517 -0.0614 -0.2544
 5120TIP3    H136851   6.669   5.480   3.017  0.4774  0.0758  0.3886
 5120TIP3    H236852   6.611   5.460   3.156 -1.1574  1.2002 -0.1193
 5121TIP3   OH236853   6.165   5.791  12.994 -0.2899  0.1295  0.5758
 5121TIP3    H136854   6.103   5.815  13.063 -1.6633  0.6868 -0.8296
 5121TIP3    H236855   6.154   5.859  12.928  0.7481 -0.6067 -0.3584
 5122TIP3   OH236856   5.429   4.793  16.027  0.3962  0.5794 -0.1256
 5122TIP3    H136857   5.365   4.798  15.956  1.2273 -1.4989 -1.0828
 5122TIP3    H236858   5.378   4.760  16.102 -0.1303  1.1791 -0.2100
 5123TIP3   OH236859   2.695   4.552   4.978  0.0234 -0.3878  0.3885
 5123TIP3    H136860   2.600   4.561   4.966  0.1714 -0.0095 -0.5389
 5123TIP3    H236861   2.727   4.642   4.985  0.4034 -0.4958  0.0230
 5124TIP3   OH236862   1.767   5.613   2.939 -0.0223  0.3677 -0.2513
 5124TIP3    H136863   1.809   5.649   2.860  0.9438  1.5790  0.7929
 5124TIP3    H236864   1.724   5.534   2.908  1.4043  0.1315 -1.7715
 5125TIP3   OH236865   0.940   0.429   4.719 -0.2899 -0.1687  0.0955
 5125TIP3    H136866   0.962   0.491   4.789 -0.2021 -1.1640  0.9758
 5125TIP3    H236867   0.887   0.479   4.658  0.0091  0.8450  0.6565
 5126TIP3   OH236868   2.378   4.576   3.121  0.2020 -0.3376 -0.1811
 5126TIP3    H136869   2.365   4.577   3.216  1.3043  0.7680 -0.0341
 5126TIP3    H236870   2.332   4.655   3.091 -1.7439 -1.6564 -0.8068
 5127TIP3   OH236871   6.409   5.348  16.161 -0.3856 -0.6970 -0.3015
 5127TIP3    H136872   6.370   5.402  16.229 -0.0896 -1.6945  0.6652
 5127TIP3    H236873   6.369   5.262  16.173 -1.9175 -0.3831 -2.7125
 5128TIP3   OH236874   4.278   2.492  15.370  0.5631 -0.2894  0.0873
 5128TIP3    H136875   4.348   2.469  15.431  2.1970  0.9977 -1.2451
 5128TIP3    H236876   4.259   2.584  15.389 -1.2257 -0.7709  0.8294
 5129TIP3   OH236877   3.104   2.817   1.145  0.3188 -0.2235  0.5161
 5129TIP3    H136878   3.024   2.869   1.151 -0.3330 -1.1906  0.3978
 5129TIP3    H236879   3.130   2.824   1.053 -0.1125 -0.6004  0.3627
 5130TIP3   OH236880   5.827   2.079  13.075  0.2291 -0.3846 -0.6601
 5130TIP3    H136881   5.757   2.017  13.097 -1.2354  0.5270 -2.5430
 5130TIP3    H236882   5.868   2.043  12.997  0.1777  0.3772 -1.0479
 5131TIP3   OH236883   6.558   2.095  12.907 -0.3513 -0.6326 -0.0004
 5131TIP3    H136884   6.609   2.014  12.915 -0.0868 -0.5249 -0.5811
 5131TIP3    H236885   6.576   2.143  12.988 -0.0301 -0.8826  0.0775
 5132TIP3   OH236886   3.940   0.913  12.090 -0.1256  0.2763  0.1972
 5132TIP3    H136887   3.884   0.839  12.065 -0.6929  0.8653 -0.3157
 5132TIP3    H236888   4.027   0.888  12.060 -0.6153  0.5287 -1.4918
 5133TIP3   OH236889   5.947   4.478  16.855 -0.3212 -0.3545  0.3707
 5133TIP3    H136890   5.916   4.408  16.797 -0.9196 -0.6845  1.0682
 5133TIP3    H236891   6.040   4.486  16.836  0.0807 -2.4067  1.3528
 5134TIP3   OH236892   3.810   3.288  12.481 -0.1143  0.3831  0.2320
 5134TIP3    H136893   3.903   3.284  12.502  0.3480  0.4627 -1.7643
 5134TIP3    H236894   3.780   3.197  12.488  0.3914  0.1666 -0.4090
 5135TIP3   OH236895   1.806   6.736  13.863 -0.2811 -0.3010 -0.4008
 5135TIP3    H136896   1.805   6.830  13.876 -0.3362 -0.1211 -1.6328
 5135TIP3    H236897   1.714   6.709  13.874 -0.3991 -0.0917 -0.8750
 5136TIP3   OH236898   1.320   3.180   5.021  0.2875  0.4519  0.1892
 5136TIP3    H136899   1.370   3.121   5.078 -2.2385 -1.3129  0.6577
 5136TIP3    H236900   1.286   3.247   5.080 -0.4975 -0.1438  0.4343
 5137TIP3   OH236901   3.482   0.260   5.910  0.9858  0.2257 -0.2405
 5137TIP3    H136902   3.536   0.275   5.988 -1.0081  2.3523  0.7985
 5137TIP3    H236903   3.402   0.222   5.944  0.0625  1.2617 -1.2227
 5138TIP3   OH236904   2.369   5.135  10.611  0.0222 -0.1361  0.6860
 5138TIP3    H136905   2.425   5.181  10.674  1.5709 -1.4651  0.3025
 5138TIP3    H236906   2.426   5.118  10.536 -1.1356 -0.7845 -0.0585
 5139TIP3   OH236907   2.686   4.133   3.824 -0.4980 -0.3835 -0.2700
 5139TIP3    H136908   2.737   4.195   3.877  0.7001 -1.6282  0.0639
 5139TIP3    H236909   2.618   4.101   3.884 -0.5093 -0.1272 -0.1445
 5140TIP3   OH236910   2.985   5.808   3.239 -0.4811  0.1542  0.3298
 5140TIP3    H136911   2.985   5.888   3.187 -2.9081  0.9758  1.4903
 5140TIP3    H236912   2.958   5.739   3.179  1.3048  0.2624 -0.5994
 5141TIP3   OH236913   6.141   3.399  17.007  0.2247 -0.5498  0.4152
 5141TIP3    H136914   6.149   3.397  17.103  1.2355 -3.4168  0.3159
 5141TIP3    H236915   6.157   3.490  16.984  2.1474 -0.2082  2.8337
 5142TIP3   OH236916   1.374   4.374  14.459 -0.1375  0.0026  0.4613
 5142TIP3    H136917   1.389   4.468  14.470  1.5888 -0.1293 -0.5217
 5142TIP3    H236918   1.461   4.335  14.469 -0.8775 -1.5275  1.1138
 5143TIP3   OH236919   6.096   0.946   3.009  0.1439  0.4682 -0.0319
 5143TIP3    H136920   6.032   0.995   2.957 -0.6175  0.8635  1.2692
 5143TIP3    H236921   6.160   1.011   3.036  0.1747  0.3840  0.0977
 5144TIP3   OH236922   0.128   5.154   0.144 -0.3134 -0.4877 -0.1744
 5144TIP3    H136923   0.111   5.095   0.071 -0.6934  0.9330 -1.2560
 5144TIP3    H236924   0.054   5.215   0.144  0.1606  0.1141  0.7930
 5145TIP3   OH236925   6.769   1.905  14.759  0.2285  0.1958 -0.0733
 5145TIP3    H136926   6.797   1.992  14.731  3.2835 -0.6096  0.3851
 5145TIP3    H236927   6.736   1.864  14.679 -0.6323  1.5009 -0.4223
 5146TIP3   OH236928   0.791   6.558  11.663  0.4373 -0.6666  0.5414
 5146TIP3    H136929   0.711   6.547  11.612 -1.3576  1.6000  2.7493
 5146TIP3    H236930   0.830   6.639  11.630  0.6550 -0.5955  0.9763
 5147TIP3   OH236931   4.588   4.328  15.268 -0.4313 -0.0750 -0.2821
 5147TIP3    H136932   4.588   4.422  15.289 -2.9260  0.5542 -2.7433
 5147TIP3    H236933   4.579   4.326  15.173 -2.3626 -2.8146 -0.0851
 5148TIP3   OH236934   1.257   6.413  10.343 -0.4395 -0.3029 -0.3500
 5148TIP3    H136935   1.320   6.458  10.399  0.5800 -1.9132 -0.1771
 5148TIP3    H236936   1.267   6.453  10.257  0.5262 -0.2596 -0.2183
 5149TIP3   OH236937   6.115   6.324   5.035  0.2488 -0.2135 -0.0987
 5149TIP3    H136938   6.145   6.381   5.106  0.1848  0.8293 -0.8978
 5149TIP3    H236939   6.193   6.309   4.982  0.2038 -0.6441 -0.0416
 5150TIP3   OH236940   3.494   6.083   2.003  0.6982 -0.3656 -0.3019
 5150TIP3    H136941   3.438   6.156   2.028 -0.2223 -1.1417 -0.0850
 5150TIP3    H236942   3.524   6.046   2.086  1.5835  0.0696 -0.4141
 5151TIP3   OH236943   2.097   1.891  14.923  0.5153 -0.2796  0.6933
 5151TIP3    H136944   2.152   1.958  14.964 -0.5821  0.5406  0.8764
 5151TIP3    H236945   2.046   1.855  14.996  1.2108 -1.4330  0.6197
 5152TIP3   OH236946   0.833   6.038   2.434 -0.5381 -0.0020  0.1426
 5152TIP3    H136947   0.772   5.975   2.472  0.4334 -1.1548 -0.1552
 5152TIP3    H236948   0.878   5.989   2.364 -0.1496  1.1808 -0.4556
 5153TIP3   OH236949   1.304   0.672   2.538  0.6051 -0.1909  0.2551
 5153TIP3    H136950   1.235   0.612   2.566 -0.6751  1.6917  1.2482
 5153TIP3    H236951   1.258   0.740   2.488  1.8838  0.4892 -0.0344
 5154TIP3   OH236952   5.993   0.372  15.476  0.0649 -0.3027 -0.0530
 5154TIP3    H136953   6.025   0.401  15.561  0.6649  0.9098 -0.6755
 5154TIP3    H236954   5.924   0.435  15.453 -0.2331 -0.7398 -0.3811
 5155TIP3   OH236955   2.335   4.969   6.065 -0.3647  0.3553 -0.0539
 5155TIP3    H136956   2.393   4.937   6.135  1.2973  1.1035 -1.0732
 5155TIP3    H236957   2.317   5.060   6.089 -0.5526  0.3286 -0.0984
 5156TIP3   OH236958   1.130   0.763   3.565  0.2595  0.4765 -0.9475
 5156TIP3    H136959   1.225   0.752   3.574  0.0764 -0.4409 -0.1464
 5156TIP3    H236960   1.120   0.852   3.529  1.3638  1.0266  0.0862
 5157TIP3   OH236961   0.628   3.162  14.527 -0.3267 -0.2207  0.2909
 5157TIP3    H136962   0.564   3.149  14.457  0.7745 -0.1566 -0.7420
 5157TIP3    H236963   0.693   3.221  14.490  0.2477 -0.1452  1.3891
 5158TIP3   OH236964   1.482   6.500   4.868 -0.4082 -0.1284  0.3345
 5158TIP3    H136965   1.404   6.550   4.844 -0.6539 -0.0357  1.2978
 5158TIP3    H236966   1.468   6.477   4.960 -0.9337 -3.1405 -0.4414
 5159TIP3   OH236967   5.347   3.175  11.081 -0.0714  0.0239  0.1753
 5159TIP3    H136968   5.386   3.219  11.005  1.0882  0.1315  0.8177
 5159TIP3    H236969   5.332   3.085  11.053  0.7735 -0.0496 -0.0333
 5160TIP3   OH236970   5.582   3.466  11.629 -0.1655 -0.3744  0.7611
 5160TIP3    H136971   5.588   3.452  11.723  0.7734 -2.5085  0.4035
 5160TIP3    H236972   5.669   3.498  11.604  0.1639 -1.5637  0.3520
 5161TIP3   OH236973   4.092   3.829  14.046  0.3325 -0.5375 -0.4010
 5161TIP3    H136974   4.136   3.912  14.066 -0.8382  0.0146 -0.0447
 5161TIP3    H236975   4.004   3.841  14.081 -0.6648 -0.9396 -2.7202
 5162TIP3   OH236976   5.384   2.931   3.384  0.5485 -0.1518  0.1267
 5162TIP3    H136977   5.343   2.960   3.465  1.1753 -1.6755  1.0173
 5162TIP3    H236978   5.391   3.010   3.330 -2.0522  0.4357  0.5867
 5163TIP3   OH236979   5.888   1.336   5.129  0.4136  0.2328 -0.1552
 5163TIP3    H136980   5.828   1.377   5.192  0.1828 -1.6574  0.9073
 5163TIP3    H236981   5.953   1.292   5.184  1.3051  0.1378 -1.2816
 5164TIP3   OH236982   2.542   1.106   5.224 -0.4187  0.0707 -0.6935
 5164TIP3    H136983   2.510   1.190   5.255 -1.1787  0.8672 -3.5132
 5164TIP3    H236984   2.634   1.122   5.203 -0.2565 -0.1062 -0.1101
 5165TIP3   OH236985   4.806   3.647  13.388 -0.2804  0.0253  0.0011
 5165TIP3    H136986   4.743   3.603  13.331 -0.9416  2.0592 -0.8767
 5165TIP3    H236987   4.891   3.622  13.352 -0.6650  0.1910 -1.0400
 5166TIP3   OH236988   6.663   3.821  14.329 -0.2047  0.5204 -0.0208
 5166TIP3    H136989   6.709   3.865  14.257  1.1979  0.4681  0.8155
 5166TIP3    H236990   6.582   3.789  14.290  0.6540  0.2758 -1.6389
 5167TIP3   OH236991   2.595   6.704   2.708  0.1088 -0.0886 -0.6922
 5167TIP3    H136992   2.503   6.704   2.735  0.4652 -1.2744  0.5497
 5167TIP3    H236993   2.622   6.612   2.714  1.6772  0.3978  0.0272
 5168TIP3   OH236994   1.303   3.558  16.631 -0.4475  0.2381 -0.2604
 5168TIP3    H136995   1.277   3.466  16.627 -0.6058  0.2420  0.4967
 5168TIP3    H236996   1.382   3.558  16.686  0.1650  0.4294 -1.1344
 5169TIP3   OH236997   5.737   3.234  13.021  0.1824 -0.1638 -0.5012
 5169TIP3    H136998   5.670   3.186  12.974 -1.9898  1.0743  1.2477
 5169TIP3    H236999   5.777   3.291  12.954 -0.2642 -1.1355 -1.6074
 5170TIP3   OH237000   2.255   6.462  14.562  0.6221 -0.5550 -0.0335
 5170TIP3    H137001   2.160   6.461  14.576  0.6521  0.5749  0.3304
 5170TIP3    H237002   2.266   6.472  14.467  0.3542  0.5154  0.0352
 5171TIP3   OH237003   0.894   0.519  16.350 -0.4223 -0.0587  0.4833
 5171TIP3    H137004   0.810   0.562  16.364 -0.3348  0.6352 -1.0503
 5171TIP3    H237005   0.872   0.440  16.299 -0.0690  0.4934 -0.5299
 5172TIP3   OH237006   1.935   4.523  13.945  0.3269  0.1865  0.7500
 5172TIP3    H137007   1.845   4.530  13.915  0.5897  1.6121  0.2206
 5172TIP3    H237008   1.988   4.551  13.870  1.2336 -1.1528  0.8755
 5173TIP3   OH237009   5.329   0.428   1.781 -0.1936 -0.7758 -0.0003
 5173TIP3    H137010   5.257   0.489   1.765  0.1605 -0.2897  0.2049
 5173TIP3    H237011   5.366   0.458   1.865  1.9721  0.7148 -1.4191
 5174TIP3   OH237012   0.693   3.617  14.251 -0.8664 -0.1898  0.3859
 5174TIP3    H137013   0.691   3.530  14.211 -1.5149 -0.6930  1.4798
 5174TIP3    H237014   0.767   3.661  14.210 -0.3169 -1.3883  0.0743
 5175TIP3   OH237015   6.653   5.009  11.317  0.0990  0.4286  0.0473
 5175TIP3    H137016   6.661   5.104  11.329 -0.0734  0.4082  0.3191
 5175TIP3    H237017   6.560   4.995  11.299  0.2548  0.3933 -0.7499
 5176TIP3   OH237018   3.490   1.838  16.904 -0.1425  0.0790 -0.1534
 5176TIP3    H137019   3.429   1.784  16.853 -0.4537 -0.7261  1.0746
 5176TIP3    H237020   3.524   1.901  16.840 -1.1037 -0.4385 -1.1940
 5177TIP3   OH237021   0.761   2.852   2.754 -0.2284 -0.3808 -0.1029
 5177TIP3    H137022   0.774   2.798   2.675  0.7736 -0.3856  0.0609
 5177TIP3    H237023   0.839   2.907   2.758 -1.0758  0.8346 -0.0576
 5178TIP3   OH237024   3.043   0.672   4.973 -0.3445 -0.7395  0.2469
 5178TIP3    H137025   3.034   0.764   4.947 -1.0483 -0.3898  1.6834
 5178TIP3    H237026   3.128   0.646   4.939 -0.3273  0.3140 -0.5485
 5179TIP3   OH237027   1.734   4.937  11.757  0.4443 -1.0199  0.2194
 5179TIP3    H137028   1.799   4.933  11.687 -0.3306  0.0392 -0.5753
 5179TIP3    H237029   1.661   4.986  11.720  0.6613  0.9638  2.2776
 5180TIP3   OH237030   4.705   1.953  11.219 -0.0729 -0.5158 -0.3123
 5180TIP3    H137031   4.786   1.998  11.194 -2.2139  2.6485 -1.8551
 5180TIP3    H237032   4.714   1.938  11.313  0.9705  2.7486  0.1672
 5181TIP3   OH237033   3.094   3.375  14.409  0.4516  0.0114 -0.4485
 5181TIP3    H137034   3.049   3.394  14.491  1.5095 -0.1714  0.1765
 5181TIP3    H237035   3.037   3.312  14.365  1.3351 -2.1953  1.4895
 5182TIP3   OH237036   0.106   1.390  12.767  0.2113  0.7001  0.1719
 5182TIP3    H137037   0.137   1.303  12.792  0.7150  0.7790 -0.1873
 5182TIP3    H237038   0.080   1.381  12.675  0.5521  1.0043  0.0439
 5183TIP3   OH237039   6.222   3.735  14.191  0.4381 -0.2512  0.2908
 5183TIP3    H137040   6.298   3.703  14.142  0.7649 -0.0160  0.6385
 5183TIP3    H237041   6.153   3.746  14.126  0.9533  0.3353 -0.1568
 5184TIP3   OH237042   6.167   6.147   6.904  0.2341 -0.0094 -0.5015
 5184TIP3    H137043   6.087   6.192   6.877 -0.1967  0.3580  1.3600
 5184TIP3    H237044   6.237   6.199   6.865 -0.3909 -0.2786 -2.0647
 5185TIP3   OH237045   2.274   0.103   4.778 -0.0694 -0.1971  0.8121
 5185TIP3    H137046   2.328   0.044   4.831 -0.9737  0.3222  2.3636
 5185TIP3    H237047   2.190   0.058   4.770  0.1757 -0.4254 -0.4850
 5186TIP3   OH237048   5.038   5.968   3.165 -0.5607  0.0684 -0.0271
 5186TIP3    H137049   4.998   6.009   3.088  1.3589  2.2751  0.0703
 5186TIP3    H237050   5.043   6.039   3.230  0.6361 -0.9457  1.0345
 5187TIP3   OH237051   3.586   5.555   2.652  0.8463  0.2454 -0.0129
 5187TIP3    H137052   3.553   5.468   2.673  0.0404  0.6909  0.5880
 5187TIP3    H237053   3.667   5.539   2.603 -0.1536 -0.8593 -1.3444
 5188TIP3   OH237054   2.685   4.564  12.391 -0.2479 -0.1352 -0.2684
 5188TIP3    H137055   2.591   4.544  12.398 -0.6865  1.8050 -0.5869
 5188TIP3    H237056   2.695   4.604  12.305  0.6876  0.7219  0.2394
 5189TIP3   OH237057   3.145   1.157   6.474 -0.2640  0.0365  0.5160
 5189TIP3    H137058   3.105   1.095   6.535 -0.7486 -0.2808 -0.1183
 5189TIP3    H237059   3.155   1.107   6.393  1.6773  0.0262  0.7385
 5190TIP3   OH237060   2.461   3.844   2.404  0.3322 -0.0120 -0.3531
 5190TIP3    H137061   2.471   3.930   2.364 -2.2434  0.7508  0.6011
 5190TIP3    H237062   2.550   3.808   2.406  1.0811  1.6001 -2.9749
 5191TIP3   OH237063   1.459   4.333  13.835  0.1718  0.5990  0.0488
 5191TIP3    H137064   1.443   4.266  13.769  1.2608 -0.9610  1.3245
 5191TIP3    H237065   1.396   4.314  13.904  0.5312  0.8529  0.4520
 5192TIP3   OH237066   5.626   2.951  14.839  0.1625  0.1544  0.1023
 5192TIP3    H137067   5.589   2.912  14.918 -0.6407  1.4585  0.3809
 5192TIP3    H237068   5.552   2.993  14.796  0.5107 -0.9553 -1.6044
 5193TIP3   OH237069   6.451   3.420  11.212 -0.1980 -0.1476  0.0859
 5193TIP3    H137070   6.397   3.353  11.168 -0.7795  0.6453 -0.4158
 5193TIP3    H237071   6.391   3.493  11.227  0.3744  0.1546  0.8830
 5194TIP3   OH237072   6.390   2.055  12.398 -0.2399 -0.3183  0.1643
 5194TIP3    H137073   6.468   2.012  12.433 -0.0109  0.5701  0.7564
 5194TIP3    H237074   6.336   1.984  12.365  0.7400 -0.9582 -0.0802
 5195TIP3   OH237075   0.494   0.833   5.167 -0.7795 -0.8447 -0.0091
 5195TIP3    H137076   0.486   0.758   5.108  1.4817 -0.5442 -0.7530
 5195TIP3    H237077   0.462   0.908   5.116  0.8141 -0.6495 -0.7494
 5196TIP3   OH237078   0.773   5.670   5.096  0.1210 -0.2341  0.7048
 5196TIP3    H137079   0.701   5.733   5.091 -0.5762 -1.0974 -0.3261
 5196TIP3    H237080   0.821   5.683   5.014 -0.2038 -1.2504  0.3462
 5197TIP3   OH237081   4.716   0.838   1.940  0.1309 -0.0406 -0.5279
 5197TIP3    H137082   4.671   0.918   1.966 -1.6120 -0.7156 -1.3439
 5197TIP3    H237083   4.699   0.777   2.011  0.0359 -0.1971 -0.6846
 5198TIP3   OH237084   1.338   4.883   5.362  0.2419  0.2628  0.7189
 5198TIP3    H137085   1.289   4.867   5.443  0.9245  1.7939  1.4544
 5198TIP3    H237086   1.307   4.816   5.302  0.2139 -1.3518  2.4686
 5199TIP3   OH237087   1.312   2.768   5.350  0.0089  0.2605  0.0110
 5199TIP3    H137088   1.392   2.753   5.401 -1.2722  0.8646  2.2528
 5199TIP3    H237089   1.342   2.818   5.273  1.8397  0.1563  0.6373
 5200TIP3   OH237090   5.054   0.938   3.525 -0.4259 -0.5211  0.3316
 5200TIP3    H137091   4.958   0.942   3.528 -0.3863  2.8450 -0.5013
 5200TIP3    H237092   5.081   1.030   3.523  2.8763 -1.4074  1.6379
 5201TIP3   OH237093   3.952   4.407  13.338  0.2115 -0.2877 -0.3115
 5201TIP3    H137094   4.027   4.397  13.396 -0.0790 -3.1530 -0.3252
 5201TIP3    H237095   3.878   4.419  13.397  0.2434 -0.8117 -0.1598
 5202TIP3   OH237096   1.866   1.446  13.438  0.4070  0.0458  0.6348
 5202TIP3    H137097   1.955   1.411  13.446  0.6705  1.0205  2.2825
 5202TIP3    H237098   1.833   1.410  13.356  2.0801 -0.8744  0.3437
 5203TIP3   OH237099   5.960   3.185  13.716  0.4206 -0.0292  0.5406
 5203TIP3    H137100   6.007   3.145  13.790  1.9515  1.4978  0.4333
 5203TIP3    H237101   5.998   3.144  13.638 -0.3295 -0.7403  0.5401
 5204TIP3   OH237102   2.848   4.231   1.657  0.5202  0.2419  0.6456
 5204TIP3    H137103   2.757   4.226   1.686 -1.2109 -0.5186 -4.3336
 5204TIP3    H237104   2.871   4.142   1.632  1.4592  1.0031 -1.3176
 5205TIP3   OH237105   2.117   4.071  11.764  0.0657  0.1265  0.3802
 5205TIP3    H137106   2.137   4.050  11.855  3.0082  1.6679  0.1616
 5205TIP3    H237107   2.076   3.991  11.730  0.8543 -1.2391  2.4675
 5206TIP3   OH237108   4.203   2.659   2.831 -0.1853  0.4331  0.5569
 5206TIP3    H137109   4.128   2.633   2.777 -0.5495  2.0202  0.2659
 5206TIP3    H237110   4.165   2.715   2.898  0.3713 -0.9761  2.0640
 5207TIP3   OH237111   3.654   3.711  11.341 -0.1986  0.1879  0.1903
 5207TIP3    H137112   3.594   3.730  11.270  0.5527 -1.1179 -0.8087
 5207TIP3    H237113   3.733   3.762  11.320  0.3023 -0.7904 -0.3184
 5208TIP3   OH237114   1.989   6.633  16.246  0.4926 -0.0406 -0.1489
 5208TIP3    H137115   1.983   6.719  16.205 -2.4370 -1.2006 -2.2910
 5208TIP3    H237116   2.040   6.581  16.183 -1.2337 -0.9345 -0.8465
 5209TIP3   OH237117   3.793   3.458  11.729 -0.6162  0.4947 -0.7303
 5209TIP3    H137118   3.842   3.405  11.666 -1.0891  0.3911 -1.0147
 5209TIP3    H237119   3.784   3.543  11.686 -0.7860  0.4778 -0.7276
 5210TIP3   OH237120   5.197   0.448  11.578 -0.5893 -0.0372 -0.5498
 5210TIP3    H137121   5.146   0.515  11.533 -1.2830 -0.0189  0.2571
 5210TIP3    H237122   5.153   0.437  11.662 -0.2333 -1.1936 -0.5071
 5211TIP3   OH237123   3.757   5.333   5.878 -0.3364  0.4946 -0.6582
 5211TIP3    H137124   3.728   5.249   5.841 -0.0098 -0.3735  0.9894
 5211TIP3    H237125   3.677   5.386   5.882 -0.7516 -0.1118 -0.7444
 5212TIP3   OH237126   4.819   4.401  14.066 -0.1988  0.4194 -0.0789
 5212TIP3    H137127   4.744   4.352  14.099 -0.5581  0.9487 -0.1072
 5212TIP3    H237128   4.853   4.448  14.142  2.9317 -3.3779  1.0208
 5213TIP3   OH237129   3.847   6.048  10.715 -0.0542 -0.4424  0.8406
 5213TIP3    H137130   3.842   6.010  10.803  1.6848 -1.5789  0.4733
 5213TIP3    H237131   3.918   6.000  10.672  0.3426  1.3535 -0.5778
 5214TIP3   OH237132   1.122   0.321  15.209  0.0489 -0.2151  0.4462
 5214TIP3    H137133   1.120   0.369  15.292  0.3564 -0.5427  0.6447
 5214TIP3    H237134   1.213   0.290  15.202 -0.3939 -1.6322  0.8158
 5215TIP3   OH237135   0.972   5.427  12.867 -0.1943 -0.1476  0.0236
 5215TIP3    H137136   0.924   5.438  12.948  0.2582 -0.1329  0.2903
 5215TIP3    H237137   1.056   5.469  12.883  0.0139 -0.4182 -0.3451
 5216TIP3   OH237138   2.530   0.372   5.484  0.3604  0.1306 -0.0124
 5216TIP3    H137139   2.492   0.308   5.545 -1.5259  0.8260 -0.4611
 5216TIP3    H237140   2.509   0.457   5.523  2.4404  0.5312  0.3195
 5217TIP3   OH237141   6.140   6.493   0.121 -0.4886 -0.2355 -0.4157
 5217TIP3    H137142   6.123   6.562   0.184  1.7527  0.3841 -0.4535
 5217TIP3    H237143   6.139   6.412   0.173  1.4976  0.2830  0.4530
 5218TIP3   OH237144   3.644   3.668   1.908 -0.1753  0.0514 -0.5335
 5218TIP3    H137145   3.649   3.752   1.954 -1.3226 -0.4614  0.5453
 5218TIP3    H237146   3.713   3.615   1.948 -0.2992  0.0448 -0.3310
 5219TIP3   OH237147   2.032   3.432  16.278  0.0991  0.1548  0.3127
 5219TIP3    H137148   2.004   3.343  16.257 -1.8390  0.6374  0.7325
 5219TIP3    H237149   1.955   3.486  16.259  1.6030  1.8927 -1.0030
 5220TIP3   OH237150   6.068   2.070   4.253 -0.1620  0.0090  0.1469
 5220TIP3    H137151   6.102   2.136   4.314  0.9593  0.6986 -1.1847
 5220TIP3    H237152   6.098   1.987   4.288 -1.1192  0.2409  1.5482
 5221TIP3   OH237153   6.147   6.761   3.092  0.4004 -0.8685  0.1742
 5221TIP3    H137154   6.180   6.849   3.107  0.7793 -0.8770 -0.6251
 5221TIP3    H237155   6.052   6.768   3.107  0.6800 -0.7628  2.0515
 5222TIP3   OH237156   5.746   6.070  12.630 -0.5381  0.2113 -0.0900
 5222TIP3    H137157   5.718   6.076  12.539 -0.2104 -0.4325 -0.2352
 5222TIP3    H237158   5.704   5.991  12.663  1.5178 -1.0857 -0.4629
 5223TIP3   OH237159   4.964   4.296   0.306  0.0412 -0.4625 -0.2755
 5223TIP3    H137160   4.970   4.206   0.273 -0.6112 -0.5381 -0.1873
 5223TIP3    H237161   4.911   4.289   0.385 -0.8771  0.1460 -0.8245
 5224TIP3   OH237162   4.286   3.190  10.995  0.6387  0.0689  0.3364
 5224TIP3    H137163   4.240   3.247  11.057 -0.3629  1.9364 -2.0541
 5224TIP3    H237164   4.217   3.135  10.958  1.1910 -0.8289  0.6189
 5225TIP3   OH237165   3.486   1.822   3.557  0.2090 -0.2741 -0.2427
 5225TIP3    H137166   3.463   1.865   3.639  0.0294  0.0972 -0.4877
 5225TIP3    H237167   3.482   1.729   3.576 -2.7902 -0.2665 -0.6408
 5226TIP3   OH237168   4.177   0.061   5.181  0.2563 -0.3619  0.5460
 5226TIP3    H137169   4.099   0.061   5.124  0.9203 -2.3845 -0.4291
 5226TIP3    H237170   4.242   0.010   5.132  2.3368  1.5760  1.1909
 5227TIP3   OH237171   5.815   1.235   4.476  0.2387 -0.4680  0.3203
 5227TIP3    H137172   5.778   1.165   4.529  1.5931 -1.2062  0.3219
 5227TIP3    H237173   5.748   1.303   4.476 -0.6383 -1.3114  1.2355
 5228TIP3   OH237174   4.723   2.674   3.342 -0.3582  0.0882 -0.0066
 5228TIP3    H137175   4.780   2.637   3.410  1.1436  0.8280 -0.8540
 5228TIP3    H237176   4.718   2.605   3.275 -1.6837 -0.5638  0.7252
 5229TIP3   OH237177   0.290   0.820   1.550  0.4174 -0.0352 -0.2060
 5229TIP3    H137178   0.340   0.739   1.560 -0.7632 -0.8613 -0.8372
 5229TIP3    H237179   0.331   0.864   1.475  0.7172 -0.3280 -0.2144
 5230TIP3   OH237180   4.622   3.909  13.328  0.1876  0.1851  0.2237
 5230TIP3    H137181   4.569   3.829  13.332  0.0511  0.3182  1.4165
 5230TIP3    H237182   4.693   3.894  13.390 -0.3330  1.3277  1.1352
 5231TIP3   OH237183   1.008   1.916  12.609  0.4052  0.1400  0.0929
 5231TIP3    H137184   1.070   1.933  12.538  1.5365  3.8266  1.8311
 5231TIP3    H237185   0.922   1.934  12.570  0.8865  0.6582 -0.7698
 5232TIP3   OH237186   3.817   3.088  14.081 -0.1900  0.2078 -0.1146
 5232TIP3    H137187   3.824   3.059  13.990 -0.1359  0.0138 -0.0484
 5232TIP3    H237188   3.885   3.155  14.090  0.5262 -0.5353  0.0762
 5233TIP3   OH237189   0.152   1.828  12.649 -0.1108  0.3600 -0.2294
 5233TIP3    H137190   0.246   1.811  12.641  0.2460  0.7422  2.5858
 5233TIP3    H237191   0.146   1.895  12.717 -2.4651 -0.1218  0.0628
 5234TIP3   OH237192   2.053   3.369   4.464  0.4808  0.0861 -0.6306
 5234TIP3    H137193   2.008   3.317   4.398 -0.5290  0.8394 -0.5538
 5234TIP3    H237194   2.141   3.333   4.468  0.1593 -0.7971 -1.4664
 5235TIP3   OH237195   4.358   2.357   4.884 -0.1809 -0.1420  0.6636
 5235TIP3    H137196   4.309   2.339   4.963 -0.5985  0.5241  0.5537
 5235TIP3    H237197   4.374   2.270   4.846  0.7762 -0.5337  1.9152
 5236TIP3   OH237198   5.411   1.358  16.566  0.3603 -0.0901  0.0579
 5236TIP3    H137199   5.328   1.379  16.524  0.4790  0.0243 -0.1192
 5236TIP3    H237200   5.393   1.279  16.617 -0.7249  1.7671  2.6261
 5237TIP3   OH237201   6.714   2.368  12.129  0.4486 -0.7383 -0.0578
 5237TIP3    H137202   6.682   2.279  12.115 -0.0769 -0.5961  0.2266
 5237TIP3    H237203   6.684   2.391  12.217  0.9687 -0.4456  0.0449
 5238TIP3   OH237204   4.166   1.875   4.967  0.5536 -0.5249 -0.1775
 5238TIP3    H137205   4.126   1.946   4.917  1.1403  0.7141  1.0824
 5238TIP3    H237206   4.201   1.816   4.900  0.8641  0.8292 -1.2500
 5239TIP3   OH237207   0.259   2.535   5.940 -0.0366 -0.0634 -0.4417
 5239TIP3    H137208   0.325   2.466   5.945  1.9132  1.8763  2.6996
 5239TIP3    H237209   0.195   2.513   6.008 -2.0469 -1.2863 -2.6665
 5240TIP3   OH237210   2.096   6.457   1.354  0.8247  0.0349  0.8096
 5240TIP3    H137211   2.131   6.541   1.322 -0.0429  0.1569  0.1512
 5240TIP3    H237212   2.027   6.481   1.415  2.3649 -0.2051  2.7016
 5241TIP3   OH237213   4.328   1.044   5.095 -0.2473  0.6695 -0.5513
 5241TIP3    H137214   4.401   0.986   5.116 -0.3406  1.7337  3.1553
 5241TIP3    H237215   4.250   0.987   5.099  0.0371  0.2624 -0.8173
 5242TIP3   OH237216   0.985   0.125  13.329 -0.1897 -0.0204  0.3153
 5242TIP3    H137217   0.951   0.045  13.288  0.7172 -0.0714 -0.3646
 5242TIP3    H237218   0.943   0.196  13.280 -1.3441 -0.0696  1.2154
 5243TIP3   OH237219   6.582   3.228  14.539 -0.4513  0.1092 -0.6684
 5243TIP3    H137220   6.588   3.311  14.586 -1.3187  0.3138 -0.9036
 5243TIP3    H237221   6.523   3.247  14.466 -0.8956 -0.7983 -0.5430
 5244TIP3   OH237222   1.536   3.554  11.608  0.3385 -0.4064  0.2166
 5244TIP3    H137223   1.463   3.605  11.575  0.4720  0.8302  1.7779
 5244TIP3    H237224   1.497   3.494  11.672  0.6258 -0.0112  0.7702
 5245TIP3   OH237225   2.858   3.935   2.141  0.3167 -0.6370  0.7949
 5245TIP3    H137226   2.810   3.943   2.223 -0.9015 -0.1308  0.0489
 5245TIP3    H237227   2.799   3.973   2.075  1.7861  0.0840 -0.1180
 5246TIP3   OH237228   6.314   6.346   2.851 -0.1316  0.3942  0.9124
 5246TIP3    H137229   6.301   6.340   2.756  3.3843 -1.8037  0.4806
 5246TIP3    H237230   6.253   6.281   2.887 -2.9199  2.6249  0.3749
 5247TIP3   OH237231   5.108   3.555  11.492  0.3069  0.6095 -0.2507
 5247TIP3    H137232   5.183   3.511  11.452 -0.1668  0.5429 -1.0705
 5247TIP3    H237233   5.102   3.638  11.445 -0.0929  0.6427 -0.1387
 5248TIP3   OH237234   3.886   4.045   0.579  0.1199  0.2023  0.0959
 5248TIP3    H137235   3.873   4.045   0.484 -1.9121  0.9366  0.3425
 5248TIP3    H237236   3.916   3.957   0.599  1.1530  0.2144 -1.2938
 5249TIP3   OH237237   0.335   5.092  12.161 -0.6369 -0.0555 -0.1380
 5249TIP3    H137238   0.305   5.150  12.091 -0.5219 -0.5754 -0.6272
 5249TIP3    H237239   0.389   5.148  12.217  1.4974 -0.2418 -1.9510
 5250TIP3   OH237240   5.987   0.804   4.907 -0.0716 -0.4116 -0.3306
 5250TIP3    H137241   5.912   0.748   4.885 -0.4671  0.4507 -1.2010
 5250TIP3    H237242   6.060   0.767   4.857 -0.1426 -0.6468 -0.2626
 5251TIP3   OH237243   4.933   2.047  11.055 -0.0144  1.1096 -0.2797
 5251TIP3    H137244   4.926   1.981  10.986  1.0466  2.1951 -1.4726
 5251TIP3    H237245   4.974   2.002  11.128 -0.0447  0.2391 -0.7923
 5252TIP3   OH237246   6.777   2.482  16.310  0.6459 -0.5475 -0.1718
 5252TIP3    H137247   6.826   2.533  16.374 -1.0066  0.3229  0.4430
 5252TIP3    H237248   6.843   2.450  16.248  1.8993  1.0610  0.3028
 5253TIP3   OH237249   2.652   3.845  13.611  0.1303  0.0709 -0.1683
 5253TIP3    H137250   2.570   3.822  13.656 -0.5281  0.5352 -1.1101
 5253TIP3    H237251   2.721   3.825  13.675 -0.7147 -0.3359  0.6315
 5254TIP3   OH237252   2.051   3.661  13.285 -0.4729  0.0174  0.1417
 5254TIP3    H137253   2.093   3.604  13.350  2.6846 -0.0337 -1.8225
 5254TIP3    H237254   2.096   3.745  13.295 -0.7796  0.3357 -1.1850
 5255TIP3   OH237255   4.770   2.424  12.587 -0.5685  0.1242  0.4240
 5255TIP3    H137256   4.832   2.442  12.516  0.2689 -0.0361  1.0994
 5255TIP3    H237257   4.757   2.329  12.583  0.4151 -0.0568  1.2274
 5256TIP3   OH237258   0.305   4.985   5.768  0.2500  0.1838  0.1132
 5256TIP3    H137259   0.314   4.980   5.864 -0.7457 -0.4583  0.1811
 5256TIP3    H237260   0.395   4.975   5.735  0.8083  1.9935  1.0342
 5257TIP3   OH237261   5.228   1.097  16.275  0.2078 -0.0296 -0.0143
 5257TIP3    H137262   5.150   1.060  16.233  1.0583 -1.4245 -0.4130
 5257TIP3    H237263   5.272   1.145  16.206  1.2981 -1.8333 -0.6186
 5258TIP3   OH237264   6.014   4.712  13.327  0.1871 -0.3640 -0.3898
 5258TIP3    H137265   5.969   4.629  13.309  0.2466 -0.4259 -0.2509
 5258TIP3    H237266   6.107   4.690  13.324  0.1854 -0.5646  0.8851
 5259TIP3   OH237267   6.272   2.068  15.640  0.4559  0.0064 -0.5706
 5259TIP3    H137268   6.187   2.108  15.659 -0.6391 -1.9441 -1.1873
 5259TIP3    H237269   6.279   1.995  15.701  1.7264  0.1866 -0.4881
 5260TIP3   OH237270   2.606   2.573   0.472  0.5031 -0.4878  0.7516
 5260TIP3    H137271   2.562   2.658   0.474  1.5810  0.1192 -0.5696
 5260TIP3    H237272   2.642   2.562   0.560  1.7353  1.1616  0.4781
 5261TIP3   OH237273   2.192   0.028   5.305  0.3583 -0.2929  0.0050
 5261TIP3    H137274   2.167   0.082   5.230 -0.8411 -1.4963 -0.4621
 5261TIP3    H237275   2.275   0.066   5.335  0.6071  0.4826 -1.6333
 5262TIP3   OH237276   5.892   1.134   1.284 -0.1725 -0.5324  0.5871
 5262TIP3    H137277   5.888   1.205   1.221  1.9279 -2.2815 -1.6030
 5262TIP3    H237278   5.885   1.177   1.370  1.3915  2.3175 -0.6525
 5263TIP3   OH237279   2.382   6.537   5.916 -0.8142  0.0201  0.2893
 5263TIP3    H137280   2.390   6.465   5.853  0.8674 -0.5663  1.1426
 5263TIP3    H237281   2.369   6.494   6.000  2.3469  0.5911  1.1405
 5264TIP3   OH237282   0.556   0.697  11.512  0.6284  0.0105  0.4025
 5264TIP3    H137283   0.636   0.747  11.493 -0.1346  0.9846 -0.2977
 5264TIP3    H237284   0.531   0.658  11.428 -1.0139  1.7743  0.0223
 5265TIP3   OH237285   5.883   2.068  16.232  0.2111 -0.0947 -0.2293
 5265TIP3    H137286   5.970   2.097  16.262  0.2243 -0.5378  0.1695
 5265TIP3    H237287   5.898   1.979  16.198  0.0458  0.0991 -0.8191
 5266TIP3   OH237288   1.364   6.717   1.506 -0.8784  0.6950  0.1713
 5266TIP3    H137289   1.364   6.625   1.478  0.7419  0.0764  2.1097
 5266TIP3    H237290   1.296   6.722   1.573 -0.5524  0.7801  0.4949
 5267TIP3   OH237291   2.503   2.135   1.052 -0.0920  0.6134 -0.0294
 5267TIP3    H137292   2.530   2.092   0.971  2.3898 -0.1817  1.2026
 5267TIP3    H237293   2.409   2.149   1.041 -0.6732 -3.5991 -1.1655
 5268TIP3   OH237294   4.482   4.889  14.793 -0.6755  0.1704  0.1098
 5268TIP3    H137295   4.412   4.889  14.858  0.2152  0.9626  1.1064
 5268TIP3    H237296   4.545   4.952  14.827  0.4304 -0.3926 -0.8603
 5269TIP3   OH237297   5.941   1.377   2.114 -0.8080  0.2943 -0.1901
 5269TIP3    H137298   5.889   1.450   2.146 -2.2177 -1.2250  1.1161
 5269TIP3    H237299   5.904   1.358   2.028 -1.4109  0.2018  0.0841
 5270TIP3   OH237300   0.174   1.409   3.143 -0.4068  0.2054  0.1388
 5270TIP3    H137301   0.196   1.501   3.154  0.0208  0.5501 -3.1223
 5270TIP3    H237302   0.081   1.409   3.120 -0.2527 -0.0984 -0.5076
 5271TIP3   OH237303   1.086   1.398   5.386  0.0845 -0.2508  0.1126
 5271TIP3    H137304   1.156   1.355   5.338  0.3617 -0.0155  0.2988
 5271TIP3    H237305   1.094   1.491   5.363 -0.6292 -0.3196 -0.4358
 5272TIP3   OH237306   1.168   2.815   4.044  0.4230  0.1248 -0.1482
 5272TIP3    H137307   1.165   2.910   4.054 -0.0321  0.0445  0.4548
 5272TIP3    H237308   1.187   2.781   4.131 -0.8075 -0.4071 -0.0689
 5273TIP3   OH237309   2.335   5.563   2.438  0.0010  0.1680  0.0035
 5273TIP3    H137310   2.246   5.534   2.419 -0.4650  1.8517 -0.4318
 5273TIP3    H237311   2.335   5.657   2.420  1.9464  0.1482 -0.2845
 5274TIP3   OH237312   3.954   0.519   2.340  0.0991  0.4430  0.2054
 5274TIP3    H137313   4.034   0.569   2.320 -0.3085  1.3776  0.8806
 5274TIP3    H237314   3.987   0.434   2.371  0.7619 -0.5900 -3.0933
 5275TIP3   OH237315   2.707   6.659   5.022  0.4441  0.0322  0.8700
 5275TIP3    H137316   2.783   6.630   5.072 -0.6759 -1.1890  1.8821
 5275TIP3    H237317   2.678   6.581   4.974  0.9038  0.9350 -0.9402
 5276TIP3   OH237318   2.914   0.121  10.924  0.0010  0.3516  0.3748
 5276TIP3    H137319   2.994   0.069  10.920  0.4182  0.8574  1.8200
 5276TIP3    H237320   2.931   0.196  10.868  0.3783  0.2413  0.3418
 5277TIP3   OH237321   1.180   3.859  14.183  0.5170 -0.3591  0.0710
 5277TIP3    H137322   1.192   3.942  14.229 -2.3153 -0.5875  1.3607
 5277TIP3    H237323   1.244   3.861  14.112  0.6919  2.8205  0.2429
 5278TIP3   OH237324   0.026   1.096   1.802  0.4391  0.4145 -0.1406
 5278TIP3    H137325  -0.049   1.069   1.749 -0.1575  0.9937  0.4001
 5278TIP3    H237326  -0.009   1.164   1.859  1.0752 -0.1999  0.9881
 5279TIP3   OH237327   1.486   0.343   3.208 -0.6469 -0.3536 -0.1554
 5279TIP3    H137328   1.417   0.318   3.270 -2.0386  0.8897 -1.1636
 5279TIP3    H237329   1.503   0.262   3.159 -2.2879 -0.3833 -0.7277
 5280TIP3   OH237330   2.593   1.085  12.092 -0.0917 -0.1986  0.1138
 5280TIP3    H137331   2.573   1.114  12.003  0.0259  1.6688  0.6702
 5280TIP3    H237332   2.583   0.990  12.089 -1.3282 -0.0444 -1.5744
 5281TIP3   OH237333   1.767   0.166   2.208 -0.4345 -0.0141 -0.1801
 5281TIP3    H137334   1.803   0.193   2.123 -1.2077  0.4548 -0.3552
 5281TIP3    H237335   1.676   0.142   2.190 -0.4566 -0.4087  0.4264
 5282TIP3   OH237336   4.805   0.449   3.420  0.8093 -0.0999 -0.0858
 5282TIP3    H137337   4.882   0.393   3.431  1.4102  0.8034  0.3386
 5282TIP3    H237338   4.741   0.412   3.481 -0.2461 -2.8261 -2.7188
 5283TIP3   OH237339   1.093   5.529  16.186 -0.0147 -0.0998  0.1740
 5283TIP3    H137340   1.116   5.479  16.108 -0.7515 -1.2525  0.6804
 5283TIP3    H237341   1.087   5.464  16.256  0.0567  0.8367  1.0723
 5284TIP3   OH237342   0.432   3.929   3.812  0.3085  0.3108 -0.2134
 5284TIP3    H137343   0.490   3.908   3.739  1.6374  0.8885  0.6663
 5284TIP3    H237344   0.475   3.893   3.889  0.8294  2.9892  0.8231
 5285TIP3   OH237345   1.112   2.684   2.160  0.2190  0.1775  0.2006
 5285TIP3    H137346   1.168   2.635   2.101  1.0454 -1.6276  2.4106
 5285TIP3    H237347   1.033   2.630   2.170  0.8615 -0.4430  2.1420
 5286TIP3   OH237348   6.408   5.690   6.563  0.2536 -0.0479  0.5033
 5286TIP3    H137349   6.462   5.763   6.532  1.3438 -0.4700  1.3596
 5286TIP3    H237350   6.465   5.613   6.554 -1.4582 -1.0773 -1.9617
 5287TIP3   OH237351   4.188   4.694  12.312 -0.1967  0.5993 -0.0006
 5287TIP3    H137352   4.217   4.602  12.309 -2.1701 -0.0301 -0.6497
 5287TIP3    H237353   4.119   4.699  12.247 -0.2244  2.5347  0.1534
 5288TIP3   OH237354   5.490   4.351   4.384 -0.0177 -1.0080  0.7138
 5288TIP3    H137355   5.526   4.385   4.466  1.0761 -0.4195 -0.0002
 5288TIP3    H237356   5.472   4.429   4.332  1.2684 -1.4687 -0.4257
 5289TIP3   OH237357   3.562   3.648  14.116  0.0424  0.1282  0.3594
 5289TIP3    H137358   3.609   3.622  14.194 -0.0487  0.0702  0.3956
 5289TIP3    H237359   3.628   3.651  14.047 -0.0306 -0.6786  0.2493
 5290TIP3   OH237360   5.347   4.766   1.750 -0.3272  0.0630  0.4681
 5290TIP3    H137361   5.431   4.771   1.705  0.0051  1.5586  1.2255
 5290TIP3    H237362   5.328   4.857   1.775 -0.4638 -0.7396  3.4261
 5291TIP3   OH237363   4.055   2.066  12.484 -0.5599  0.5749  0.2272
 5291TIP3    H137364   4.048   2.108  12.398  0.8197 -0.9421 -0.6499
 5291TIP3    H237365   4.071   1.974  12.464  1.0311  0.4144  2.1045
 5292TIP3   OH237366   5.564   0.190   1.028  0.4740  0.0254  0.0210
 5292TIP3    H137367   5.617   0.244   1.088 -1.1999 -0.5192  2.0457
 5292TIP3    H237368   5.499   0.148   1.085 -0.9870 -0.7312 -2.1535
 5293TIP3   OH237369   5.695   3.012   3.929 -0.0913  0.5447 -0.1435
 5293TIP3    H137370   5.726   2.956   3.858  0.3656  1.8062 -0.9500
 5293TIP3    H237371   5.605   2.984   3.944 -0.4660  0.8374 -1.7815
 5294TIP3   OH237372   3.973   5.858  13.242  0.1805  0.1363 -0.5716
 5294TIP3    H137373   4.011   5.945  13.228  0.0321  0.2628 -0.2122
 5294TIP3    H237374   3.901   5.873  13.304 -0.3659 -0.1238 -1.1400
 5295TIP3   OH237375   0.435   2.611   2.987  0.0230  0.4099 -0.2430
 5295TIP3    H137376   0.385   2.691   3.003 -0.3873 -0.0706  0.9851
 5295TIP3    H237377   0.526   2.637   2.997 -0.0271  1.0591 -1.4179
 5296TIP3   OH237378   5.712   2.183  16.570  0.2315  0.0549 -0.5060
 5296TIP3    H137379   5.756   2.098  16.570  1.4320  0.6688 -1.2253
 5296TIP3    H237380   5.621   2.164  16.545  0.1617 -1.1743  0.6398
 5297TIP3   OH237381   2.914   3.826   2.806  0.5588 -0.7040 -0.5711
 5297TIP3    H137382   2.900   3.744   2.853 -1.9931  0.7669  1.3974
 5297TIP3    H237383   2.941   3.888   2.874 -1.6898  1.0948 -1.2545
 5298TIP3   OH237384   4.604   2.310  10.486 -0.5535 -0.1896 -0.1704
 5298TIP3    H137385   4.628   2.244  10.421 -1.1703  0.2338 -0.8337
 5298TIP3    H237386   4.680   2.316  10.543  1.0295  1.3183 -2.3687
 5299TIP3   OH237387   0.580   3.953   5.520 -0.2968  0.1984  0.5013
 5299TIP3    H137388   0.615   3.865   5.531 -1.4210 -0.4517 -0.8739
 5299TIP3    H237389   0.580   3.991   5.608  1.4368 -0.6836  0.9084
 5300TIP3   OH237390   5.322   1.346  12.991 -0.1310 -0.7594 -0.2949
 5300TIP3    H137391   5.253   1.280  12.999 -0.7184 -0.0948  0.1245
 5300TIP3    H237392   5.353   1.359  13.080 -0.3338 -0.1367 -0.3097
 5301TIP3   OH237393   2.986   5.490   3.974 -0.3165 -0.5344  0.0295
 5301TIP3    H137394   2.929   5.426   4.017  0.0327 -0.4127  0.6784
 5301TIP3    H237395   2.950   5.498   3.886  0.6718 -2.9423 -0.6280
 5302TIP3   OH237396   6.500   1.609  14.303 -0.0221 -0.5138  0.2373
 5302TIP3    H137397   6.530   1.538  14.360  2.2771 -0.8513 -1.3139
 5302TIP3    H237398   6.572   1.622  14.242 -2.0694  0.4595 -2.0349
 5303TIP3   OH237399   2.344   5.104   3.580 -0.0017  0.0536 -0.4999
 5303TIP3    H137400   2.438   5.107   3.601  0.3903  1.9596 -2.2789
 5303TIP3    H237401   2.340   5.058   3.497 -0.7947 -1.1559  0.2013
 5304TIP3   OH237402   0.647   4.567   4.682  0.1343 -0.3572  0.5173
 5304TIP3    H137403   0.663   4.613   4.599  0.9789 -0.2994  0.7102
 5304TIP3    H237404   0.561   4.527   4.670 -0.4391  0.9304  0.1958
 5305TIP3   OH237405   3.471   2.408   2.123  0.9973  0.8741 -0.2163
 5305TIP3    H137406   3.426   2.389   2.041 -0.3271  0.2586  0.6356
 5305TIP3    H237407   3.500   2.322   2.155  2.5722  1.2413 -0.6352
 5306TIP3   OH237408   1.006   2.081   4.507  0.0478 -0.0250 -0.1943
 5306TIP3    H137409   0.998   2.160   4.561 -0.7073 -0.2974  0.1033
 5306TIP3    H237410   0.952   2.098   4.430  0.5660  0.0862 -0.5351
 5307TIP3   OH237411   6.354   5.567   3.238  0.1911  0.0005  0.1966
 5307TIP3    H137412   6.315   5.482   3.257 -4.7053  1.9082 -0.7028
 5307TIP3    H237413   6.355   5.573   3.142 -1.0530  1.5559  0.2495
 5308TIP3   OH237414   5.920   4.644  15.452 -0.6638  0.0739 -0.0235
 5308TIP3    H137415   5.953   4.723  15.409  1.4165 -0.0922  1.1827
 5308TIP3    H237416   5.826   4.660  15.464 -0.1983  2.5146  0.5516
 5309TIP3   OH237417   5.555   5.828   3.015  0.4831 -0.1563  0.3585
 5309TIP3    H137418   5.567   5.812   2.921 -0.5795  1.5156 -0.0821
 5309TIP3    H237419   5.461   5.819   3.029  0.3787  1.5997  0.8667
 5310TIP3   OH237420   0.862   4.248   0.221  0.2736 -0.4086 -0.4582
 5310TIP3    H137421   0.811   4.256   0.141 -1.0351 -1.3344  0.2644
 5310TIP3    H237422   0.809   4.290   0.288  0.7030 -0.9086  0.2015
 5311TIP3   OH237423   3.987   0.566   3.289 -0.0667  0.6182  0.3767
 5311TIP3    H137424   3.895   0.590   3.294 -1.1131 -2.5892 -1.7172
 5311TIP3    H237425   4.004   0.520   3.372 -0.0121  2.1158  1.2213
 5312TIP3   OH237426   6.447   6.203  11.215  0.3471 -0.6855 -0.2032
 5312TIP3    H137427   6.402   6.142  11.274 -0.3844  1.2790  1.3390
 5312TIP3    H237428   6.378   6.234  11.156  0.1471  0.5990  0.6926
 5313TIP3   OH237429   3.685   6.173  13.499  0.5438  0.4127 -0.4021
 5313TIP3    H137430   3.750   6.160  13.568  0.0599  0.7659  0.1331
 5313TIP3    H237431   3.666   6.267  13.501 -0.6857  0.1740  0.1121
 5314TIP3   OH237432   6.647   1.442  13.599 -0.0858  0.0249 -0.0443
 5314TIP3    H137433   6.652   1.444  13.695  0.5292  0.4955 -0.0847
 5314TIP3    H237434   6.738   1.445  13.570 -0.3173  1.6825 -0.6652
 5315TIP3   OH237435   1.837   1.918  16.518 -0.1104  0.2489 -0.4097
 5315TIP3    H137436   1.789   1.836  16.532 -0.6133  0.2947 -1.8642
 5315TIP3    H237437   1.929   1.894  16.530 -0.4033 -0.0339  1.4504
 5316TIP3   OH237438   0.772   4.450  11.535  0.1944 -0.2572  0.1150
 5316TIP3    H137439   0.842   4.466  11.599  0.4757 -1.2847  0.0788
 5316TIP3    H237440   0.754   4.356  11.543  1.4816 -0.7673 -2.5738
 5317TIP3   OH237441   4.298   5.458   0.686 -0.0699 -0.5015 -0.4538
 5317TIP3    H137442   4.246   5.468   0.766  1.4988 -2.0065  0.7939
 5317TIP3    H237443   4.247   5.396   0.633 -0.7277 -0.1177 -0.2804
 5318TIP3   OH237444   5.641   0.631  13.435  0.3428  0.1365  0.2408
 5318TIP3    H137445   5.690   0.623  13.516 -0.0817 -3.3354  0.2413
 5318TIP3    H237446   5.552   0.601  13.458 -0.3991  1.3687 -0.9563
 5319TIP3   OH237447   1.223   5.995  15.785 -0.7257 -0.1087  0.1581
 5319TIP3    H137448   1.238   5.905  15.813  0.9678  0.0896 -0.0134
 5319TIP3    H237449   1.131   6.012  15.803 -0.3257 -0.8595  3.0615
 5320TIP3   OH237450   3.303   2.577  17.071 -0.1518  0.1934 -0.3597
 5320TIP3    H137451   3.296   2.485  17.048 -0.9336  0.0658  0.3685
 5320TIP3    H237452   3.375   2.610  17.017 -1.2955 -0.3214 -2.2578
 5321TIP3   OH237453   3.920   3.125   6.231  0.0977  0.1995  0.0086
 5321TIP3    H137454   3.924   3.033   6.206  1.5166  0.3592 -0.3507
 5321TIP3    H237455   3.989   3.136   6.296  0.0211  1.0402 -0.0460
 5322TIP3   OH237456   0.034   3.993   0.476 -0.3394  0.0448  0.3310
 5322TIP3    H137457   0.062   4.041   0.554  0.4705 -0.3819  0.3053
 5322TIP3    H237458  -0.007   3.914   0.510 -1.1920  0.4905  0.3573
 5323TIP3   OH237459   3.401   6.184   5.591 -0.3685  0.5964 -0.5754
 5323TIP3    H137460   3.389   6.112   5.653 -0.3559 -0.5255 -1.8501
 5323TIP3    H237461   3.481   6.228   5.621 -1.9808  1.9196  1.9455
 5324TIP3   OH237462   2.078   1.075  14.480  0.1339  0.1548  0.1875
 5324TIP3    H137463   2.093   1.109  14.392 -0.4771  0.2859  0.1358
 5324TIP3    H237464   2.086   0.980  14.471 -0.2891  0.1433 -0.0792
 5325TIP3   OH237465   4.921   0.287  14.536 -0.6259 -0.6682 -0.2026
 5325TIP3    H137466   4.982   0.301  14.608 -2.1272  0.8463  0.8166
 5325TIP3    H237467   4.968   0.317  14.458 -0.2714  1.0266  0.6469
 5326TIP3   OH237468   3.427   0.822  15.771  0.3528  0.1012  0.1138
 5326TIP3    H137469   3.431   0.727  15.758  0.9568  0.1683 -0.2352
 5326TIP3    H237470   3.516   0.852  15.755 -0.2974  1.0012 -2.1046
 5327TIP3   OH237471   4.550   3.062  12.221  0.2552 -0.1857 -0.2801
 5327TIP3    H137472   4.562   3.111  12.303  0.1855  0.4751 -0.6545
 5327TIP3    H237473   4.472   3.101  12.182  1.0607  0.4400 -1.3125
 5328TIP3   OH237474   6.508   0.488   3.020  0.0393 -0.3032  0.0334
 5328TIP3    H137475   6.483   0.414   2.964 -0.2291  0.8787 -1.4334
 5328TIP3    H237476   6.587   0.524   2.978 -0.5884  1.0451 -0.0126
 5329TIP3   OH237477   2.624   5.759  15.261  0.4451  0.2488  0.3062
 5329TIP3    H137478   2.599   5.844  15.224 -1.5041 -0.6450 -0.4785
 5329TIP3    H237479   2.715   5.771  15.288  0.7687  2.0273 -1.4708
 5330TIP3   OH237480   0.279   6.679   4.272  0.0592  0.1613 -0.5529
 5330TIP3    H137481   0.246   6.616   4.337 -1.7536  0.0054 -1.5946
 5330TIP3    H237482   0.312   6.751   4.325  1.4768 -1.3277  0.6385
 5331TIP3   OH237483   5.506   3.070  14.226 -0.3158  0.6899  0.3456
 5331TIP3    H137484   5.485   2.990  14.177  1.1580 -0.5855  1.7310
 5331TIP3    H237485   5.601   3.081  14.215 -0.3313  1.6236  1.0849
 5332TIP3   OH237486   2.901   3.193   0.892 -0.4508  0.2108 -0.4559
 5332TIP3    H137487   2.931   3.282   0.912 -0.4728 -0.1149  1.0789
 5332TIP3    H237488   2.911   3.146   0.975 -0.7955 -1.1174 -1.1715
 5333TIP3   OH237489   0.003   1.086   1.484  0.9294 -0.1900 -0.2251
 5333TIP3    H137490   0.035   1.136   1.409  2.0696 -0.3035  0.1771
 5333TIP3    H237491  -0.010   0.997   1.450  1.0293 -0.1396 -0.3945
 5334TIP3   OH237492   3.546   2.080  11.884  0.0302  0.0214  0.2337
 5334TIP3    H137493   3.551   2.004  11.826 -0.4369 -0.5807  0.9750
 5334TIP3    H237494   3.458   2.076  11.922 -0.7108  2.0137 -1.1656
 5335TIP3   OH237495   0.886   5.816   4.854  0.0125 -0.1206  0.6730
 5335TIP3    H137496   0.853   5.881   4.793  0.5817 -1.1489 -0.7401
 5335TIP3    H237497   0.927   5.867   4.924  0.6976  1.0167 -0.5524
 5336TIP3   OH237498   4.339   2.606   6.077 -0.2164  0.4644  0.4344
 5336TIP3    H137499   4.266   2.646   6.030 -2.6049 -2.3548  1.5549
 5336TIP3    H237500   4.297   2.543   6.136  2.9930  0.4753  2.8397
 5337TIP3   OH237501   5.303   3.515  17.079  0.4703  0.2839 -0.4099
 5337TIP3    H137502   5.304   3.575  17.154 -0.8447 -1.3401  0.9207
 5337TIP3    H237503   5.212   3.515  17.050  0.3777 -1.3820 -0.1420
 5338TIP3   OH237504   4.806   0.237   0.758  0.0366 -0.4933  0.0517
 5338TIP3    H137505   4.714   0.214   0.775  0.3046 -1.9603 -0.4769
 5338TIP3    H237506   4.855   0.194   0.828  0.3731 -0.1137  0.0506
 5339TIP3   OH237507   4.829   5.796  16.999  0.5049  0.0673  0.0366
 5339TIP3    H137508   4.828   5.800  16.904  2.4204 -0.2860 -0.0101
 5339TIP3    H237509   4.912   5.836  17.025 -0.1980  0.5997  1.5893
 5340TIP3   OH237510   6.676   1.978  13.129  0.4474  0.4160 -0.2552
 5340TIP3    H137511   6.687   1.980  13.224  1.3438 -0.7956 -0.3350
 5340TIP3    H237512   6.609   1.911  13.114  1.9236 -0.9897 -0.6246
 5341TIP3   OH237513   1.838   0.568   3.779 -0.2675  0.1945 -0.0964
 5341TIP3    H137514   1.817   0.660   3.764  0.5861  0.4354  0.1607
 5341TIP3    H237515   1.863   0.563   3.871 -0.4131 -0.3190 -0.0797
 5342TIP3   OH237516   1.281   6.605  14.818  0.4049 -0.1451  0.1480
 5342TIP3    H137517   1.376   6.603  14.831  0.5768 -1.4336 -1.1494
 5342TIP3    H237518   1.269   6.648  14.734 -0.2071  0.5422  0.5799
 5343TIP3   OH237519   4.488   1.045  16.446 -0.0383 -0.0679 -0.3701
 5343TIP3    H137520   4.422   1.105  16.413 -0.4033  0.0758  0.6262
 5343TIP3    H237521   4.450   1.006  16.525  0.9824 -0.1171  0.1175
 5344TIP3   OH237522   2.572   5.035  13.156 -0.5976 -0.2291 -0.4397
 5344TIP3    H137523   2.519   4.982  13.215 -1.2274 -0.3697 -1.1241
 5344TIP3    H237524   2.621   5.094  13.214 -1.2024 -0.3679  0.2197
 5345TIP3   OH237525   3.149   5.355   3.630 -0.7652 -0.5713 -0.3267
 5345TIP3    H137526   3.128   5.445   3.607  0.0173  0.2580  2.0249
 5345TIP3    H237527   3.226   5.333   3.578  0.6845  1.0705  1.0966
 5346TIP3   OH237528   6.212   2.468   6.443 -0.0185 -0.3454  0.4252
 5346TIP3    H137529   6.176   2.556   6.435 -0.4554 -0.5433  0.1769
 5346TIP3    H237530   6.306   2.479   6.425 -0.3456 -0.1895 -1.3565
 5347TIP3   OH237531   3.544   3.525   3.838  0.0977 -0.3638  0.2073
 5347TIP3    H137532   3.463   3.542   3.789  0.2710  2.0206  0.6917
 5347TIP3    H237533   3.611   3.514   3.770 -0.6025 -2.2119 -0.1913
 5348TIP3   OH237534   1.782   2.739  13.749 -0.0061  0.3269  0.1165
 5348TIP3    H137535   1.726   2.816  13.747 -0.2055  0.1559 -2.1672
 5348TIP3    H237536   1.871   2.774  13.748  0.0069  0.5940  3.6440
 5349TIP3   OH237537   0.446   4.863  12.337 -0.2723 -0.5888 -0.7800
 5349TIP3    H137538   0.540   4.879  12.343 -0.2786 -1.0742  0.7925
 5349TIP3    H237539   0.410   4.945  12.303  0.1204  1.6282  3.7367
 5350TIP3   OH237540   3.679   3.807  15.163 -0.9214  0.5348  0.2834
 5350TIP3    H137541   3.710   3.719  15.143 -1.2727  1.3934 -4.4914
 5350TIP3    H237542   3.591   3.795  15.197 -0.5077 -1.0274  0.8209
 5351TIP3   OH237543   3.006   1.046   0.784 -0.3334 -0.2247  0.2233
 5351TIP3    H137544   3.005   1.009   0.872  1.2417 -0.7578  0.0262
 5351TIP3    H237545   3.023   1.140   0.797  0.9717 -0.4924  0.4190
 5352TIP3   OH237546   3.760   0.448  16.339  0.5502  0.1041 -0.2257
 5352TIP3    H137547   3.668   0.451  16.311  0.5168 -2.6221 -0.5226
 5352TIP3    H237548   3.808   0.495  16.271 -0.2679 -1.1078 -1.6634
 5353TIP3   OH237549   6.109   2.760   2.349  0.6587 -0.1795 -0.3073
 5353TIP3    H137550   6.133   2.788   2.437 -0.8162  0.6407 -0.1346
 5353TIP3    H237551   6.025   2.714   2.361  0.4123 -0.0009 -1.2811
 5354TIP3   OH237552   2.409   6.604   3.792  0.0953  0.2598  1.0521
 5354TIP3    H137553   2.351   6.672   3.826 -0.2186  0.4088  0.2145
 5354TIP3    H237554   2.356   6.524   3.792  0.4776 -0.0012  2.0784
 5355TIP3   OH237555   5.588   1.845   2.350  0.5646  0.1398  0.1878
 5355TIP3    H137556   5.646   1.922   2.349  1.7321 -0.7414 -1.4756
 5355TIP3    H237557   5.599   1.808   2.438  0.6337  1.3726  0.7172
 5356TIP3   OH237558   0.299   2.418  16.630  0.2672 -1.1867 -0.3913
 5356TIP3    H137559   0.299   2.386  16.720 -1.2629 -0.9080 -0.2786
 5356TIP3    H237560   0.295   2.338  16.577 -0.3065 -1.3040 -0.1786
 5357TIP3   OH237561   3.711   5.782  15.229 -0.3238 -0.0031 -0.1170
 5357TIP3    H137562   3.667   5.779  15.314 -0.6103  0.0482 -0.2612
 5357TIP3    H237563   3.650   5.830  15.173 -0.4775 -0.6898 -0.5473
 5358TIP3   OH237564   3.820   4.647  12.245  0.2780  0.3129  0.2302
 5358TIP3    H137565   3.833   4.696  12.326  0.1083  1.2126 -0.2791
 5358TIP3    H237566   3.731   4.613  12.252  1.0004 -1.4218  1.3697
 5359TIP3   OH237567   5.580   5.066  14.088 -0.2233  0.1592  0.3237
 5359TIP3    H137568   5.550   5.080  13.998  0.0560 -0.5745  0.1110
 5359TIP3    H237569   5.570   4.972  14.102  1.0271  0.0462  0.5850
 5360TIP3   OH237570   3.820   5.197   2.705  0.0743  0.0577 -0.2433
 5360TIP3    H137571   3.812   5.106   2.678 -0.1930  0.4908 -1.6410
 5360TIP3    H237572   3.731   5.223   2.729  0.5566 -0.7883  2.6316
 5361TIP3   OH237573   0.219   2.390  12.264 -0.2500 -0.6936  0.3661
 5361TIP3    H137574   0.162   2.447  12.214  0.7107 -0.0856 -0.0384
 5361TIP3    H237575   0.194   2.405  12.355 -1.4556 -1.2178  0.1314
 5362TIP3   OH237576   0.986   3.435  11.288 -0.3021  0.3474 -0.0972
 5362TIP3    H137577   1.001   3.423  11.382 -0.2389  1.6161  0.0587
 5362TIP3    H237578   0.911   3.378  11.269  0.0366 -0.3476  0.5999
 5363TIP3   OH237579   4.059   5.547  10.581 -0.0773  0.7783  0.1725
 5363TIP3    H137580   4.059   5.487  10.507 -0.5505  0.8355  0.1223
 5363TIP3    H237581   3.991   5.611  10.560 -0.6028  0.4727  0.9121
 5364TIP3   OH237582   5.798   5.336  10.742  0.0667 -0.3405 -0.2239
 5364TIP3    H137583   5.859   5.392  10.791 -1.4193  1.1090  0.0409
 5364TIP3    H237584   5.840   5.250  10.739  1.1607  0.0966  1.7770
 5365TIP3   OH237585   1.941   1.895  12.508  0.0250 -0.2991  0.1956
 5365TIP3    H137586   1.855   1.910  12.547 -1.1477  1.0589 -2.7689
 5365TIP3    H237587   1.977   1.982  12.493  1.1482 -0.8233 -0.2264
 5366TIP3   OH237588   0.467   2.715  14.948  0.4075  0.1333 -0.0043
 5366TIP3    H137589   0.528   2.654  14.906 -1.1664 -0.9596 -0.7336
 5366TIP3    H237590   0.522   2.766  15.007  1.5567 -2.9310  1.6839
 5367TIP3   OH237591   2.758   6.800   3.907  0.5034 -0.6657  0.4762
 5367TIP3    H137592   2.840   6.814   3.954  1.3798 -0.2255 -1.1560
 5367TIP3    H237593   2.775   6.833   3.819 -1.1645 -1.3317 -0.1071
 5368TIP3   OH237594   1.887   0.759  12.771  0.0045 -0.3404  0.2717
 5368TIP3    H137595   1.955   0.740  12.707 -1.5108  0.0028 -1.4508
 5368TIP3    H237596   1.817   0.802  12.722 -2.6577 -3.1148  1.4495
 5369TIP3   OH237597   4.853   4.297   1.819  0.1170 -0.5083  0.3825
 5369TIP3    H137598   4.898   4.215   1.839  0.3808 -0.3529  0.4311
 5369TIP3    H237599   4.766   4.286   1.856 -0.6811 -1.7299 -1.7676
 5370TIP3   OH237600   1.367   3.600   2.606  0.9310  0.2893 -0.1806
 5370TIP3    H137601   1.437   3.665   2.608  0.7939  0.4548  3.5882
 5370TIP3    H237602   1.295   3.641   2.653 -0.8177 -0.8518 -1.8190
 5371TIP3   OH237603   5.290   4.563   6.029  0.5419  0.2887 -0.2080
 5371TIP3    H137604   5.230   4.636   6.046 -0.4153 -0.2906 -1.0184
 5371TIP3    H237605   5.315   4.532   6.116  0.1468  0.9358  0.1405
 5372TIP3   OH237606   2.163   1.691   0.008  0.2430 -0.4477 -0.2570
 5372TIP3    H137607   2.234   1.626   0.009  0.0973 -0.5960  0.8938
 5372TIP3    H237608   2.179   1.742  -0.072  0.5467 -1.6823 -1.0089
 5373TIP3   OH237609   6.360   6.795   1.172 -0.0050 -0.3123 -0.4079
 5373TIP3    H137610   6.286   6.735   1.183  0.6004 -0.9310  0.3222
 5373TIP3    H237611   6.356   6.821   1.080 -3.7884  3.1873  0.6173
 5374TIP3   OH237612   2.758   3.461   3.502  0.2510 -0.0804  0.0281
 5374TIP3    H137613   2.818   3.388   3.519 -0.5644 -0.3007  1.9930
 5374TIP3    H237614   2.673   3.429   3.529 -0.2431  1.3546  0.1991
 5375TIP3   OH237615   2.951   0.433   6.639 -0.2181 -0.0456 -0.4194
 5375TIP3    H137616   3.008   0.357   6.652 -0.6270  0.0620  2.1617
 5375TIP3    H237617   2.863   0.400   6.652 -0.3502  1.0093  1.5721
 5376TIP3   OH237618   2.364   4.405  12.861 -0.4734  0.2492  0.2437
 5376TIP3    H137619   2.327   4.334  12.809 -0.2063  0.0520  0.3197
 5376TIP3    H237620   2.377   4.477  12.800 -1.1662  0.3886  0.2584
 5377TIP3   OH237621   3.682   1.105   0.106 -0.4853  0.0989 -0.5346
 5377TIP3    H137622   3.688   1.190   0.147 -0.9322 -0.2344  0.2275
 5377TIP3    H237623   3.773   1.079   0.089 -0.3414  0.5924 -0.5004
 5378TIP3   OH237624   2.865   6.785   2.606 -0.1203  0.5013 -0.1068
 5378TIP3    H137625   2.790   6.747   2.653 -1.2407  1.3422 -1.1799
 5378TIP3    H237626   2.931   6.799   2.674 -1.5243  1.1916  1.1488
 5379TIP3   OH237627   3.475   3.812   0.384 -0.3845  0.0119 -0.7617
 5379TIP3    H137628   3.522   3.896   0.391  0.4899 -0.4826 -0.6059
 5379TIP3    H237629   3.457   3.803   0.291 -1.6185  0.9771 -0.6391
 5380TIP3   OH237630   0.113   2.881   4.753 -0.4274 -0.0175 -0.1231
 5380TIP3    H137631   0.021   2.902   4.765 -0.5159 -0.8135  0.6413
 5380TIP3    H237632   0.159   2.965   4.766 -0.8108 -0.1513  2.4317
 5381TIP3   OH237633   2.611   4.926   4.314  0.6002 -0.0913 -0.0860
 5381TIP3    H137634   2.643   5.015   4.297  0.7795 -0.2797 -0.7468
 5381TIP3    H237635   2.621   4.915   4.409  2.6247 -0.1738 -0.2687
 5382TIP3   OH237636   2.782   2.963   3.708 -0.2660  0.1477 -0.3399
 5382TIP3    H137637   2.724   2.930   3.640  0.0698 -0.8352 -0.1565
 5382TIP3    H237638   2.783   3.058   3.695 -0.4353 -0.0062 -1.5157
 5383TIP3   OH237639   4.341   4.622   0.744 -0.3921  0.5351 -0.9770
 5383TIP3    H137640   4.279   4.552   0.764 -0.6328  0.9963 -0.0294
 5383TIP3    H237641   4.313   4.695   0.800  1.7882  0.3205  0.4984
 5384TIP3   OH237642   4.852   3.397  14.661 -0.3409 -0.8751 -0.3925
 5384TIP3    H137643   4.908   3.426  14.588 -0.4804  0.7659  0.1269
 5384TIP3    H237644   4.901   3.325  14.701  0.1609 -1.1984 -1.5406
 5385TIP3   OH237645   4.590   1.767   3.725 -0.4822 -0.2215  0.3440
 5385TIP3    H137646   4.545   1.832   3.672  0.1620 -0.3200 -0.3310
 5385TIP3    H237647   4.652   1.726   3.665 -0.8188 -1.3917  0.7881
 5386TIP3   OH237648   0.589   2.684   4.950  0.5475 -0.0409 -0.7251
 5386TIP3    H137649   0.553   2.688   5.039 -0.2993  0.1431 -1.0705
 5386TIP3    H237650   0.626   2.771   4.935 -0.5005  0.3578 -1.0406
 5387TIP3   OH237651   0.173   0.056   2.303 -0.5948  0.0863  0.0904
 5387TIP3    H137652   0.205   0.072   2.214 -0.3502 -2.5665 -0.3345
 5387TIP3    H237653   0.087   0.098   2.306 -0.2650  0.8696 -1.1350
 5388TIP3   OH237654   1.910   2.924  12.477  0.5444  0.6593 -0.1185
 5388TIP3    H137655   1.909   2.877  12.394  0.6671 -0.0120  0.2549
 5388TIP3    H237656   2.003   2.942  12.494  0.3871  2.5316 -1.0835
 5389TIP3   OH237657   4.467   3.434   1.119  0.1468 -0.0634 -0.1164
 5389TIP3    H137658   4.508   3.500   1.063 -1.8657  1.4482  0.1604
 5389TIP3    H237659   4.394   3.401   1.068  0.5685 -1.4143  0.1359
 5390TIP3   OH237660   3.444   4.420  15.190 -0.1410  0.5090  0.1113
 5390TIP3    H137661   3.413   4.506  15.218 -2.5475 -0.0542 -0.6316
 5390TIP3    H237662   3.377   4.390  15.128  2.0648 -0.7186 -1.7551
 5391TIP3   OH237663   4.017   4.269   3.267  0.4660  0.3968  0.6319
 5391TIP3    H137664   4.027   4.278   3.172  0.2458  3.0000  0.8239
 5391TIP3    H237665   3.938   4.215   3.278  1.1416 -0.8781 -0.6550
 5392TIP3   OH237666   4.059   3.100   3.916  0.0201 -0.5096 -0.2877
 5392TIP3    H137667   4.032   3.144   3.836  0.3014  1.9039  0.8948
 5392TIP3    H237668   4.145   3.064   3.897 -0.0429 -0.2110 -1.1439
 5393TIP3   OH237669   3.298   2.813   2.740 -0.3133  0.1270 -0.0356
 5393TIP3    H137670   3.236   2.859   2.796  0.6331  0.1403  1.0369
 5393TIP3    H237671   3.294   2.722   2.771  0.3935  0.1827  0.2443
 5394TIP3   OH237672   4.200   5.746  16.327  0.1070 -0.0233  0.5765
 5394TIP3    H137673   4.278   5.766  16.277  0.6761 -1.7661  0.7623
 5394TIP3    H237674   4.208   5.800  16.406  0.5708  0.6131  0.0993
 5395TIP3   OH237675   3.066   3.491   2.881  0.6650  0.6476 -0.1560
 5395TIP3    H137676   3.137   3.431   2.856  2.1241  2.6811 -1.0524
 5395TIP3    H237677   3.069   3.492   2.977  1.5017  0.3085 -0.1746
 5396TIP3   OH237678   6.258   4.451  17.009 -0.5944  0.8190  0.0742
 5396TIP3    H137679   6.345   4.474  17.043  0.3605 -1.1958 -0.9272
 5396TIP3    H237680   6.220   4.395  17.077  0.3289 -1.1780 -0.9994
 5397TIP3   OH237681   6.459   5.828   4.262  0.1502 -0.2563 -0.0452
 5397TIP3    H137682   6.514   5.889   4.212 -0.4055  0.2086 -0.0914
 5397TIP3    H237683   6.483   5.742   4.227  1.2180 -0.1079  0.2884
 5398TIP3   OH237684   2.197   1.111   0.369 -0.8860 -0.2893  0.2229
 5398TIP3    H137685   2.164   1.196   0.338 -0.4091  0.3081  1.3544
 5398TIP3    H237686   2.160   1.048   0.307  0.5940  0.9565 -1.9859
 5399TIP3   OH237687   2.675   4.212   4.733 -0.4956 -0.1433  0.0045
 5399TIP3    H137688   2.659   4.175   4.646 -2.0477  1.5887 -0.4641
 5399TIP3    H237689   2.622   4.292   4.736  0.5859  0.5401  2.0451
 5400TIP3   OH237690   3.206   1.344  15.716  0.6456 -0.1776 -0.2775
 5400TIP3    H137691   3.238   1.304  15.635 -1.5251 -2.0228 -0.2883
 5400TIP3    H237692   3.282   1.346  15.774  1.3305 -2.4398 -1.0455
 5401TIP3   OH237693   2.978   5.039   0.864 -0.2374  0.0726 -0.0680
 5401TIP3    H137694   2.996   4.959   0.814 -0.8324  0.8555 -1.5501
 5401TIP3    H237695   3.018   5.109   0.813 -0.5560  0.8512  0.7344
 5402TIP3   OH237696   0.111   0.982  14.180 -0.5047  0.0374  0.0957
 5402TIP3    H137697   0.171   0.970  14.106  0.2843  0.9438  0.5796
 5402TIP3    H237698   0.112   0.898  14.226 -0.3122 -0.2429 -0.4160
 5403TIP3   OH237699   6.231   5.330   5.663 -0.7030 -0.2417  0.3168
 5403TIP3    H137700   6.192   5.403   5.710 -0.4673  1.4284 -1.9642
 5403TIP3    H237701   6.172   5.315   5.589  0.2230 -1.1560 -0.2522
 5404TIP3   OH237702   4.870   1.679   3.725  0.2349  0.0214 -0.2037
 5404TIP3    H137703   4.845   1.653   3.813 -1.6479 -0.5765 -0.9076
 5404TIP3    H237704   4.946   1.624   3.705  1.5513  1.1404  1.5527
 5405TIP3   OH237705   3.428   4.513  16.750 -0.0937  0.1539 -0.1492
 5405TIP3    H137706   3.447   4.425  16.782  0.3979  0.2144 -0.2808
 5405TIP3    H237707   3.508   4.562  16.765  0.1414  0.1870 -1.4664
 5406TIP3   OH237708   5.894   5.796  11.246 -0.4182  0.0695  0.1102
 5406TIP3    H137709   5.986   5.805  11.271  0.0525  1.5564 -2.0111
 5406TIP3    H237710   5.863   5.886  11.238 -2.4392 -0.4057  2.0128
 5407TIP3   OH237711   0.996   0.657   4.024 -0.1695  0.1319 -0.2445
 5407TIP3    H137712   1.092   0.659   4.015 -0.2404 -0.7508 -1.3216
 5407TIP3    H237713   0.977   0.719   4.094  1.1434  0.8337 -0.5008
 5408TIP3   OH237714   1.229   1.256   2.929 -0.0159  1.2559  0.0958
 5408TIP3    H137715   1.159   1.321   2.936 -0.2001  1.2153 -1.3230
 5408TIP3    H237716   1.296   1.299   2.876 -0.6098 -0.0791 -1.8025
 5409TIP3   OH237717   4.299   0.232  14.691 -0.2386  0.1184  0.8098
 5409TIP3    H137718   4.208   0.257  14.710 -0.2554 -0.3760  1.4172
 5409TIP3    H237719   4.349   0.267  14.764 -0.2003 -1.1838  1.4371
 5410TIP3   OH237720   5.252   0.768  17.263  0.2908  0.3202  0.2291
 5410TIP3    H137721   5.257   0.676  17.238 -2.1108  0.6810 -1.8391
 5410TIP3    H237722   5.173   0.774  17.317 -0.9195  1.4983 -1.5752
 5411TIP3   OH237723   5.733   3.798  17.203  1.0946  0.1484 -0.0735
 5411TIP3    H137724   5.743   3.856  17.279 -1.5413  0.3605  0.1408
 5411TIP3    H237725   5.646   3.818  17.168  0.8489 -2.4447 -1.0443
 5412TIP3   OH237726   2.738   0.513  15.402 -0.6346  0.0451 -0.2619
 5412TIP3    H137727   2.748   0.421  15.427 -0.1229 -0.0194 -0.6827
 5412TIP3    H237728   2.764   0.515  15.310 -1.6046  0.4407 -0.5240
 5413TIP3   OH237729   5.743   4.674   3.226  0.0856  0.3312  0.6518
 5413TIP3    H137730   5.681   4.715   3.165 -0.2701 -0.0947  0.7275
 5413TIP3    H237731   5.773   4.595   3.180  0.8333  0.7179  0.4715
 5414TIP3   OH237732   5.795   0.569   2.869 -0.0761  0.3535 -0.3646
 5414TIP3    H137733   5.861   0.559   2.801  0.1039  0.6339 -0.2318
 5414TIP3    H237734   5.738   0.638   2.836 -0.3655  0.0378 -0.5280
 5415TIP3   OH237735   2.258   0.166   3.061 -0.4721  0.8354  0.2004
 5415TIP3    H137736   2.319   0.236   3.084 -0.2995  0.9098 -0.4590
 5415TIP3    H237737   2.256   0.110   3.138  1.2458  0.2659 -0.1471
 5416TIP3   OH237738   2.406   2.162   3.481  0.5246  0.1804 -0.6537
 5416TIP3    H137739   2.381   2.092   3.421 -0.4944 -0.8862  0.9629
 5416TIP3    H237740   2.367   2.241   3.444 -0.8450 -0.6148 -0.9381
 5417TIP3   OH237741   0.445   3.082  11.765 -0.9594  0.7472 -0.0573
 5417TIP3    H137742   0.426   3.024  11.691 -0.6950 -0.4142  0.7663
 5417TIP3    H237743   0.394   3.045  11.838  2.7703 -1.2173  1.6815
 5418TIP3   OH237744   1.962   6.765  15.219  0.9703 -0.0613  0.0945
 5418TIP3    H137745   1.973   6.691  15.159  1.8538  0.2635 -0.1584
 5418TIP3    H237746   2.051   6.782  15.250  0.6296  0.2983  0.8664
 5419TIP3   OH237747   5.983   1.513  13.759  0.0517 -0.4740 -0.5142
 5419TIP3    H137748   5.934   1.583  13.801 -1.6062 -1.2716 -1.0823
 5419TIP3    H237749   6.043   1.558  13.699 -1.2189  0.4580 -1.1208
 5420TIP3   OH237750   3.004   0.816  12.629  0.1055  0.3359  0.5333
 5420TIP3    H137751   2.979   0.738  12.679 -0.2432 -1.0900 -1.7462
 5420TIP3    H237752   3.075   0.786  12.572  0.5868  1.9346  0.2604
 5421TIP3   OH237753   6.702   5.320  11.414  1.0630 -0.0650  0.3529
 5421TIP3    H137754   6.612   5.351  11.429  1.2419 -0.1965  1.7358
 5421TIP3    H237755   6.716   5.334  11.321 -0.3614  0.0673  0.1386
 5422TIP3   OH237756   1.813   2.145  12.224 -0.0172 -0.0179 -0.3400
 5422TIP3    H137757   1.754   2.093  12.169  0.1834 -1.3901  0.7242
 5422TIP3    H237758   1.780   2.133  12.313 -0.0059  1.7438 -0.0815
 5423TIP3   OH237759   6.157   1.206  15.493 -0.6993  0.4137  0.2272
 5423TIP3    H137760   6.093   1.141  15.522  0.9249 -2.4748 -2.3137
 5423TIP3    H237761   6.117   1.248  15.417 -0.5391  0.2842  0.0714
 5424TIP3   OH237762   5.851   2.698   5.326 -0.0414 -0.3148  0.7775
 5424TIP3    H137763   5.943   2.712   5.348  0.4422 -0.1250 -1.2247
 5424TIP3    H237764   5.853   2.670   5.234 -1.8702 -1.9047  1.1926
 5425TIP3   OH237765   0.863   0.250   5.615  0.1142 -0.0980  0.0773
 5425TIP3    H137766   0.936   0.285   5.666 -1.3959  0.6658  1.7715
 5425TIP3    H237767   0.814   0.328   5.587 -0.7458 -0.6593  0.0033
 5426TIP3   OH237768   5.396   0.073   0.848 -0.5103 -0.4175 -0.6326
 5426TIP3    H137769   5.451   0.033   0.781  1.0168  0.9769 -0.2526
 5426TIP3    H237770   5.458   0.120   0.904 -1.7148 -1.8136  1.9496
 5427TIP3   OH237771   4.972   1.985   5.321 -0.0762  0.0182  0.0556
 5427TIP3    H137772   4.910   1.914   5.307 -0.1655  0.1480 -0.1999
 5427TIP3    H237773   4.986   2.022   5.234  0.4619 -0.0986  0.0905
 5428TIP3   OH237774   0.041   2.029  15.717  0.6453 -0.1497 -0.0749
 5428TIP3    H137775   0.130   2.063  15.726  0.5360  0.2100 -0.3458
 5428TIP3    H237776   0.047   1.961  15.650  1.0528 -1.3510  1.1591
 5429TIP3   OH237777   3.622   2.430   4.753 -0.3271  0.2386  0.3851
 5429TIP3    H137778   3.596   2.371   4.823 -2.1100  0.5037 -0.0291
 5429TIP3    H237779   3.696   2.479   4.789  1.3601 -2.3981  0.6388
 5430TIP3   OH237780   2.216   6.049   3.966 -0.3344  0.0206  0.0438
 5430TIP3    H137781   2.126   6.019   3.951 -0.4467 -0.6450  1.8896
 5430TIP3    H237782   2.269   5.995   3.908 -1.0208 -0.4057 -0.1994
 5431TIP3   OH237783   6.431   4.276  12.688 -0.2190  0.1684  0.1438
 5431TIP3    H137784   6.355   4.280  12.746 -0.7198  2.6671 -0.6332
 5431TIP3    H237785   6.394   4.274  12.600  0.6017 -0.2762 -0.1974
 5432TIP3   OH237786   4.289   1.272   4.200 -0.4649 -0.2421 -0.3184
 5432TIP3    H137787   4.310   1.206   4.266  2.2765 -2.1775 -2.9982
 5432TIP3    H237788   4.326   1.353   4.235  0.6144 -1.1541  0.6984
 5433TIP3   OH237789   2.805   1.415   2.838 -0.4724 -0.1232 -0.0071
 5433TIP3    H137790   2.799   1.371   2.752 -0.9048 -0.5520  0.2369
 5433TIP3    H237791   2.714   1.425   2.865 -0.4321  1.8147 -0.4986
 5434TIP3   OH237792   2.785   2.942   0.460  0.6907 -0.4700  0.1860
 5434TIP3    H137793   2.881   2.950   0.461  0.7049 -0.6563  0.3412
 5434TIP3    H237794   2.757   2.991   0.537  0.7037 -0.9462  0.4974
 5435TIP3   OH237795   3.805   2.792   1.040 -0.0074  0.0145 -0.1494
 5435TIP3    H137796   3.793   2.862   0.976 -0.7027  0.1329  0.1065
 5435TIP3    H237797   3.840   2.719   0.989 -1.0602 -0.0677 -0.7547
 5436TIP3   OH237798   0.374   5.750   5.578  0.1155 -0.6321 -0.7818
 5436TIP3    H137799   0.407   5.744   5.488  3.9208 -0.9725  0.5508
 5436TIP3    H237800   0.358   5.659   5.604 -1.0740 -0.5273 -1.1310
 5437TIP3   OH237801   0.266   4.397   3.379  0.3600 -0.5831  0.8982
 5437TIP3    H137802   0.296   4.339   3.449 -1.0927 -0.8736  1.2992
 5437TIP3    H237803   0.249   4.481   3.421  2.0366  0.0374  0.3947
 5438TIP3   OH237804   2.424   6.456  14.054  0.3062 -0.3634 -0.0095
 5438TIP3    H137805   2.349   6.406  14.020  0.1585  0.2551 -0.6069
 5438TIP3    H237806   2.487   6.389  14.082  0.0621 -0.8871 -0.6923
 5439TIP3   OH237807   3.139   0.265  10.563  0.2707 -0.8158 -0.1392
 5439TIP3    H137808   3.090   0.250  10.483  0.7165  3.0116 -1.2203
 5439TIP3    H237809   3.072   0.277  10.630 -0.2561  1.3105 -1.0108
 5440TIP3   OH237810   1.997   6.330   5.188 -0.0695 -0.5990 -0.1430
 5440TIP3    H137811   1.990   6.238   5.165 -0.7608 -1.2537  2.5338
 5440TIP3    H237812   2.077   6.337   5.240  0.2578  0.4128 -0.7611
 5441TIP3   OH237813   2.287   1.758   5.075 -0.5905 -0.7690 -0.0868
 5441TIP3    H137814   2.247   1.838   5.041  0.1139 -1.6335 -3.0396
 5441TIP3    H237815   2.368   1.748   5.024 -0.5919 -3.2723  0.3658
 5442TIP3   OH237816   3.664   4.794   0.126 -0.0587 -0.4173 -0.6454
 5442TIP3    H137817   3.747   4.813   0.082  1.0523 -1.4548  0.9235
 5442TIP3    H237818   3.658   4.859   0.195 -0.9017  0.0833 -1.1892
 5443TIP3   OH237819   4.652   0.429  15.574 -0.8350  0.3389 -0.0635
 5443TIP3    H137820   4.634   0.523  15.576 -4.9079 -0.3425  0.1944
 5443TIP3    H237821   4.674   0.411  15.483  2.5243  1.8630  0.3481
 5444TIP3   OH237822   4.508   2.977   0.439 -0.1834  0.2094 -0.5146
 5444TIP3    H137823   4.592   2.948   0.474 -0.1515  2.3591  1.2899
 5444TIP3    H237824   4.505   3.071   0.457 -3.5419 -0.0508  0.6546
 5445TIP3   OH237825   0.911   4.807   0.261 -0.2994  0.2421  0.4964
 5445TIP3    H137826   0.916   4.763   0.176  0.4007  0.4984  0.4056
 5445TIP3    H237827   0.888   4.738   0.323 -2.3758  0.3152 -0.1296
 5446TIP3   OH237828   6.458   6.552  15.600  0.5483  0.3764  0.1930
 5446TIP3    H137829   6.403   6.630  15.608  0.9193  0.6437  0.1275
 5446TIP3    H237830   6.436   6.515  15.515  0.3628  0.4016  0.2311
 5447TIP3   OH237831   5.353   2.479  15.873  0.4571 -0.1372 -0.6343
 5447TIP3    H137832   5.428   2.505  15.927 -1.2389  4.2383 -0.1346
 5447TIP3    H237833   5.285   2.458  15.937 -0.2720  0.8893 -1.0670
 5448TIP3   OH237834   5.253   6.403  16.588  0.5835 -0.5459 -0.4786
 5448TIP3    H137835   5.185   6.336  16.595  0.7502 -0.8658 -1.7019
 5448TIP3    H237836   5.227   6.471  16.650 -0.5328 -0.9459 -0.4940
 5449TIP3   OH237837   3.318   6.320   3.827 -0.4690 -0.9145 -0.1669
 5449TIP3    H137838   3.362   6.349   3.908 -1.5226  0.5388 -0.0876
 5449TIP3    H237839   3.330   6.225   3.826  1.3856 -0.7164  0.6042
 5450TIP3   OH237840   5.191   4.627  14.418 -0.7510  0.6173 -0.6426
 5450TIP3    H137841   5.127   4.588  14.477  1.6488 -0.7513  1.1300
 5450TIP3    H237842   5.249   4.678  14.476  2.9334 -2.4751 -1.4280
 5451TIP3   OH237843   4.728   4.886  16.876 -0.0859 -0.2419  0.4089
 5451TIP3    H137844   4.723   4.820  16.945 -0.8317 -0.1438  0.4464
 5451TIP3    H237845   4.821   4.910  16.873  0.0998 -0.9049  0.7576
 5452TIP3   OH237846   1.155   2.337  16.643 -0.3581 -0.5563 -0.0376
 5452TIP3    H137847   1.140   2.431  16.638 -0.2334 -0.4953  0.7345
 5452TIP3    H237848   1.175   2.311  16.553 -1.3371 -0.0055 -0.4251
 5453TIP3   OH237849   5.462   4.717   1.379 -0.0161 -0.2349  0.0149
 5453TIP3    H137850   5.469   4.702   1.284  0.0372 -1.3315  0.1887
 5453TIP3    H237851   5.551   4.703   1.412 -0.2535 -0.8790  0.3767
 5454TIP3   OH237852   6.145   4.795   3.035 -0.4863 -0.5289 -0.3967
 5454TIP3    H137853   6.098   4.797   3.119  2.1884  0.0970  1.1711
 5454TIP3    H237854   6.196   4.877   3.035  3.1845 -2.7126 -0.3885
 5455TIP3   OH237855   0.875   6.691   4.319 -0.0310 -0.4059 -0.0688
 5455TIP3    H137856   0.916   6.605   4.312  0.6530 -0.2521  1.7883
 5455TIP3    H237857   0.788   6.680   4.281  0.2929 -1.7446 -0.4405
 5456TIP3   OH237858   5.980   5.722  12.423 -0.6548 -0.0065  0.2575
 5456TIP3    H137859   5.955   5.752  12.511  1.9235  0.1853  0.9615
 5456TIP3    H237860   6.043   5.788  12.392 -0.8135 -0.5826 -1.3576
 5457TIP3   OH237861   4.877   3.335  12.197 -0.1299  0.2362 -0.2028
 5457TIP3    H137862   4.856   3.266  12.134 -2.4495  0.7175  0.0050
 5457TIP3    H237863   4.945   3.386  12.153 -0.2472 -0.6453 -1.4571
 5458TIP3   OH237864   6.809   4.775  11.588 -0.0208  0.4221 -0.3348
 5458TIP3    H137865   6.815   4.778  11.492  0.5163  0.3202 -0.3064
 5458TIP3    H237866   6.717   4.757  11.606 -0.2578  1.1395 -0.8232
 5459TIP3   OH237867   4.645   3.324  10.370  0.4472  0.4218  0.6813
 5459TIP3    H137868   4.586   3.388  10.408 -2.4534 -1.0299 -1.2043
 5459TIP3    H237869   4.716   3.375  10.333 -0.9002  2.3844  0.7669
 5460TIP3   OH237870   0.786   4.012  14.237 -0.3571  0.5584 -0.0943
 5460TIP3    H137871   0.853   4.081  14.239 -0.3294  0.5406 -0.4639
 5460TIP3    H237872   0.835   3.930  14.235 -0.3223  0.3606  3.7089
 5461TIP3   OH237873   2.808   4.513  12.657  0.3565 -0.9392  0.0481
 5461TIP3    H137874   2.788   4.551  12.572  1.5751  0.9356  0.5709
 5461TIP3    H237875   2.753   4.561  12.719  0.5062 -1.3388  0.5041
 5462TIP3   OH237876   0.506   0.083   4.336 -0.1700  0.3017 -0.6084
 5462TIP3    H137877   0.527   0.021   4.406 -0.3943  1.5164  0.5532
 5462TIP3    H237878   0.470   0.159   4.381 -0.2897  1.1212 -2.0510
 5463TIP3   OH237879   6.115   1.540   0.189 -0.2330 -0.2939  0.2744
 5463TIP3    H137880   6.046   1.532   0.123 -0.6167 -0.9817  0.7515
 5463TIP3    H237881   6.148   1.451   0.200  2.4125  0.3926 -1.7200
 5464TIP3   OH237882   6.604   4.062   0.398 -0.0841  0.3391  0.4771
 5464TIP3    H137883   6.698   4.076   0.408 -0.2252  0.1324  2.2379
 5464TIP3    H237884   6.569   4.147   0.373  0.3635  0.8062  1.4228
 5465TIP3   OH237885   5.211   0.165   5.411 -0.0432 -0.3436 -0.1153
 5465TIP3    H137886   5.191   0.129   5.325 -0.6345  0.2045 -0.2063
 5465TIP3    H237887   5.305   0.182   5.409 -0.0057 -0.5997 -0.5459
 5466TIP3   OH237888   0.027   5.829   6.226  0.2122  0.3133  0.1133
 5466TIP3    H137889   0.073   5.793   6.151 -0.7469  1.8343 -1.2275
 5466TIP3    H237890  -0.014   5.753   6.268 -0.3207 -0.3819 -1.6369
 5467TIP3   OH237891   3.616   4.775  12.624  0.1846  0.1615  0.2381
 5467TIP3    H137892   3.659   4.702  12.669 -1.0052  0.4776  1.9058
 5467TIP3    H237893   3.686   4.816  12.574  1.2420 -1.0367  0.6958
 5468TIP3   OH237894   0.628   3.616   3.741 -0.0499  0.2795 -0.2404
 5468TIP3    H137895   0.642   3.703   3.705  0.6647 -0.0447 -0.7649
 5468TIP3    H237896   0.547   3.586   3.699 -2.0241  1.8965  2.2913
 5469TIP3   OH237897   3.191   5.597  13.006  0.2199  0.1729 -0.1660
 5469TIP3    H137898   3.250   5.672  13.016  1.9379 -1.2194  0.5156
 5469TIP3    H237899   3.241   5.523  13.039 -1.7303 -1.1660 -0.1166
 5470TIP3   OH237900   4.864   6.138  15.742  0.3520  0.1458 -0.2962
 5470TIP3    H137901   4.901   6.138  15.654 -0.5345  1.2226 -0.6800
 5470TIP3    H237902   4.814   6.056  15.747  2.6080 -1.2338  0.1729
 5471TIP3   OH237903   3.608   6.031  14.465 -0.2243  0.1620 -0.0530
 5471TIP3    H137904   3.655   6.026  14.548  1.3898  0.4385 -0.9068
 5471TIP3    H237905   3.646   5.960  14.412 -0.9068  0.2817 -0.7141
 5472TIP3   OH237906   3.633   3.975   4.437 -0.3349 -0.7298  0.2458
 5472TIP3    H137907   3.649   4.007   4.348 -1.1341  0.0278  0.3637
 5472TIP3    H237908   3.716   3.988   4.482 -0.4631  0.6814  0.1204
 5473TIP3   OH237909   3.795   4.627   0.394 -0.7069  0.6878  0.2139
 5473TIP3    H137910   3.762   4.702   0.444  1.2393  0.5208  1.8354
 5473TIP3    H237911   3.878   4.658   0.357 -0.4640 -0.2853 -0.0760
 5474TIP3   OH237912   0.102   3.539   0.674 -0.2069 -0.0309 -0.0489
 5474TIP3    H137913   0.195   3.544   0.651 -0.2847 -1.5651 -0.7909
 5474TIP3    H237914   0.075   3.454   0.641 -1.6131 -0.0627  1.1758
 5475TIP3   OH237915   2.537   0.504  16.171 -0.0424  0.4839 -0.8606
 5475TIP3    H137916   2.492   0.421  16.155  0.8544 -0.5001  1.5752
 5475TIP3    H237917   2.603   0.509  16.102  0.4077 -1.2067 -0.5730
 5476TIP3   OH237918   6.570   3.660  11.781  0.3432  0.3263 -0.0280
 5476TIP3    H137919   6.624   3.592  11.822  0.1988  0.5941  0.6161
 5476TIP3    H237920   6.576   3.642  11.687  0.4693 -0.4536  0.1224
 5477TIP3   OH237921   4.610   1.629  15.808  0.1432  0.2664  0.4696
 5477TIP3    H137922   4.609   1.544  15.852 -0.8068  0.1875  0.3170
 5477TIP3    H237923   4.701   1.641  15.781  0.1947 -0.9196  0.0856
 5478TIP3   OH237924   4.704   1.640   4.461  0.1162  0.1712 -0.2581
 5478TIP3    H137925   4.677   1.655   4.552 -0.0974 -0.8419 -0.1555
 5478TIP3    H237926   4.640   1.579   4.426  1.1722 -0.7873 -0.5701
 5479TIP3   OH237927   2.248   5.465  11.384 -0.0887 -0.3151 -0.2902
 5479TIP3    H137928   2.225   5.558  11.376 -2.6171 -0.6300  2.5069
 5479TIP3    H237929   2.199   5.423  11.313 -1.5555  0.1060  0.4507
 5480TIP3   OH237930   4.578   1.812  17.051 -0.4059 -0.1214 -0.4248
 5480TIP3    H137931   4.563   1.899  17.088 -2.2905 -0.5880 -0.0086
 5480TIP3    H237932   4.636   1.769  17.113 -2.2792 -0.3484  1.2237
 5481TIP3   OH237933   6.284   5.736  16.123 -0.2840 -0.3478  0.2260
 5481TIP3    H137934   6.272   5.641  16.117  1.4704 -0.5683  0.0647
 5481TIP3    H237935   6.276   5.767  16.033  1.4070 -0.6314 -0.0345
 5482TIP3   OH237936   0.570   5.213  14.185 -0.4092 -0.1157 -0.2167
 5482TIP3    H137937   0.568   5.244  14.275 -1.0174 -0.5870 -0.0626
 5482TIP3    H237938   0.479   5.217  14.156 -0.5214 -1.8631 -0.1540
 5483TIP3   OH237939   1.161   0.901  16.673  0.2037  0.0978  0.4286
 5483TIP3    H137940   1.180   0.932  16.761 -1.8015  0.9210  0.5984
 5483TIP3    H237941   1.102   0.966  16.636 -1.0188 -1.5320 -0.5926
 5484TIP3   OH237942   5.570   2.684   5.409 -0.0769 -0.1248 -0.1001
 5484TIP3    H137943   5.574   2.749   5.479  1.2490  0.6026 -0.8214
 5484TIP3    H237944   5.660   2.679   5.376 -0.5203 -1.0586 -1.1992
 5485TIP3   OH237945   0.747   4.707  15.781  0.0724  0.2783 -0.0496
 5485TIP3    H137946   0.753   4.693  15.687  0.9055  2.9501 -0.4250
 5485TIP3    H237947   0.834   4.683  15.815  0.2225  0.6770 -0.1532
 5486TIP3   OH237948   3.347   3.322  14.468  0.0580  0.8125 -0.6595
 5486TIP3    H137949   3.255   3.345  14.459  0.2155  1.6685 -0.1012
 5486TIP3    H237950   3.384   3.338  14.382 -0.7759 -1.6899 -1.5291
 5487TIP3   OH237951   5.940   1.791   0.309 -0.3067 -0.0886 -0.2194
 5487TIP3    H137952   5.858   1.781   0.359 -1.0957 -1.8878 -1.8242
 5487TIP3    H237953   5.968   1.702   0.291  2.2087  0.5123  0.5632
 5488TIP3   OH237954   2.856   3.213  11.150 -0.3930 -0.4889  0.5244
 5488TIP3    H137955   2.833   3.162  11.073 -1.9455  0.2368  0.4880
 5488TIP3    H237956   2.950   3.198  11.162 -0.0041 -0.1118 -1.8612
 5489TIP3   OH237957   2.952   2.812  16.639  0.1674  0.2643 -0.0877
 5489TIP3    H137958   2.915   2.793  16.553  0.6609 -1.0359 -0.0124
 5489TIP3    H237959   2.877   2.846  16.689 -0.6334 -1.0729 -0.3469
 5490TIP3   OH237960   1.607   2.344  11.332  0.4711 -0.3888  0.9623
 5490TIP3    H137961   1.528   2.308  11.371  1.2927 -1.1265  1.9646
 5490TIP3    H237962   1.595   2.333  11.237 -1.0604  0.4295  1.0531
 5491TIP3   OH237963   1.520   2.090   4.657  0.3861  0.2264  0.0084
 5491TIP3    H137964   1.456   2.028   4.690  1.2276 -0.0940  1.0748
 5491TIP3    H237965   1.570   2.042   4.592  0.8300 -0.1177  0.6039
 5492TIP3   OH237966   0.839   1.964   3.602  0.7868  0.2056 -0.3636
 5492TIP3    H137967   0.851   2.055   3.576 -2.8813  0.7228 -0.4057
 5492TIP3    H237968   0.818   1.918   3.520 -1.5160  0.1070  0.2699
 5493TIP3   OH237969   2.839   0.071  15.043 -0.1817  0.3552  0.1120
 5493TIP3    H137970   2.862   0.161  15.066 -0.7183  0.1166  1.6457
 5493TIP3    H237971   2.827   0.073  14.948  0.5698  1.7207  0.0316
 5494TIP3   OH237972   4.853   6.164  16.071  0.7787  0.1308 -0.1910
 5494TIP3    H137973   4.890   6.119  16.147  0.9049  1.1144  0.3333
 5494TIP3    H237974   4.929   6.192  16.021  0.7373  1.5712  0.5475
 5495TIP3   OH237975   1.861   2.075  14.502  0.1144  0.7349  0.9279
 5495TIP3    H137976   1.819   2.058  14.587  0.6805  0.9515  1.2520
 5495TIP3    H237977   1.867   2.170  14.497 -0.7326  0.7589  0.2417
 5496TIP3   OH237978   4.158   0.097   3.178 -0.0488  0.5831 -0.6266
 5496TIP3    H137979   4.155   0.001   3.177 -0.1427  0.5719  0.3559
 5496TIP3    H237980   4.235   0.119   3.124  1.7134 -0.1435  1.5339
 5497TIP3   OH237981   2.374   3.159   1.583  0.0264 -0.6097  0.0532
 5497TIP3    H137982   2.416   3.177   1.499 -0.4210 -0.4947 -0.1441
 5497TIP3    H237983   2.319   3.235   1.600  0.0980 -0.6420  0.4412
 5498TIP3   OH237984   1.326   1.480   0.079  0.0446 -0.3592 -0.1295
 5498TIP3    H137985   1.309   1.574   0.069 -0.0647 -0.4263 -0.5886
 5498TIP3    H237986   1.245   1.445   0.116  0.0961 -0.2663  0.0701
 5499TIP3   OH237987   6.717   4.842   2.055  0.4059  0.5075 -0.2805
 5499TIP3    H137988   6.782   4.844   1.986  0.2965 -0.6087 -0.4353
 5499TIP3    H237989   6.715   4.750   2.083 -3.0350 -0.0861 -2.1370
 5500TIP3   OH237990   1.829   0.004   1.478  0.5822  0.3082 -0.6149
 5500TIP3    H137991   1.772   0.069   1.518  0.1422  0.6008 -1.7123
 5500TIP3    H237992   1.780  -0.078   1.485  0.4605  0.3776 -0.6531
 5501TIP3   OH237993   4.357   0.278   2.142  0.6553 -0.4909  0.1903
 5501TIP3    H137994   4.284   0.218   2.155  0.6628 -0.3666  0.8512
 5501TIP3    H237995   4.319   0.365   2.153  0.1545 -0.2216 -3.0771
 5502TIP3   OH237996   0.753   3.606   4.194 -0.3884  0.4889  0.1394
 5502TIP3    H137997   0.686   3.625   4.128 -0.2535  2.5106  0.5781
 5502TIP3    H237998   0.735   3.515   4.220 -0.9408 -0.0811 -2.0694
 5503TIP3   OH237999   1.800   0.855   4.248 -0.3054 -0.2184  1.1681
 5503TIP3    H138000   1.715   0.817   4.271  0.3530 -2.9115 -0.6874
 5503TIP3    H238001   1.795   0.945   4.281 -2.3814 -1.4655  4.6072
 5504TIP3   OH238002   1.655   0.412   2.707 -0.3055 -0.0095 -0.1435
 5504TIP3    H138003   1.686   0.501   2.689  0.7160 -0.2958  0.1674
 5504TIP3    H238004   1.734   0.359   2.708 -0.9557 -1.0277 -0.8747
 5505TIP3   OH238005   5.418   1.043  15.754  0.6085 -0.0783 -0.2866
 5505TIP3    H138006   5.505   1.082  15.757  0.1630  0.9882 -0.9254
 5505TIP3    H238007   5.363   1.101  15.808 -0.1273  0.4046 -1.5135
 5506TIP3   OH238008   6.415   2.867  15.224  0.1210  0.1899 -0.0378
 5506TIP3    H138009   6.489   2.865  15.163  1.1568 -1.6061  1.2170
 5506TIP3    H238010   6.451   2.907  15.304  0.0427 -1.5643  0.9124
 5507TIP3   OH238011   1.694   5.527   0.306 -0.0449  0.2062 -0.1116
 5507TIP3    H138012   1.603   5.529   0.333 -0.7816  1.1024 -2.4971
 5507TIP3    H238013   1.709   5.437   0.276 -0.1031  0.0260  0.3999
 5508TIP3   OH238014   3.121   3.835  14.805 -0.7545 -0.1210 -0.0614
 5508TIP3    H138015   3.086   3.864  14.889 -1.3381 -2.0883  0.3796
 5508TIP3    H238016   3.095   3.744  14.797  0.7289 -0.4459 -1.6204
 5509TIP3   OH238017   3.665   2.109   4.687 -0.1742  0.5587  0.4856
 5509TIP3    H138018   3.738   2.114   4.625  0.9340  3.6809  1.9385
 5509TIP3    H238019   3.587   2.111   4.631  0.8069  3.5182 -0.9086
 5510TIP3   OH238020   2.938   2.252   3.825 -0.1222 -0.4932 -0.5283
 5510TIP3    H138021   2.881   2.302   3.883  4.5992  1.8485  2.3780
 5510TIP3    H238022   2.971   2.317   3.763 -0.0029 -1.6807 -1.7425
 5511TIP3   OH238023   4.437   5.677  15.748 -0.0223 -0.6339 -0.8222
 5511TIP3    H138024   4.381   5.748  15.717  0.5100 -0.2185 -0.8271
 5511TIP3    H238025   4.383   5.633  15.815 -0.7587 -0.8924 -1.5801
 5512TIP3   OH238026   5.508   5.421   1.287 -0.5054 -0.3244  0.3608
 5512TIP3    H138027   5.530   5.335   1.322 -0.2063  0.2471  1.5971
 5512TIP3    H238028   5.413   5.419   1.275 -0.3470 -1.2822 -0.8944
 5513TIP3   OH238029   5.410   5.641   1.497 -0.2611 -0.1401 -0.4154
 5513TIP3    H138030   5.364   5.615   1.418 -0.6975  2.0347 -0.9163
 5513TIP3    H238031   5.498   5.662   1.468  0.1549 -1.2391  0.0203
 5514TIP3   OH238032   0.334   3.689   0.683  0.4015  0.4673  0.5149
 5514TIP3    H138033   0.428   3.671   0.679  0.2525 -0.2107 -0.3591
 5514TIP3    H238034   0.316   3.710   0.774  1.2383 -0.3589  0.8743
 5515TIP3   OH238035   6.405   5.287   5.368 -0.5300 -0.4128 -0.2256
 5515TIP3    H138036   6.479   5.255   5.317  0.8492  1.2296  0.6786
 5515TIP3    H238037   6.409   5.238   5.450  1.1626  1.4583  0.8739
 5516TIP3   OH238038   6.138   6.207  16.718 -0.3785  0.4223  0.1428
 5516TIP3    H138039   6.218   6.251  16.747  0.2639 -1.1673  0.8531
 5516TIP3    H238040   6.119   6.246  16.633  0.5039  1.6345  0.4853
 5517TIP3   OH238041   1.610   5.866  15.535 -0.5008 -0.0055  0.0402
 5517TIP3    H138042   1.639   5.882  15.445  0.5256 -0.6012  0.2501
 5517TIP3    H238043   1.520   5.896  15.537 -0.1190  1.2517 -0.8346
 5518TIP3   OH238044   4.358   1.230  11.264 -0.3775 -0.0039 -0.3463
 5518TIP3    H138045   4.398   1.306  11.307  0.1282  0.0737 -0.9482
 5518TIP3    H238046   4.432   1.184  11.223 -0.9274  0.2138 -1.5877
 5519TIP3   OH238047   5.728   5.815   0.805 -0.2743  0.1607  0.5649
 5519TIP3    H138048   5.666   5.860   0.749  1.0456  2.0830  0.6083
 5519TIP3    H238049   5.775   5.755   0.746 -1.2185 -0.3077  0.2834
 5520TIP3   OH238050   3.440   2.957   4.251 -0.4535 -0.6522  0.1045
 5520TIP3    H138051   3.468   2.884   4.196 -2.1272 -2.1486  1.1955
 5520TIP3    H238052   3.362   2.991   4.207 -1.8191 -1.8795  1.5413
 5521TIP3   OH238053   2.018   1.833   0.583 -0.1464  0.2616 -0.0787
 5521TIP3    H138054   2.109   1.832   0.614 -0.0461 -0.4406 -0.4046
 5521TIP3    H238055   1.965   1.828   0.662  0.0904  1.0536  0.1393
 5522TIP3   OH238056   0.664   0.210  15.552 -0.7552 -0.0697  0.3495
 5522TIP3    H138057   0.612   0.174  15.624  0.5515 -3.4221 -0.2808
 5522TIP3    H238058   0.726   0.140  15.531  0.6268  1.8837 -2.2938
 5523TIP3   OH238059   1.784   0.674   0.485  0.3899  0.4783  0.1186
 5523TIP3    H138060   1.739   0.757   0.468 -0.1293  0.6498  2.1680
 5523TIP3    H238061   1.876   0.691   0.463  0.4519  1.8827  1.4329
 5524TIP3   OH238062   3.060   5.258  16.629  0.0339 -0.4512 -0.3069
 5524TIP3    H138063   3.029   5.347  16.648 -0.7935 -1.2298  2.2239
 5524TIP3    H238064   3.025   5.239  16.542  1.0700  2.0478 -1.3153
 5525TIP3   OH238065   4.734   1.572   5.821 -0.6624  0.5458  0.0407
 5525TIP3    H138066   4.818   1.570   5.866 -0.6658  0.8406  0.0613
 5525TIP3    H238067   4.757   1.583   5.728 -0.7062  1.4658  0.1368
 5526TIP3   OH238068   2.122   6.272   1.560 -0.1480 -0.1434 -0.6730
 5526TIP3    H138069   2.171   6.315   1.630  0.8548  1.8244 -2.5177
 5526TIP3    H238070   2.126   6.334   1.486 -0.5264 -2.4698 -2.7078
 5527TIP3   OH238071   3.911   3.931  12.303  0.2034  0.1432 -0.3462
 5527TIP3    H138072   3.976   3.868  12.334 -0.0952 -0.0170 -0.0499
 5527TIP3    H238073   3.877   3.894  12.222 -0.7056 -0.5713  0.3564
 5528TIP3   OH238074   2.960   2.499  11.111 -1.0477 -0.4843 -0.0015
 5528TIP3    H138075   2.989   2.407  11.113  0.0268 -0.1464 -0.0388
 5528TIP3    H238076   2.867   2.493  11.088 -0.5928 -1.4873 -1.7211
 5529TIP3   OH238077   2.391   5.167  15.668 -0.5628 -0.1076  0.0090
 5529TIP3    H138078   2.412   5.138  15.580 -0.0841 -3.8358  1.2802
 5529TIP3    H238079   2.306   5.129  15.687 -0.9485  1.1701  0.9568
 5530TIP3   OH238080   1.136   5.425  16.911  0.1015 -0.4289 -0.1806
 5530TIP3    H138081   1.064   5.377  16.953 -0.4956  2.4228  2.2825
 5530TIP3    H238082   1.205   5.425  16.977  1.2061 -0.4442 -1.3255
 5531TIP3   OH238083   2.208   2.722   2.780  0.0575  0.0768  0.2611
 5531TIP3    H138084   2.277   2.697   2.842  1.5546  1.1412 -0.9223
 5531TIP3    H238085   2.221   2.663   2.705 -0.4402  0.1606  0.1044
 5532TIP3   OH238086   6.751   6.417  15.286 -0.3858  0.1157 -0.1695
 5532TIP3    H138087   6.751   6.489  15.349  1.0416  0.1085 -0.1441
 5532TIP3    H238088   6.837   6.377  15.295 -1.0967 -1.5083 -0.2914
 5533TIP3   OH238089   5.501   2.035  12.916  0.1004 -0.4339  0.3498
 5533TIP3    H138090   5.420   2.074  12.949 -0.1843  0.1821 -1.0462
 5533TIP3    H238091   5.550   2.011  12.994 -0.3213  1.5002  1.2247
 5534TIP3   OH238092   2.455   1.637  14.635 -0.4326  0.1834  0.0582
 5534TIP3    H138093   2.395   1.638  14.709  0.9291  0.0934  1.1800
 5534TIP3    H238094   2.407   1.590  14.566 -0.8463 -1.7738  1.6187
 5535TIP3   OH238095   5.873   5.408  15.280  0.1306  0.3765 -0.0570
 5535TIP3    H138096   5.790   5.383  15.321 -0.4574  1.3012 -0.6491
 5535TIP3    H238097   5.940   5.385  15.345 -0.4038 -2.2065 -0.3790
 5536TIP3   OH238098   6.342   2.066  16.432 -0.4325  0.0161 -0.3347
 5536TIP3    H138099   6.425   2.018  16.440  0.7177  1.8610 -0.9159
 5536TIP3    H238100   6.352   2.141  16.492 -1.4337  0.5900 -0.8711
 5537TIP3   OH238101   2.160   1.542   0.479  0.2110 -0.2221  0.7919
 5537TIP3    H138102   2.154   1.606   0.408  0.6961 -1.4318 -0.3546
 5537TIP3    H238103   2.246   1.557   0.518  0.8931 -1.0742 -0.3584
 5538TIP3   OH238104   1.846   2.072   4.904 -0.2683 -0.0615  0.5167
 5538TIP3    H138105   1.912   2.036   4.845  0.2933  0.9979  0.4935
 5538TIP3    H238106   1.847   2.014   4.980 -0.9207 -1.3776 -0.4569
 5539TIP3   OH238107   1.079   6.153   1.632  0.0679  0.1997 -0.2778
 5539TIP3    H138108   1.062   6.225   1.572  0.6347  1.7861  1.4331
 5539TIP3    H238109   1.149   6.103   1.590 -2.2073 -1.0260 -2.8254
 5540TIP3   OH238110   0.704   0.930  14.767 -0.3286 -0.3301 -0.8704
 5540TIP3    H138111   0.755   0.924  14.687 -1.1605  0.3832 -1.4642
 5540TIP3    H238112   0.627   0.875  14.752  0.6202 -2.0548  0.3258
 5541TIP3   OH238113   3.307   0.021   6.520 -0.2299 -0.4311  0.3973
 5541TIP3    H138114   3.345   0.062   6.443  0.1608  0.5938  1.1178
 5541TIP3    H238115   3.319   0.086   6.590 -1.3710 -0.9739  1.1179
 5542TIP3   OH238116   6.451   4.179  16.490 -0.2114 -0.1921 -0.3212
 5542TIP3    H138117   6.542   4.196  16.517 -0.3784 -0.9709  0.7949
 5542TIP3    H238118   6.446   4.211  16.400  1.3146 -0.5923 -0.5683
 5543TIP3   OH238119   0.729   4.279  17.247 -0.4066 -0.2815 -0.1471
 5543TIP3    H138120   0.750   4.218  17.177  0.6551 -0.0536 -0.0293
 5543TIP3    H238121   0.669   4.342  17.207 -1.2700 -1.2150 -0.3436
 5544TIP3   OH238122   1.536   5.011  14.428  0.0462 -0.3924  0.2739
 5544TIP3    H138123   1.465   5.036  14.487 -0.8805  0.1974 -1.0633
 5544TIP3    H238124   1.492   4.972  14.352  1.1837 -0.4940 -0.3481
 5545TIP3   OH238125   4.619   3.104  11.546 -0.1146  0.0163  0.6572
 5545TIP3    H138126   4.661   3.046  11.482 -0.5778 -0.6038  0.9028
 5545TIP3    H238127   4.678   3.179  11.552 -0.2529  0.2556 -0.7628
 5546TIP3   OH238128   3.275   0.576  16.017 -0.0470 -0.2215 -0.7158
 5546TIP3    H138129   3.332   0.604  16.088  0.8436 -0.1979 -1.4360
 5546TIP3    H238130   3.187   0.575  16.056  0.4411 -0.3118  0.4064
 5547TIP3   OH238131   4.026   0.280  14.712  0.3786 -0.5030  0.1719
 5547TIP3    H138132   4.020   0.287  14.808 -0.0959 -0.6606  0.1556
 5547TIP3    H238133   3.936   0.274  14.683  0.5017  0.1356 -0.3415
 5548TIP3   OH238134   2.120   1.171  15.768 -0.5843 -0.1811  0.1997
 5548TIP3    H138135   2.187   1.224  15.724 -1.3412  0.6002 -0.0172
 5548TIP3    H238136   2.166   1.132  15.842  0.0537  0.5470  0.2011
 5549TIP3   OH238137   6.565   0.921   2.148 -0.4626  0.3605 -0.3868
 5549TIP3    H138138   6.498   0.854   2.134 -1.1049  1.1508 -1.1599
 5549TIP3    H238139   6.631   0.905   2.080 -0.0362 -0.1940  0.1500
 5550TIP3   OH238140   1.147   4.393   2.292 -0.6801 -0.1857  0.5643
 5550TIP3    H138141   1.173   4.302   2.308 -1.1496 -0.3996  0.1221
 5550TIP3    H238142   1.130   4.429   2.379 -2.4735 -1.1262  0.6329
 5551TIP3   OH238143   6.376   0.397  15.836 -0.3559 -0.4744 -0.0048
 5551TIP3    H138144   6.457   0.358  15.870 -0.3602 -0.9016 -0.4826
 5551TIP3    H238145   6.309   0.366  15.897 -0.5363 -2.1881 -1.0466
 5552TIP3   OH238146   0.889   3.618   5.561 -0.1511  0.1914  0.1288
 5552TIP3    H138147   0.821   3.622   5.493 -0.5228 -0.4338  0.4556
 5552TIP3    H238148   0.857   3.675   5.631  0.6325  1.4943 -0.5741
 5553TIP3   OH238149   3.214   0.403   0.159 -0.1620 -0.5401  0.1047
 5553TIP3    H138150   3.295   0.389   0.109  0.3419  0.7696  0.5332
 5553TIP3    H238151   3.228   0.357   0.241  0.4000  0.1641  0.4135
 5554TIP3   OH238152   4.088   0.452   1.867 -0.1534  0.4109 -0.4164
 5554TIP3    H138153   3.997   0.434   1.888 -0.0501  0.7996  0.4028
 5554TIP3    H238154   4.085   0.502   1.785 -0.7035  0.7973 -0.1623
 5555TIP3   OH238155   2.219   1.961  14.026 -0.2976  0.2675  0.1621
 5555TIP3    H138156   2.259   1.890  13.976 -1.7271 -0.0235 -0.5917
 5555TIP3    H238157   2.285   1.984  14.091  0.1724 -1.7637  0.4357
 5556TIP3   OH238158   0.892   2.350  12.351  0.3374  0.2973 -0.1767
 5556TIP3    H138159   0.887   2.272  12.296  0.6769  0.3377 -0.2679
 5556TIP3    H238160   0.805   2.357  12.390  0.4608 -0.4180  0.2335
 5557TIP3   OH238161   5.608   2.690   2.018  0.0700 -0.2609 -0.0504
 5557TIP3    H138162   5.538   2.717   1.960 -1.0943 -3.1267 -0.0570
 5557TIP3    H238163   5.576   2.712   2.106 -0.1568 -0.1215 -0.1679
 5558TIP3   OH238164   4.342   3.987   5.834 -0.1447 -0.1405  0.5186
 5558TIP3    H138165   4.274   3.948   5.889 -1.0230 -0.5898 -0.8952
 5558TIP3    H238166   4.295   4.041   5.771  0.9245  1.1406  0.7861
 5559TIP3   OH238167   6.194   6.143  14.384 -0.2474 -0.1749  0.5617
 5559TIP3    H138168   6.102   6.153  14.410 -1.3780 -0.7209 -2.9344
 5559TIP3    H238169   6.242   6.202  14.442 -2.8260  0.3387  2.2739
 5560TIP3   OH238170   4.717   5.517  12.372 -0.2032  0.0967 -0.3818
 5560TIP3    H138171   4.718   5.611  12.388  1.1579 -0.2774  1.9999
 5560TIP3    H238172   4.806   5.495  12.346 -0.5612 -0.5029 -1.1239
 5561TIP3   OH238173   4.177   1.602  11.582  0.5400 -0.7731 -0.1913
 5561TIP3    H138174   4.241   1.673  11.578  0.5412 -0.8333 -1.2844
 5561TIP3    H238175   4.228   1.526  11.611  0.8764 -0.7083 -0.6013
 5562TIP3   OH238176   3.785   5.346  13.654  0.1881 -0.2525 -0.1483
 5562TIP3    H138177   3.872   5.368  13.622  0.1261  0.0538 -0.1117
 5562TIP3    H238178   3.727   5.409  13.611  0.2498  0.9108  1.4125
 5563TIP3   OH238179   4.604   2.122   5.712 -0.2047 -0.4104 -0.3442
 5563TIP3    H138180   4.686   2.156   5.747  1.1730 -4.4115  0.5929
 5563TIP3    H238181   4.549   2.107   5.789 -1.5892  1.5915 -0.9103
 5564TIP3   OH238182   3.921   5.685   4.970  0.5222  0.6515 -0.0993
 5564TIP3    H138183   3.921   5.590   4.977 -0.4625  0.7574  1.8415
 5564TIP3    H238184   3.843   5.705   4.917  0.7724  0.3787 -0.5714
 5565TIP3   OH238185   3.937   4.629   0.677 -0.3171 -0.3328 -0.3415
 5565TIP3    H138186   3.914   4.645   0.585 -0.0268  0.7043 -0.2417
 5565TIP3    H238187   3.863   4.580   0.712 -0.0716 -1.4134 -1.3317
 5566TIP3   OH238188   5.585   0.150  13.352  0.0892  0.0127 -0.2049
 5566TIP3    H138189   5.580   0.075  13.411 -1.7237 -1.2104 -1.8574
 5566TIP3    H238190   5.628   0.117  13.274  1.7110  1.4116  0.0536
 5567TIP3   OH238191   3.426   6.430  12.444 -0.0351  0.2442  0.3005
 5567TIP3    H138192   3.335   6.403  12.431  0.0441 -0.8435  1.8639
 5567TIP3    H238193   3.459   6.449  12.356 -1.7408  0.5508 -0.2783
 5568TIP3   OH238194   6.608   6.339  17.111  0.7570 -0.0102 -0.7696
 5568TIP3    H138195   6.702   6.324  17.122  0.3261 -1.6795  0.8856
 5568TIP3    H238196   6.566   6.274  17.167 -1.4167  0.3292 -1.9255
 5569TIP3   OH238197   1.985   1.330   5.908  0.2557  0.7137 -0.2516
 5569TIP3    H138198   2.002   1.288   5.993  1.1911  2.2814  0.3582
 5569TIP3    H238199   2.070   1.362   5.880  0.2189 -0.9787 -2.4760
 5570TIP3   OH238200   0.178   6.196  11.826  0.2126  0.1763 -0.3024
 5570TIP3    H138201   0.159   6.157  11.911 -0.8422  0.1972 -0.5324
 5570TIP3    H238202   0.258   6.152  11.797 -0.2951 -0.9393 -0.0104
 5571TIP3   OH238203   5.830   1.887  12.325  0.7330  0.3187  0.7832
 5571TIP3    H138204   5.784   1.811  12.361 -2.3684  1.1171 -1.2494
 5571TIP3    H238205   5.919   1.856  12.309 -0.2777 -2.6690  0.6304
 5572TIP3   OH238206   4.450   1.040  16.934 -0.6987 -0.0547 -0.0123
 5572TIP3    H138207   4.501   0.966  16.967  0.2301  0.9157  0.7559
 5572TIP3    H238208   4.375   1.046  16.994 -0.4508 -0.0041  0.2960
 5573TIP3   OH238209   1.132   2.288  12.772 -0.5498 -0.5317 -0.2284
 5573TIP3    H138210   1.132   2.218  12.837 -1.0842 -0.8746 -0.5909
 5573TIP3    H238211   1.184   2.253  12.700 -0.2631 -0.2976 -0.1314
 5574TIP3   OH238212   1.902   2.857  11.146 -0.4136  0.4566 -0.3659
 5574TIP3    H138213   1.810   2.854  11.121 -0.8450 -1.7340  1.3305
 5574TIP3    H238214   1.938   2.775  11.113  0.5668  0.6038  0.3217
 5575TIP3   OH238215   0.576   6.273  11.913 -0.0048 -0.3969 -0.0525
 5575TIP3    H138216   0.514   6.345  11.917  0.0245 -0.2224 -2.0098
 5575TIP3    H238217   0.630   6.282  11.992 -0.6369  1.1324  0.2173
 5576TIP3   OH238218   5.529   6.293   0.194 -0.2077  0.0350  0.1633
 5576TIP3    H138219   5.616   6.285   0.155  0.0638  0.5040  0.6695
 5576TIP3    H238220   5.479   6.343   0.130  0.2058  0.7044  0.3554
 5577TIP3   OH238221   6.509   3.025   5.020 -0.0744  0.1611 -0.1097
 5577TIP3    H138222   6.517   3.090   4.950  1.2053 -2.3218 -2.3613
 5577TIP3    H238223   6.417   3.030   5.048 -0.6740  0.9881 -2.1895
 5578TIP3   OH238224   6.492   6.018  11.925 -0.0223 -0.3351  0.3375
 5578TIP3    H138225   6.445   5.978  11.851  1.5441  0.9616 -1.4260
 5578TIP3    H238226   6.556   5.952  11.951  1.1906  0.1804 -1.2300
 5579TIP3   OH238227   1.275   4.719   4.090  0.4643 -0.2299 -0.1974
 5579TIP3    H138228   1.231   4.644   4.050 -1.8045  0.3064  1.2320
 5579TIP3    H238229   1.356   4.729   4.039 -1.5149 -0.6307 -3.5710
 5580TIP3   OH238230   1.094   1.929   5.095 -0.2550 -0.4605  0.5177
 5580TIP3    H138231   1.103   2.009   5.044 -1.1493 -1.0722 -0.6230
 5580TIP3    H238232   1.002   1.925   5.118  0.0075 -0.5616  1.5869
 5581TIP3   OH238233   4.455   2.329  12.902  0.1280  0.2430 -0.4938
 5581TIP3    H138234   4.360   2.337  12.906  0.2554  0.8395  1.5263
 5581TIP3    H238235   4.483   2.404  12.849 -0.4082  0.9403  0.2063
 5582TIP3   OH238236   1.122   1.101  12.109  0.1926 -0.2332  0.5380
 5582TIP3    H138237   1.112   1.196  12.108  1.4686  0.0110  3.8337
 5582TIP3    H238238   1.032   1.067  12.115 -0.1772  0.8650  1.3815
 5583TIP3   OH238239   2.567   2.584   0.750  0.3848 -0.0928  0.2635
 5583TIP3    H138240   2.626   2.657   0.766 -0.8406  0.7729  0.9241
 5583TIP3    H238241   2.570   2.532   0.830  0.2419 -0.0455  0.2993
 5584TIP3   OH238242   5.449   2.697   2.254  0.4231 -0.3810 -0.3052
 5584TIP3    H138243   5.407   2.632   2.311  2.7747 -0.0626  1.8535
 5584TIP3    H238244   5.475   2.768   2.312  1.8867  0.4778 -1.9437
 5585TIP3   OH238245   5.101   6.350   2.517  0.2156 -0.0856  0.3426
 5585TIP3    H138246   5.043   6.286   2.560  0.1152 -1.0062 -1.1199
 5585TIP3    H238247   5.050   6.381   2.442  0.2538  1.7603  1.0681
 5586TIP3   OH238248   0.864   0.802   5.197 -0.1981 -0.0583 -0.1774
 5586TIP3    H138249   0.820   0.806   5.282 -1.1111  0.1323 -0.6467
 5586TIP3    H238250   0.818   0.867   5.143 -0.0098 -0.5935 -0.9928
 5587TIP3   OH238251   1.279   5.950  16.892  0.1807 -0.3599  0.1733
 5587TIP3    H138252   1.372   5.954  16.914  0.1614 -1.5606  0.4712
 5587TIP3    H238253   1.240   5.898  16.962 -0.4526 -1.2837 -0.8636
 5588TIP3   OH238254   5.628   0.370   4.082 -0.0827  0.3739 -0.3259
 5588TIP3    H138255   5.649   0.429   4.010  0.4039  0.3465 -0.2099
 5588TIP3    H238256   5.635   0.282   4.044  0.3957  0.3517 -0.1919
 5589TIP3   OH238257   5.839   6.627  11.872  0.0039  0.0865 -1.2335
 5589TIP3    H138258   5.890   6.570  11.930  2.0451  1.2871 -1.7769
 5589TIP3    H238259   5.803   6.568  11.806  1.5763 -0.6909 -1.4345
 5590TIP3   OH238260   5.953   1.535   5.785 -0.4792  0.1344  0.5836
 5590TIP3    H138261   5.937   1.508   5.875 -0.4431 -1.8340  0.0404
 5590TIP3    H238262   5.877   1.504   5.737 -0.4759  1.1307 -0.0743
 5591TIP3   OH238263   3.940   2.056   6.276 -0.4179  0.3082 -0.3885
 5591TIP3    H138264   4.006   2.058   6.207 -1.2764  1.6573 -1.1818
 5591TIP3    H238265   3.986   2.087   6.354  0.2692 -0.1818 -0.5938
 5592TIP3   OH238266   5.564   2.571  11.530 -0.0359  0.3688 -0.4466
 5592TIP3    H138267   5.624   2.643  11.550 -0.8273  0.5692  1.2137
 5592TIP3    H238268   5.616   2.492  11.543 -0.1317  0.5419  1.0641
 5593TIP3   OH238269   4.053   3.534   3.603 -0.4134 -0.4223 -0.1609
 5593TIP3    H138270   4.072   3.513   3.695  1.0391  1.0723 -0.1131
 5593TIP3    H238271   4.110   3.475   3.553  0.4336  0.3094 -0.0696
 5594TIP3   OH238272   1.684   3.102  14.466 -0.2436  0.0791 -0.2420
 5594TIP3    H138273   1.645   3.041  14.529 -1.0353 -2.5085 -3.0859
 5594TIP3    H238274   1.611   3.155  14.436  0.0872  1.1472  0.8357
 5595TIP3   OH238275   2.804   3.204   4.114 -0.0316  0.4026 -0.1124
 5595TIP3    H138276   2.723   3.154   4.102 -0.5635  0.8940  1.2243
 5595TIP3    H238277   2.790   3.285   4.065 -0.9534  1.1094  1.2891
 5596TIP3   OH238278   5.743   3.293  12.663  0.1074 -0.0209 -0.1637
 5596TIP3    H138279   5.730   3.386  12.648 -0.0979 -0.0657 -0.2586
 5596TIP3    H238280   5.839   3.282  12.665  0.1649  0.5728  2.1836
 5597TIP3   OH238281   3.834   3.002  13.137 -0.2930  0.0527 -0.0473
 5597TIP3    H138282   3.925   2.995  13.111 -0.3267  0.0606 -0.1694
 5597TIP3    H238283   3.799   3.072  13.082 -0.8624 -1.2460 -1.3794
 5598TIP3   OH238284   3.608   1.522  12.257 -0.2554 -1.0922  0.2893
 5598TIP3    H138285   3.696   1.485  12.250 -1.0447 -2.3688 -4.2517
 5598TIP3    H238286   3.614   1.607  12.213 -1.0560 -0.6748  0.9634
 5599TIP3   OH238287   1.212   0.990  14.855  0.2089  0.1586 -0.1416
 5599TIP3    H138288   1.185   0.901  14.876 -2.5705  0.5464 -1.8554
 5599TIP3    H238289   1.153   1.018  14.785  1.6049  3.0288 -0.2659
 5600TIP3   OH238290   4.428   3.199   3.759 -0.4276 -0.2267  0.3862
 5600TIP3    H138291   4.411   3.288   3.790  0.3799  0.2826 -0.6039
 5600TIP3    H238292   4.348   3.173   3.715  0.3532  1.1409 -1.9073
 5601TIP3   OH238293   2.628   2.237  16.805  0.1776 -0.6979  0.1018
 5601TIP3    H138294   2.646   2.311  16.746 -1.2688 -0.9078 -0.6337
 5601TIP3    H238295   2.694   2.244  16.873 -0.3485  1.6862  0.4035
 5602TIP3   OH238296   3.817   5.629   1.059 -0.0901 -0.0441  0.5850
 5602TIP3    H138297   3.893   5.628   1.000 -0.5875 -1.8970 -0.0421
 5602TIP3    H238298   3.809   5.721   1.085 -0.2100  0.9753 -2.7339
 5603TIP3   OH238299   0.046   2.857   6.116 -0.0004  0.2714 -0.1257
 5603TIP3    H138300   0.059   2.796   6.189 -2.0213  1.6646  1.4645
 5603TIP3    H238301   0.099   2.933   6.140  0.7379  0.0314 -0.9975
 5604TIP3   OH238302   1.261   3.104   0.184  0.4296  0.1010 -0.2972
 5604TIP3    H138303   1.240   3.196   0.166 -0.3898 -0.2267 -1.0476
 5604TIP3    H238304   1.222   3.056   0.111  0.2784 -0.9119  0.4465
 5605TIP3   OH238305   6.379   3.247   3.372  0.1091  0.2697 -0.0974
 5605TIP3    H138306   6.356   3.290   3.290  0.9301 -0.9183 -0.9690
 5605TIP3    H238307   6.460   3.290   3.400  0.8847 -0.6222 -0.9252
 5606TIP3   OH238308   4.445   2.714  17.117  0.0351 -0.0945 -0.6670
 5606TIP3    H138309   4.506   2.656  17.072  0.2882 -1.0077  0.8186
 5606TIP3    H238310   4.413   2.662  17.190 -2.5745  0.3514 -1.4459
 5607TIP3   OH238311   3.534   3.494  10.977 -0.4927 -0.1355 -0.2364
 5607TIP3    H138312   3.470   3.439  10.931  1.0887 -3.0289  0.8653
 5607TIP3    H238313   3.612   3.491  10.923 -0.2421  0.6368  0.0813
 5608TIP3   OH238314   6.296   3.172   4.851 -0.0113  0.0930 -0.3786
 5608TIP3    H138315   6.369   3.234   4.845 -0.0949  0.1179 -1.3157
 5608TIP3    H238316   6.254   3.177   4.765 -1.2778  0.2678  0.2428
 5609TIP3   OH238317   3.617   3.558  15.772  0.3783 -0.5859  0.2387
 5609TIP3    H138318   3.644   3.479  15.819  1.2448 -0.3407  0.1681
 5609TIP3    H238319   3.586   3.617  15.841  1.4650 -0.2979  0.4935
 5610TIP3   OH238320   4.651   3.828  15.668  0.2340  0.0457 -0.1118
 5610TIP3    H138321   4.645   3.772  15.746 -1.1469  1.1749  0.6213
 5610TIP3    H238322   4.560   3.854  15.651  0.8498  2.0121 -0.4687
 5611TIP3   OH238323   4.107   3.987   3.393  0.5801 -0.1580  0.1621
 5611TIP3    H138324   4.062   4.040   3.327  1.3721 -0.3145 -0.4984
 5611TIP3    H238325   4.036   3.949   3.445 -0.0416  0.0931 -0.4962
 5612TIP3   OH238326   6.193   6.077  14.776  0.3194  0.3605  0.0885
 5612TIP3    H138327   6.280   6.060  14.812  0.2706 -0.9818 -0.3971
 5612TIP3    H238328   6.208   6.146  14.711  1.1366 -0.2689 -0.4158
 5613TIP3   OH238329   1.610   6.567  15.267  0.0135  0.3897  0.0045
 5613TIP3    H138330   1.683   6.526  15.221  0.0948 -0.5771  0.9833
 5613TIP3    H238331   1.603   6.654  15.228  2.1787  0.7875  0.4401
 5614TIP3   OH238332   0.566   2.512   0.280  0.1627 -0.7556 -0.0151
 5614TIP3    H138333   0.488   2.456   0.283 -0.1664 -0.2367  1.4885
 5614TIP3    H238334   0.531   2.601   0.292  1.0694 -0.6129  1.7607
 5615TIP3   OH238335   6.606   6.772  11.692 -0.1082  0.2637  0.1146
 5615TIP3    H138336   6.562   6.820  11.762 -1.1170 -2.0922  1.1505
 5615TIP3    H238337   6.678   6.727  11.735  0.2531  0.1013 -0.6549
 5616TIP3   OH238338   5.407   6.787   4.121 -0.0732  0.2106  0.0189
 5616TIP3    H138339   5.347   6.738   4.064  3.1512 -0.6751 -2.8233
 5616TIP3    H238340   5.389   6.879   4.101  0.4733 -0.0748 -1.9301
 5617TIP3   OH238341   5.556   4.242  15.517  0.0466 -0.8353  0.4387
 5617TIP3    H138342   5.557   4.171  15.580  0.8364 -2.7195 -1.6448
 5617TIP3    H238343   5.646   4.246  15.484 -0.1917  0.5729 -0.0772
 5618TIP3   OH238344   3.797   2.914  14.291 -0.1559  0.5059  0.5373
 5618TIP3    H138345   3.792   2.982  14.223 -2.5975  1.0631  1.2451
 5618TIP3    H238346   3.710   2.877  14.294  1.2261 -2.9334 -0.0154
 5619TIP3   OH238347   1.832   5.475  15.831 -0.1027  0.3888  0.1544
 5619TIP3    H138348   1.891   5.485  15.756  0.0323 -0.6701  0.1205
 5619TIP3    H238349   1.862   5.542  15.893  0.4117  0.6146 -0.3273
 5620TIP3   OH238350   0.812   4.174  15.019 -0.2660 -0.1070  0.0297
 5620TIP3    H138351   0.876   4.109  15.045  0.3681 -0.0284 -1.3314
 5620TIP3    H238352   0.841   4.255  15.061  1.6232  0.3701 -2.0916
 5621TIP3   OH238353   4.002   0.270  15.520  0.1571 -0.2405  0.4554
 5621TIP3    H138354   4.060   0.293  15.448  1.3210 -1.7994  0.8741
 5621TIP3    H238355   4.005   0.174  15.523 -1.3411 -0.2696  1.3840
 5622TIP3   OH238356   5.756   4.834  16.327 -0.3905 -0.2185  0.2638
 5622TIP3    H138357   5.702   4.817  16.404  1.5410 -2.7242  1.1222
 5622TIP3    H238358   5.722   4.775  16.260 -0.4260  0.1473 -0.0466
 5623TIP3   OH238359   4.523   1.385  15.156  0.5133 -0.2709 -0.1246
 5623TIP3    H138360   4.564   1.321  15.098 -0.7322 -0.8893 -0.3446
 5623TIP3    H238361   4.574   1.381  15.237  0.5362 -1.4322 -0.1904
 5624TIP3   OH238362   4.298   4.520  16.826 -0.0125  0.3976  0.8098
 5624TIP3    H138363   4.262   4.463  16.893 -0.0555  0.2334  0.6458
 5624TIP3    H238364   4.222   4.546  16.773  0.4065 -1.8120 -0.9657
 5625TIP3   OH238365   6.791   2.810   2.386  0.0277  1.1928 -1.1152
 5625TIP3    H138366   6.788   2.719   2.417  0.8391  0.6054 -2.6633
 5625TIP3    H238367   6.709   2.822   2.339  0.8026  0.5720 -2.6703
 5626TIP3   OH238368   0.609   4.869  11.662  0.1656 -0.2255 -0.2692
 5626TIP3    H138369   0.593   4.817  11.583  0.7799 -0.3704 -0.2989
 5626TIP3    H238370   0.531   4.855  11.716 -0.0715 -0.4560 -0.6688
 5627TIP3   OH238371   3.704   5.413  11.247  0.1745  1.0100  0.6167
 5627TIP3    H138372   3.687   5.325  11.213  0.7687  1.2653 -0.3649
 5627TIP3    H238373   3.739   5.461  11.172  1.2119  1.6765  1.5265
 5628TIP3   OH238374   5.651   6.314  12.748  0.1069  0.3283  0.4414
 5628TIP3    H138375   5.697   6.239  12.709  1.5370  1.4487 -0.0597
 5628TIP3    H238376   5.593   6.345  12.678 -0.2209 -0.0775  0.5290
 5629TIP3   OH238377   6.553   0.658  12.254  0.1326  0.6630  0.3107
 5629TIP3    H138378   6.526   0.566  12.250 -0.6510  0.9160 -0.5490
 5629TIP3    H238379   6.638   0.657  12.297  0.3444 -0.5178 -0.1235
 5630TIP3   OH238380   2.993   5.195   5.004 -0.5211  0.7704 -0.5141
 5630TIP3    H138381   3.081   5.162   5.020 -1.0910 -0.2170  0.6469
 5630TIP3    H238382   2.975   5.170   4.913 -0.0335 -0.0383 -0.3985
 5631TIP3   OH238383   5.533   2.132   4.837 -0.3832 -0.1454 -0.3710
 5631TIP3    H138384   5.479   2.121   4.759 -0.7178 -0.1829 -0.1375
 5631TIP3    H238385   5.611   2.179   4.806 -2.0883  3.0114 -0.1174
 5632TIP3   OH238386   1.039   6.572   3.574  0.3924  0.1877  0.6900
 5632TIP3    H138387   1.128   6.588   3.603  1.0423 -1.0152 -0.5897
 5632TIP3    H238388   1.036   6.479   3.552 -1.4044  0.0251  1.4802
 5633TIP3   OH238389   4.964   1.295  12.115 -0.3736 -0.5929  0.0336
 5633TIP3    H138390   4.880   1.256  12.094 -0.2404 -0.3549 -0.9804
 5633TIP3    H238391   4.956   1.387  12.089 -0.0210 -0.4181  0.5327
 5634TIP3   OH238392   0.041   6.701   4.819 -0.4724  0.0134  0.1044
 5634TIP3    H138393   0.031   6.630   4.882 -0.2066 -0.7667 -0.7187
 5634TIP3    H238394  -0.048   6.729   4.799 -0.5793 -0.1124  0.4082
 5635TIP3   OH238395   4.874   1.674   4.258 -0.4280 -0.1506  0.0663
 5635TIP3    H138396   4.811   1.675   4.330  0.0507  0.4893  0.4935
 5635TIP3    H238397   4.931   1.749   4.276  0.5533 -0.8208 -0.2185
 5636TIP3   OH238398   2.754   2.939   6.244 -0.1175 -0.6607 -0.4474
 5636TIP3    H138399   2.814   2.884   6.193  1.5360  0.9699 -0.3383
 5636TIP3    H238400   2.693   2.877   6.284  1.0866 -2.3351 -1.1129
 5637TIP3   OH238401   1.120   2.593   5.225 -0.8797 -0.3421 -0.2346
 5637TIP3    H138402   1.176   2.670   5.237  1.0343 -1.8224  0.6283
 5637TIP3    H238403   1.041   2.627   5.183  0.3306  1.9287 -0.7570
 5638TIP3   OH238404   5.468   6.109   5.219 -0.3327  0.4330 -0.9403
 5638TIP3    H138405   5.446   6.145   5.305 -0.3717 -2.7072  0.4358
 5638TIP3    H238406   5.387   6.069   5.189  0.8090 -2.4008 -0.3735
 5639TIP3   OH238407   4.976   2.255   3.740 -0.0965 -0.5081 -0.2417
 5639TIP3    H138408   4.913   2.184   3.737 -1.0756  0.3578 -0.4158
 5639TIP3    H238409   5.016   2.255   3.652  1.1664 -1.9434  0.3074
 5640TIP3   OH238410   3.672   0.529   2.070  0.0394 -0.1721 -0.0924
 5640TIP3    H138411   3.696   0.590   2.140  1.2708  0.1721 -0.8003
 5640TIP3    H238412   3.637   0.586   2.001 -1.2815 -0.5195  0.2755
 5641TIP3   OH238413   1.016   4.633   3.778 -0.1979  0.5890 -0.2339
 5641TIP3    H138414   0.991   4.541   3.791  0.7697  0.3067 -0.3462
 5641TIP3    H238415   1.009   4.671   3.866  0.4233  0.1493  0.0138
 5642TIP3   OH238416   1.025   1.053   1.351 -0.5279 -0.0990 -0.1034
 5642TIP3    H138417   0.986   1.134   1.383 -0.5130  0.0246 -0.3966
 5642TIP3    H238418   0.970   0.984   1.388 -1.4743  0.0976 -1.0995
 5643TIP3   OH238419   6.593   4.244   3.107 -0.1624 -0.1667  0.0980
 5643TIP3    H138420   6.532   4.300   3.059 -1.8171 -0.6704  1.5485
 5643TIP3    H238421   6.648   4.306   3.155  0.1599  0.2836 -0.8343
 5644TIP3   OH238422   1.742   4.085   0.687  0.1647 -0.2386 -0.5000
 5644TIP3    H138423   1.691   4.083   0.606 -0.8986 -2.1875  0.1592
 5644TIP3    H238424   1.787   4.000   0.689  1.9097  0.6866 -0.1215
 5645TIP3   OH238425   4.714   4.530   4.025  0.4522  0.4019  0.6202
 5645TIP3    H138426   4.798   4.488   4.044  1.2700  2.6934  2.3462
 5645TIP3    H238427   4.660   4.509   4.101  0.3535  1.1568  0.7601
 5646TIP3   OH238428   5.007   2.225  13.731  0.3956 -0.2258  0.3201
 5646TIP3    H138429   5.021   2.209  13.824 -0.2587 -0.2582  0.4150
 5646TIP3    H238430   5.007   2.321  13.723  0.6172 -0.2254  0.3280
 5647TIP3   OH238431   5.800   1.670  14.131  0.1874 -0.0449 -0.2662
 5647TIP3    H138432   5.864   1.599  14.135  0.8013  0.3618 -2.1477
 5647TIP3    H238433   5.789   1.687  14.038 -2.5687  0.0173  0.0423
 5648TIP3   OH238434   3.837   1.078   2.306  0.0101 -0.3653  0.3828
 5648TIP3    H138435   3.918   1.096   2.353  0.5243 -0.5141 -0.4236
 5648TIP3    H238436   3.864   1.025   2.231 -0.7898 -0.1573 -0.0628
 5649TIP3   OH238437   5.158   3.171   6.629  0.5755 -0.7028 -0.3740
 5649TIP3    H138438   5.186   3.166   6.538 -0.2581 -0.2924 -0.6536
 5649TIP3    H238439   5.220   3.115   6.676  0.8137 -1.1634 -1.2320
 5650TIP3   OH238440   4.924   3.164   5.243  0.1169  0.4318 -0.4114
 5650TIP3    H138441   4.953   3.156   5.334 -0.6314 -0.9276 -0.2763
 5650TIP3    H238442   4.834   3.198   5.249 -0.2766 -0.5687 -0.5967
 5651TIP3   OH238443   6.405   0.143   2.552  0.2608 -0.2104  0.1833
 5651TIP3    H138444   6.429   0.093   2.474 -1.8182  1.4715 -1.5841
 5651TIP3    H238445   6.310   0.135   2.558  0.1353  1.7340  1.1250
 5652TIP3   OH238446   2.663   2.336   2.474 -0.3633 -0.6388  0.8136
 5652TIP3    H138447   2.747   2.317   2.431  0.3176  0.9495  1.4056
 5652TIP3    H238448   2.686   2.391   2.549 -1.8496 -0.9512  1.5195
 5653TIP3   OH238449   3.275   3.087  16.019 -0.2553 -0.4931 -0.0134
 5653TIP3    H138450   3.335   3.037  15.964  1.1908  0.6152  0.5158
 5653TIP3    H238451   3.263   3.169  15.972 -0.3121 -0.1933  0.5226
 5654TIP3   OH238452   6.574   6.804   7.052  0.4342  0.1077 -0.0786
 5654TIP3    H138453   6.492   6.758   7.071  1.2554 -1.5561 -0.4419
 5654TIP3    H238454   6.556   6.895   7.075 -0.6171 -0.7191  2.5390
 5655TIP3   OH238455   3.530   5.534  12.602 -0.0153 -0.0337  0.0448
 5655TIP3    H138456   3.447   5.556  12.644  0.4113  0.9038  0.4001
 5655TIP3    H238457   3.590   5.517  12.674  0.1076 -0.6988 -0.2139
 5656TIP3   OH238458   5.137   1.803   2.713  0.2835 -0.3585  0.2826
 5656TIP3    H138459   5.138   1.781   2.806  0.6269  0.6820  0.5311
 5656TIP3    H238460   5.108   1.894   2.710 -0.1312 -0.5129 -0.6632
 5657TIP3   OH238461   5.429   2.011  16.892  0.4473 -0.5393  0.5907
 5657TIP3    H138462   5.407   1.918  16.902  2.6368 -0.9533  1.8156
 5657TIP3    H238463   5.442   2.042  16.981  0.9722  0.6416  0.1026
 5658TIP3   OH238464   6.400   0.843   2.567  0.5706  0.8436 -0.2907
 5658TIP3    H138465   6.493   0.861   2.582  1.1837 -2.0346 -0.3396
 5658TIP3    H238466   6.362   0.840   2.655  0.2194  3.2694 -0.3156
 5659TIP3   OH238467   1.156   2.827   0.526 -0.5168 -0.1473 -0.7919
 5659TIP3    H138468   1.215   2.841   0.599 -1.1802  0.5754 -0.3887
 5659TIP3    H238469   1.151   2.732   0.516 -0.2726 -0.2364 -0.0298
 5660TIP3   OH238470   3.083   3.742   3.757  0.1061  0.0836 -0.4935
 5660TIP3    H138471   3.139   3.800   3.808 -0.7908 -0.6207  1.3519
 5660TIP3    H238472   2.995   3.761   3.787 -0.3657 -0.9396 -1.1913
 5661TIP3   OH238473   4.554   4.680   3.856  0.2585 -0.4616 -0.4829
 5661TIP3    H138474   4.605   4.630   3.919  1.4116  0.9579 -0.2504
 5661TIP3    H238475   4.470   4.695   3.899  1.4572  1.5508  1.2735
 5662TIP3   OH238476   4.793   3.105   2.653  0.1593 -0.0342  0.4300
 5662TIP3    H138477   4.799   3.197   2.681  1.3922  0.7036 -2.1048
 5662TIP3    H238478   4.754   3.110   2.565  1.9949 -1.7908 -0.4963
 5663TIP3   OH238479   3.405   4.576  13.978 -0.5254  0.4135 -0.8040
 5663TIP3    H138480   3.498   4.599  13.977 -0.9478  2.2866 -0.1506
 5663TIP3    H238481   3.395   4.514  13.906  1.1193  0.6805 -1.2912
 5664TIP3   OH238482   4.759   4.099   2.182  0.1076  0.3735  0.1530
 5664TIP3    H138483   4.855   4.095   2.184  0.1733  2.0588  1.3071
 5664TIP3    H238484   4.733   4.083   2.273 -0.7569 -1.0317 -0.3375
 5665TIP3   OH238485   3.224   4.367   0.427  0.0350 -0.1210 -0.1008
 5665TIP3    H138486   3.189   4.278   0.433 -0.8417  0.1937 -0.4266
 5665TIP3    H238487   3.148   4.421   0.404  0.6240  0.6637 -0.2266
 5666TIP3   OH238488   5.925   0.456   1.565  0.0298  0.7456 -0.3305
 5666TIP3    H138489   5.847   0.507   1.545 -0.4038 -0.5456 -2.0794
 5666TIP3    H238490   5.895   0.365   1.565  0.8379  0.4267  2.4347
 5667TIP3   OH238491   1.527   3.913  11.890 -0.0086  0.2928  0.2074
 5667TIP3    H138492   1.503   4.006  11.893 -2.2345 -0.2213 -0.7593
 5667TIP3    H238493   1.468   3.871  11.952  0.3800 -0.6260 -0.0355
 5668TIP3   OH238494   1.557   3.240  10.811 -0.8338 -0.0571 -0.5391
 5668TIP3    H138495   1.474   3.196  10.793 -1.7167  1.4092 -0.1885
 5668TIP3    H238496   1.531   3.326  10.846  0.8243  0.0994  0.3747
 5669TIP3   OH238497   4.769   6.647  11.513  0.4644  0.1427 -0.5357
 5669TIP3    H138498   4.842   6.707  11.498 -0.4954  1.0481 -1.7347
 5669TIP3    H238499   4.808   6.560  11.510  1.5259  0.6219 -0.9443
 5670TIP3   OH238500   4.148   4.952   6.266  0.1800  0.3193  0.4506
 5670TIP3    H138501   4.116   5.041   6.254 -2.3911 -0.7022 -0.6462
 5670TIP3    H238502   4.085   4.912   6.326 -0.2600 -1.5377 -1.1884
 5671TIP3   OH238503   6.417   4.753   4.541 -0.2269  0.3415 -0.0946
 5671TIP3    H138504   6.513   4.755   4.539 -0.2019  1.8580  1.3247
 5671TIP3    H238505   6.392   4.720   4.455  1.6046 -2.5901  0.4084
 5672TIP3   OH238506   2.627   1.075  13.502  0.0479 -0.3484  0.3554
 5672TIP3    H138507   2.696   1.032  13.453 -0.3749 -0.2860 -0.2958
 5672TIP3    H238508   2.614   1.020  13.579 -0.3197 -1.2625 -0.3525
 5673TIP3   OH238509   0.917   4.889  10.647  0.1075 -0.3901 -0.1677
 5673TIP3    H138510   1.001   4.860  10.610  0.6116  0.9803 -0.0982
 5673TIP3    H238511   0.938   4.917  10.736 -0.2364  0.9904 -0.5179
 5674TIP3   OH238512   2.530   4.947  10.478 -0.3099  0.6001 -0.4287
 5674TIP3    H138513   2.512   4.853  10.484 -0.7692  0.7085 -0.0484
 5674TIP3    H238514   2.610   4.953  10.426 -0.1385 -0.0128 -0.2350
 5675TIP3   OH238515   5.446   1.339   4.418 -0.6318 -0.0526  0.2686
 5675TIP3    H138516   5.439   1.266   4.479  1.3786  0.1835  0.8035
 5675TIP3    H238517   5.381   1.403   4.450 -1.3656 -0.9762  0.6468
 5676TIP3   OH238518   5.488   6.564   6.769  0.6618  0.0627 -0.2142
 5676TIP3    H138519   5.412   6.580   6.713 -0.1493 -0.8761  0.6004
 5676TIP3    H238520   5.551   6.521   6.711  0.7936  1.2987 -1.0260
 5677TIP3   OH238521   2.879   5.289  12.621 -0.4012 -0.3339 -0.6325
 5677TIP3    H138522   2.947   5.226  12.647  0.3095 -0.2198 -2.1552
 5677TIP3    H238523   2.927   5.356  12.573 -1.4188  0.4402 -0.5677
 5678TIP3   OH238524   6.479   3.346  13.388  0.3754 -0.6324  0.5936
 5678TIP3    H138525   6.388   3.315  13.382  0.0628  0.3111  0.4596
 5678TIP3    H238526   6.472   3.435  13.422  1.2056 -0.3000 -0.0875
 5679TIP3   OH238527   2.069   0.340  12.100  0.3458 -0.5891 -0.2569
 5679TIP3    H138528   2.133   0.402  12.063  1.3470 -2.6012 -1.9723
 5679TIP3    H238529   1.993   0.394  12.121  1.6052  1.4117 -0.6961
 5680TIP3   OH238530   5.721   1.315  16.750 -0.3712  0.4493  0.3158
 5680TIP3    H138531   5.631   1.345  16.755 -0.5528 -0.3712  2.3616
 5680TIP3    H238532   5.715   1.223  16.724 -0.2194 -0.0638  2.0561
 5681TIP3   OH238533   4.697   3.544  14.324 -0.1761  0.5492 -0.1523
 5681TIP3    H138534   4.635   3.513  14.389  0.5002 -0.5078  0.0081
 5681TIP3    H238535   4.676   3.637  14.312 -0.3441  0.7293  1.5054
 5682TIP3   OH238536   3.532   0.858  11.114  0.4399  0.1659 -0.4527
 5682TIP3    H138537   3.466   0.789  11.125  1.1001 -0.5915 -1.2374
 5682TIP3    H238538   3.607   0.813  11.075  1.3824  1.0492  0.3283
 5683TIP3   OH238539   3.680   5.037   3.999  0.4289  0.3760  0.1904
 5683TIP3    H138540   3.629   4.958   4.017 -2.3467  1.6703 -1.4618
 5683TIP3    H238541   3.716   5.023   3.912 -1.8337  1.7031 -1.0234
 5684TIP3   OH238542   1.656   3.772  15.049  0.0135 -0.3337 -0.6174
 5684TIP3    H138543   1.593   3.829  15.005 -1.7803 -2.1543 -0.4271
 5684TIP3    H238544   1.734   3.827  15.059 -1.9821  2.4484  0.4602
 5685TIP3   OH238545   6.382   2.447  15.861  0.2511  0.4349 -0.3778
 5685TIP3    H138546   6.476   2.463  15.868  0.3883 -0.3254 -0.3859
 5685TIP3    H238547   6.361   2.470  15.771  0.4762  0.3825 -0.4445
 5686TIP3   OH238548   6.714   0.465  14.560  0.2193 -0.0910 -0.0570
 5686TIP3    H138549   6.627   0.502  14.549  0.2546 -0.3146 -1.1047
 5686TIP3    H238550   6.772   0.541  14.570  0.0763  0.0904 -0.6230
 5687TIP3   OH238551   5.714   4.946  12.647 -0.1588 -0.3071 -0.3343
 5687TIP3    H138552   5.647   4.939  12.579  0.3458 -0.5380 -0.8123
 5687TIP3    H238553   5.670   4.991  12.719 -1.0723 -1.1804 -0.3213
 5688TIP3   OH238554   1.888   0.571   5.095 -0.8067 -0.8621 -0.8672
 5688TIP3    H138555   1.983   0.567   5.105 -0.7269 -1.1455 -1.7076
 5688TIP3    H238556   1.863   0.656   5.133 -0.5656 -2.0291  1.9657
 5689TIP3   OH238557   0.110   3.189  13.198  0.1825  0.4470 -0.3711
 5689TIP3    H138558   0.090   3.243  13.121 -0.2173  0.8719  0.0328
 5689TIP3    H238559   0.191   3.143  13.174 -0.0014  0.4835 -1.0948
 5690TIP3   OH238560   5.463   3.854  15.188  0.7281  0.4466 -0.0601
 5690TIP3    H138561   5.375   3.843  15.152  1.5598 -0.5902 -1.8053
 5690TIP3    H238562   5.453   3.838  15.282 -0.6430 -1.3816 -0.4983
 5691TIP3   OH238563   0.292   6.244  14.912  0.1735  0.4321  0.3477
 5691TIP3    H138564   0.212   6.192  14.907  0.0826  0.6784 -1.0730
 5691TIP3    H238565   0.361   6.182  14.936 -0.0407 -0.2300 -0.7141
 5692TIP3   OH238566   0.957   4.422   0.488  0.1416  0.0948  0.2510
 5692TIP3    H138567   0.976   4.489   0.422 -0.5940  1.4769  1.4031
 5692TIP3    H238568   0.862   4.411   0.485  0.2195 -0.6215  0.3434
 5693TIP3   OH238569   4.975   1.899   3.617 -0.7384  0.1016 -0.2285
 5693TIP3    H138570   4.955   1.814   3.654 -1.1791 -0.2702 -1.2844
 5693TIP3    H238571   5.067   1.914   3.638 -0.7174 -0.5396  0.1316
 5694TIP3   OH238572   1.792   5.092   3.549 -0.0812  0.2703  0.3252
 5694TIP3    H138573   1.710   5.043   3.538  0.8439 -1.0212 -0.9120
 5694TIP3    H238574   1.820   5.114   3.461  0.3161  1.7378  0.7998
 5695TIP3   OH238575   3.924   4.923  16.849 -0.4179  0.0782  0.5892
 5695TIP3    H138576   3.984   4.997  16.835 -0.0501 -0.7097 -2.4201
 5695TIP3    H238577   3.837   4.962  16.846 -0.3124  0.1781 -3.1209
 5696TIP3   OH238578   6.136   5.559  16.702  0.1926  0.7163  0.0250
 5696TIP3    H138579   6.119   5.644  16.741  2.4164  1.0198  0.4244
 5696TIP3    H238580   6.224   5.567  16.665 -0.6484 -0.5432 -2.3626
 5697TIP3   OH238581   3.228   6.785   2.606  0.0596  0.0831 -0.1443
 5697TIP3    H138582   3.275   6.847   2.551 -0.8262 -0.1105 -1.1318
 5697TIP3    H238583   3.149   6.764   2.556 -0.7031 -0.1735  1.1540
 5698TIP3   OH238584   5.997   1.409  16.224  0.1252  0.0974  0.4386
 5698TIP3    H138585   6.020   1.441  16.312  1.2967  1.0259 -0.1879
 5698TIP3    H238586   5.983   1.489  16.173  0.9640 -0.4090 -0.6048
 5699TIP3   OH238587   3.426   2.744  11.451  0.1448  0.1954  0.1296
 5699TIP3    H138588   3.371   2.796  11.393 -1.5094 -0.4082  1.1494
 5699TIP3    H238589   3.457   2.806  11.517  0.6122  0.5085 -0.3790
 5700TIP3   OH238590   4.786   2.948  16.107 -0.1604 -0.4092 -0.1701
 5700TIP3    H138591   4.716   2.995  16.152 -0.8261 -0.4820 -1.1111
 5700TIP3    H238592   4.856   3.013  16.098 -0.5508  0.0070 -0.2543
 5701TIP3   OH238593   5.969   4.411   2.258 -0.6890  0.0315 -0.4986
 5701TIP3    H138594   5.987   4.427   2.350 -0.0849 -0.2350 -0.5652
 5701TIP3    H238595   5.949   4.317   2.253 -0.4765 -0.0071 -0.6695
 5702TIP3   OH238596   5.612   1.102  13.441 -0.0167 -0.7812  0.2465
 5702TIP3    H138597   5.655   1.072  13.521 -0.4690 -2.3818 -0.0826
 5702TIP3    H238598   5.580   1.021  13.400 -1.4703  0.1820 -0.5731
 5703TIP3   OH238599   5.400   1.738  16.986  0.6542 -0.2556 -0.0273
 5703TIP3    H138600   5.432   1.651  16.961 -1.0172 -0.9696  0.2284
 5703TIP3    H238601   5.430   1.750  17.076 -0.7800 -1.4464  0.6448
 5704TIP3   OH238602   4.227   4.662  13.117 -0.4116  0.9539  0.1702
 5704TIP3    H138603   4.247   4.583  13.067 -1.4288  0.2840  0.7871
 5704TIP3    H238604   4.294   4.725  13.092  0.1849  0.0104 -0.6158
 5705TIP3   OH238605   6.341   0.533   2.775  0.1676  0.1933 -0.0901
 5705TIP3    H138606   6.377   0.621   2.765  0.7680  0.1195  1.3608
 5705TIP3    H238607   6.412   0.475   2.750  0.7116  0.0680  1.7361
 5706TIP3   OH238608   6.148   2.284   0.653 -0.4157  0.5912  0.4867
 5706TIP3    H138609   6.139   2.365   0.704  1.9817 -0.2429  2.3292
 5706TIP3    H238610   6.242   2.265   0.654 -1.0634 -3.0004  1.4548
 5707TIP3   OH238611   2.930   4.034  13.769 -0.1727 -0.6136 -0.0594
 5707TIP3    H138612   2.925   4.051  13.863  1.9259 -0.9000  0.1356
 5707TIP3    H238613   2.978   3.951  13.762  2.0273  0.7176 -1.4456
 5708TIP3   OH238614   4.176   3.386  16.553 -0.3627  0.0748 -0.0091
 5708TIP3    H138615   4.224   3.407  16.633 -0.8884 -1.4445  0.7267
 5708TIP3    H238616   4.241   3.390  16.483  0.3651  0.1453  0.6676
 5709TIP3   OH238617   2.233   2.361   3.341 -0.2196 -0.1413 -0.3001
 5709TIP3    H138618   2.242   2.357   3.246 -1.2145 -2.0332 -0.3444
 5709TIP3    H238619   2.282   2.439   3.367 -0.4149  0.7136 -2.4167
 5710TIP3   OH238620   1.055   1.386  12.114  0.3777 -0.2183 -0.3554
 5710TIP3    H138621   0.965   1.355  12.125  0.2736 -0.1318 -0.9608
 5710TIP3    H238622   1.062   1.460  12.174  0.1524 -0.4437 -0.0496
 5711TIP3   OH238623   1.986   4.655  16.882 -0.7625 -0.3817 -1.0036
 5711TIP3    H138624   1.939   4.576  16.907 -1.7863  0.0978 -1.4001
 5711TIP3    H238625   1.965   4.718  16.951  0.2984 -0.5290 -0.5174
 5712TIP3   OH238626   5.739   4.475   4.912  0.0706  0.1792 -0.4302
 5712TIP3    H138627   5.678   4.546   4.892 -0.3599  0.1326  0.6889
 5712TIP3    H238628   5.826   4.512   4.893 -0.2135  0.7059 -0.7196
 5713TIP3   OH238629   6.560   6.421  14.027  0.0056  0.0918  0.2926
 5713TIP3    H138630   6.495   6.362  14.066 -0.9433  0.9793  0.0801
 5713TIP3    H238631   6.624   6.435  14.097 -1.7375  1.7485  1.6304
 5714TIP3   OH238632   1.604   1.577   0.522 -0.3309  0.6106  0.1122
 5714TIP3    H138633   1.687   1.617   0.494  0.2135 -0.3471  0.3283
 5714TIP3    H238634   1.628   1.487   0.544 -1.5096  0.2218 -0.1914
 5715TIP3   OH238635   3.006   6.660  15.098 -0.6928 -0.2269  0.5385
 5715TIP3    H138636   2.999   6.647  15.192 -0.8203  0.9135  0.6985
 5715TIP3    H238637   2.925   6.706  15.074 -1.4142 -1.9713 -0.3989
 5716TIP3   OH238638   1.312   0.941   2.641  0.2510  0.1765 -0.1947
 5716TIP3    H138639   1.219   0.961   2.648 -0.3094 -2.3811  0.0690
 5716TIP3    H238640   1.323   0.859   2.688  2.8822  1.0598  0.8062
 5717TIP3   OH238641   5.290   0.096  12.704 -0.5402  0.3885  0.0817
 5717TIP3    H138642   5.335   0.154  12.765  1.8519 -1.8604  0.5854
 5717TIP3    H238643   5.319   0.124  12.617 -0.1785  0.5953  0.2691
 5718TIP3   OH238644   0.419   2.830  16.380 -0.0330 -0.3727  0.0310
 5718TIP3    H138645   0.482   2.835  16.308 -0.9676 -1.5779 -0.8979
 5718TIP3    H238646   0.380   2.917  16.384 -1.0378 -0.7174 -1.9007
 5719TIP3   OH238647   3.072   3.383   4.092 -0.3779 -0.3428 -0.0437
 5719TIP3    H138648   3.066   3.329   4.013 -0.7987  0.6633 -0.7123
 5719TIP3    H238649   3.162   3.371   4.122 -0.5869 -1.7394  0.0582
 5720TIP3   OH238650   6.360   2.868  14.335  0.2644  0.2498 -0.7142
 5720TIP3    H138651   6.267   2.863  14.315  0.6806 -0.5169 -2.5364
 5720TIP3    H238652   6.384   2.779  14.360  0.6688  0.2888 -0.9634
 5721TIP3   OH238653   6.664   2.063   5.213  0.1362  0.1327 -0.0501
 5721TIP3    H138654   6.736   2.125   5.203  0.3145 -0.3650 -2.0410
 5721TIP3    H238655   6.680   1.996   5.146 -1.7138 -0.4208  0.0229
 5722TIP3   OH238656   6.817   5.963   4.521  0.9963  0.2429  0.3221
 5722TIP3    H138657   6.791   5.874   4.499 -1.4258  0.8487  0.6206
 5722TIP3    H238658   6.910   5.956   4.545  1.1122 -1.9914 -0.7286
 5723TIP3   OH238659   4.709   6.402   5.623 -0.2942 -0.0218  0.6268
 5723TIP3    H138660   4.792   6.409   5.670 -0.5280  3.1700  0.6631
 5723TIP3    H238661   4.698   6.308   5.607  2.8502 -0.5712  1.4287
 5724TIP3   OH238662   2.630   2.069  13.477  0.1687  0.2328  0.2719
 5724TIP3    H138663   2.697   2.132  13.503  0.8965 -0.8616  1.1455
 5724TIP3    H238664   2.568   2.068  13.550 -0.8462  1.2863 -0.5627
 5725TIP3   OH238665   3.206   5.798  14.903  0.1387 -0.2915 -0.5067
 5725TIP3    H138666   3.294   5.813  14.867 -0.7073 -1.8639 -3.4315
 5725TIP3    H238667   3.163   5.883  14.897  1.2589  0.3480  0.3562
 5726TIP3   OH238668   2.955   5.984   5.568  0.0009 -0.3061 -0.4328
 5726TIP3    H138669   2.902   5.919   5.614  2.5942 -2.5111 -0.4572
 5726TIP3    H238670   3.031   5.998   5.626  1.1683  0.1254 -2.0398
 5727TIP3   OH238671   2.389   0.744   1.418 -0.0608  0.3926  0.5382
 5727TIP3    H138672   2.440   0.701   1.349 -1.1732 -1.7547  1.0329
 5727TIP3    H238673   2.454   0.794   1.468  0.9705  0.7821 -1.1376
 5728TIP3   OH238674   0.868   0.798  11.379 -0.6558  0.8493  0.1330
 5728TIP3    H138675   0.933   0.854  11.423 -0.6720  1.0980 -0.1556
 5728TIP3    H238676   0.917   0.721  11.352 -0.5554  0.8797  0.2267
 5729TIP3   OH238677   1.876   2.880   1.340 -0.6901  0.1474 -0.9507
 5729TIP3    H138678   1.863   2.785   1.332 -0.5062  0.1685 -1.4842
 5729TIP3    H238679   1.933   2.903   1.267  1.1278  0.3000  0.4530
 5730TIP3   OH238680   3.543   4.785   4.107 -0.4014  0.2844  0.4703
 5730TIP3    H138681   3.584   4.728   4.042 -2.3453  0.0684 -0.6101
 5730TIP3    H238682   3.574   4.752   4.191  1.1143 -0.2533 -0.2823
 5731TIP3   OH238683   3.684   1.302   3.870  0.0573 -0.1356  0.1208
 5731TIP3    H138684   3.689   1.219   3.823  1.0076  0.4126 -0.7749
 5731TIP3    H238685   3.766   1.307   3.918  1.4649  1.7419 -2.3585
 5732TIP3   OH238686   0.298   5.353  15.087  0.0928  0.7344  0.0868
 5732TIP3    H138687   0.294   5.448  15.078  4.5499  1.1269  1.2615
 5732TIP3    H238688   0.227   5.332  15.148 -1.4028  3.1805 -0.7305
 5733TIP3   OH238689   4.734   2.688   5.010 -0.1451  0.1391  0.0271
 5733TIP3    H138690   4.803   2.643   5.060 -0.5399 -0.9688 -0.4040
 5733TIP3    H238691   4.780   2.753   4.958  0.5957 -0.6690 -0.3429
 5734TIP3   OH238692   5.655   4.293  14.772  0.4392  0.2275  0.3514
 5734TIP3    H138693   5.628   4.239  14.847 -0.5389  0.1915 -0.0253
 5734TIP3    H238694   5.747   4.271  14.759 -0.3670 -2.6183 -0.8516
 5735TIP3   OH238695   5.953   0.342   3.244  0.1127  0.1588 -0.1580
 5735TIP3    H138696   5.926   0.316   3.156 -0.9431  0.2088  0.1361
 5735TIP3    H238697   5.978   0.260   3.286 -2.2427 -0.2978  0.4411
 5736TIP3   OH238698   1.826   6.511  15.816 -0.0665  0.1666 -0.4181
 5736TIP3    H138699   1.859   6.591  15.857 -1.9496  0.8127 -0.1030
 5736TIP3    H238700   1.733   6.527  15.803 -0.1942 -1.4234 -1.7024
 5737TIP3   OH238701   2.626   2.484   5.451 -0.2857 -0.2324  0.4394
 5737TIP3    H138702   2.620   2.552   5.518  0.3375  1.0831 -0.8086
 5737TIP3    H238703   2.561   2.419   5.477  0.4919 -0.1592  2.7657
 5738TIP3   OH238704   0.544   4.008  16.521  0.4221 -0.1183 -0.2200
 5738TIP3    H138705   0.463   3.959  16.510  0.4778 -0.7667  1.9410
 5738TIP3    H238706   0.613   3.942  16.517  0.5699 -0.1005  1.6038
 5739TIP3   OH238707   2.506   1.611  17.009 -0.4296  0.0802  0.1855
 5739TIP3    H138708   2.464   1.539  17.057 -2.2354  0.9411 -0.0758
 5739TIP3    H238709   2.556   1.658  17.075 -0.0330 -0.8321  0.5461
 5740TIP3   OH238710   3.612   0.346  16.051  0.3925  0.1722  0.5025
 5740TIP3    H138711   3.696   0.302  16.038  1.2007  1.7376  0.2563
 5740TIP3    H238712   3.616   0.422  15.993 -1.5299 -0.1620 -0.1131
 5741TIP3   OH238713   5.501   2.292  12.760  0.5899  0.2585 -0.0488
 5741TIP3    H138714   5.510   2.200  12.784 -0.0310  0.0455 -0.6039
 5741TIP3    H238715   5.424   2.294  12.703 -0.2359  1.3428  1.0833
 5742TIP3   OH238716   3.051   4.641  13.283  0.3453  0.1104 -0.3312
 5742TIP3    H138717   2.970   4.615  13.329  0.4199  2.1604  1.0037
 5742TIP3    H238718   3.024   4.711  13.225  0.7045 -0.9371 -1.7849
 5743TIP3   OH238719   6.044   5.534   3.995  0.4478  0.2760 -0.1650
 5743TIP3    H138720   6.112   5.518   4.060 -0.1377 -1.8923 -0.0423
 5743TIP3    H238721   5.962   5.533   4.045 -0.0517 -1.9557 -1.0033
 5744TIP3   OH238722   6.779   0.051  11.968 -0.0692 -0.4578  0.7433
 5744TIP3    H138723   6.811  -0.020  11.913  1.1573 -0.9217  2.0133
 5744TIP3    H238724   6.754   0.008  12.050 -2.9105  0.0634  0.1832
 5745TIP3   OH238725   6.431   1.130  13.607  0.2758  0.0501  0.7552
 5745TIP3    H138726   6.352   1.157  13.654 -0.5952 -1.5645  0.2530
 5745TIP3    H238727   6.422   1.035  13.597  1.0546  0.1887 -1.5552
 5746TIP3   OH238728   6.529   6.545  13.196 -0.1768 -0.1047  0.1360
 5746TIP3    H138729   6.536   6.602  13.120 -0.7714 -2.4541 -1.7626
 5746TIP3    H238730   6.613   6.554  13.242 -0.4111  2.5381  0.1262
 5747TIP3   OH238731   1.665   4.186   0.386  0.4725  0.3471 -0.5516
 5747TIP3    H138732   1.600   4.193   0.316  0.3893  0.0602 -0.5041
 5747TIP3    H238733   1.698   4.097   0.379 -0.7202 -0.2375  0.8151
 5748TIP3   OH238734   3.680   2.212   1.617  0.1517 -0.1537  0.1493
 5748TIP3    H138735   3.621   2.160   1.672 -1.4401  1.3934 -0.0398
 5748TIP3    H238736   3.682   2.165   1.533 -2.3257  0.7229 -0.4596
 5749TIP3   OH238737   1.453   3.107  16.658 -0.1309  0.1535  0.5183
 5749TIP3    H138738   1.480   3.194  16.689  0.9167 -0.3476  1.0416
 5749TIP3    H238739   1.533   3.068  16.625 -0.6743 -0.4834 -0.0429
 5750TIP3   OH238740   2.883   6.741   0.531 -0.3023 -0.5027  0.1716
 5750TIP3    H138741   2.969   6.768   0.563  0.8322 -2.0544 -1.4690
 5750TIP3    H238742   2.850   6.680   0.596  1.2298 -2.3103 -0.7063
 5751TIP3   OH238743   0.847   0.670   1.102 -0.1675 -0.1489 -0.1167
 5751TIP3    H138744   0.880   0.759   1.093 -0.1268 -0.0701  0.7302
 5751TIP3    H238745   0.877   0.624   1.024  1.2703  0.1297  0.2627
 5752TIP3   OH238746   1.782   0.859   3.034  0.2995  0.6998  0.7978
 5752TIP3    H138747   1.760   0.825   2.947  0.6341  0.0243  0.9803
 5752TIP3    H238748   1.711   0.920   3.054  0.3679  1.0680 -0.0689
 5753TIP3   OH238749   6.201   0.052  13.461  0.8978 -0.0376  0.8809
 5753TIP3    H138750   6.220   0.028  13.370  1.1225  0.1566  0.8767
 5753TIP3    H238751   6.173  -0.030  13.502 -1.5846  0.3282  0.0154
 5754TIP3   OH238752   4.338   1.844  12.542 -0.1905  0.1118  0.2202
 5754TIP3    H138753   4.362   1.904  12.471 -3.9624  2.1033  0.5206
 5754TIP3    H238754   4.252   1.811  12.517 -0.3784 -1.2569  2.5725
 5755TIP3   OH238755   4.081   6.310  13.848 -0.2783 -0.4227  0.3208
 5755TIP3    H138756   4.006   6.296  13.789  0.1811 -1.2618 -0.0669
 5755TIP3    H238757   4.074   6.239  13.912  0.0779 -0.3871  0.3958
 5756TIP3   OH238758   0.254   0.327  14.800  0.1410 -0.5245 -0.1978
 5756TIP3    H138759   0.298   0.342  14.883  2.0125  2.3968 -1.6428
 5756TIP3    H238760   0.174   0.380  14.805  0.5554  0.1329 -0.4795
 5757TIP3   OH238761   0.769   2.522   1.864  0.2654 -0.3174  0.3790
 5757TIP3    H138762   0.796   2.430   1.866 -1.0970 -0.7614 -0.8890
 5757TIP3    H238763   0.707   2.531   1.937  0.4991 -0.3738  0.5837
 5758TIP3   OH238764   4.950   5.661   3.205 -0.3292 -0.4957  0.5489
 5758TIP3    H138765   4.904   5.745   3.207 -1.7246 -1.2172 -0.0580
 5758TIP3    H238766   4.992   5.659   3.119  0.6430  0.0568  1.0057
 5759TIP3   OH238767   0.300   0.408  12.279 -0.1001  0.1347 -0.6385
 5759TIP3    H138768   0.223   0.426  12.225 -2.6013 -0.9800  2.4311
 5759TIP3    H238769   0.324   0.318  12.257  0.2323  0.4233 -1.4749
 5760TIP3   OH238770   3.960   5.331   3.413  0.3482 -0.3460  0.5644
 5760TIP3    H138771   3.885   5.368   3.367  0.2923  1.3042  1.9520
 5760TIP3    H238772   4.033   5.337   3.351  0.8031  3.8948  1.3825
 5761TIP3   OH238773   2.424   0.109  12.550 -0.3315 -0.0254 -0.1583
 5761TIP3    H138774   2.491   0.107  12.618 -0.2656 -2.9325 -0.2311
 5761TIP3    H238775   2.344   0.136  12.595  0.5829  2.2257  0.1814
 5762TIP3   OH238776   6.348   1.274  16.111 -0.1242 -0.2939 -0.5817
 5762TIP3    H138777   6.376   1.356  16.153  0.0733 -0.2199 -0.8524
 5762TIP3    H238778   6.278   1.301  16.051 -1.8479 -0.7062  1.2238
 5763TIP3   OH238779   6.433   0.064   1.441 -0.4287  0.7304 -0.0855
 5763TIP3    H138780   6.429  -0.003   1.373 -1.5806 -0.6675  1.3125
 5763TIP3    H238781   6.362   0.125   1.419 -0.6404  0.4203 -0.2729
 5764TIP3   OH238782   1.972   0.129  14.680  0.0011  0.0803  0.1663
 5764TIP3    H138783   2.021   0.082  14.612  0.4364 -0.1285  0.6181
 5764TIP3    H238784   1.902   0.173  14.632 -0.4308 -1.0519 -0.2643
 5765TIP3   OH238785   0.709   0.277  11.383 -0.5152 -0.5846  0.4045
 5765TIP3    H138786   0.725   0.327  11.464 -0.0167  1.5182 -0.9401
 5765TIP3    H238787   0.791   0.287  11.334 -0.5032 -2.5814  0.0031
 5766TIP3   OH238788   2.742   1.082   2.681 -0.2062 -0.0417  0.5788
 5766TIP3    H138789   2.738   1.155   2.620 -0.3530  0.2620  0.9504
 5766TIP3    H238790   2.732   1.004   2.626  2.1247  0.0976 -0.0867
 5767TIP3   OH238791   0.841   2.744  16.315  0.0248 -0.7013  0.5915
 5767TIP3    H138792   0.922   2.796  16.308 -0.7333  0.7008  1.9437
 5767TIP3    H238793   0.856   2.669  16.257  1.4913  0.5755 -0.7338
 5768TIP3   OH238794   4.481   1.924   5.193  0.9396  0.2961 -0.0131
 5768TIP3    H138795   4.509   1.953   5.106  1.5423  0.2444  0.1608
 5768TIP3    H238796   4.496   1.830   5.192  1.3200  0.3519  0.2804
 5769TIP3   OH238797   4.772   5.444  15.327 -0.1004 -1.0113 -0.4262
 5769TIP3    H138798   4.742   5.468  15.239  1.8635 -1.2834 -1.1849
 5769TIP3    H238799   4.867   5.437  15.320  0.1437 -0.5340  1.8483
 5770TIP3   OH238800   1.592   6.219   2.201 -0.3039  0.5013 -0.4258
 5770TIP3    H138801   1.576   6.170   2.120  1.4148 -0.6222 -0.1112
 5770TIP3    H238802   1.674   6.265   2.186 -0.2917  0.7760  0.4473
 5771TIP3   OH238803   4.570   3.877   3.153 -0.4353 -0.4182  0.7961
 5771TIP3    H138804   4.519   3.928   3.216 -2.0489  0.0300 -0.8160
 5771TIP3    H238805   4.571   3.788   3.189  0.4060  0.2384  2.4499
 5772TIP3   OH238806   3.169   6.144  16.894 -0.2038 -0.8240 -0.4326
 5772TIP3    H138807   3.083   6.133  16.854  0.3116  0.0416 -1.7654
 5772TIP3    H238808   3.231   6.139  16.822  0.7957 -0.2224  0.3628
 5773TIP3   OH238809   2.881   3.697   1.987 -0.3930  0.1461  0.2093
 5773TIP3    H138810   2.893   3.777   2.037  0.2176 -0.9140  1.7806
 5773TIP3    H238811   2.906   3.626   2.047 -0.4051 -1.1932 -1.3192
 5774TIP3   OH238812   3.740   3.718  11.589 -0.0468 -0.3406 -0.5452
 5774TIP3    H138813   3.704   3.699  11.502 -0.5985  0.6098 -0.5248
 5774TIP3    H238814   3.829   3.748  11.571 -0.1005 -0.3081 -0.7656
 5775TIP3   OH238815   3.589   4.560   3.281  0.1557  0.5489 -0.1220
 5775TIP3    H138816   3.626   4.640   3.245  0.2931  0.6351  0.2075
 5775TIP3    H238817   3.494   4.571   3.272  0.1599  0.9009  0.2366
 5776TIP3   OH238818   0.587   2.673  12.617 -0.3397 -0.3181 -0.2576
 5776TIP3    H138819   0.578   2.654  12.710  2.1727  2.5320  0.6517
 5776TIP3    H238820   0.661   2.621  12.588 -1.1264 -1.2129 -0.6897
 5777TIP3   OH238821   2.498   3.600  11.853  0.1396 -0.0278 -0.5782
 5777TIP3    H138822   2.577   3.607  11.800  0.4456  0.3393 -0.0791
 5777TIP3    H238823   2.438   3.664  11.816 -1.3834 -2.9177 -3.4077
 5778TIP3   OH238824   5.270   5.709   0.824  0.6814 -0.1436 -0.1242
 5778TIP3    H138825   5.258   5.750   0.739  0.1206  0.7434  0.3706
 5778TIP3    H238826   5.195   5.740   0.876  1.8627  0.5918  1.1704
 5779TIP3   OH238827   6.581   3.414   3.431 -0.0250 -0.3560  0.1726
 5779TIP3    H138828   6.572   3.486   3.493  1.7504 -1.3408  1.6275
 5779TIP3    H238829   6.655   3.438   3.376 -1.2602  0.2615 -1.2586
 5780TIP3   OH238830   4.829   3.359   2.790 -0.4021 -0.5953 -0.1552
 5780TIP3    H138831   4.842   3.318   2.875 -0.1106 -1.6290 -0.6887
 5780TIP3    H238832   4.788   3.443   2.810  1.1081 -0.1429  1.0912
 5781TIP3   OH238833   1.632   1.008  12.884  0.7404 -0.3366  0.0932
 5781TIP3    H138834   1.678   0.987  12.803 -0.9658 -0.1254 -0.9614
 5781TIP3    H238835   1.618   1.103  12.879  0.7330 -0.3071  0.6824
 5782TIP3   OH238836   2.200   2.918   5.452 -0.3600  0.6592 -0.1089
 5782TIP3    H138837   2.163   3.006   5.450 -0.2410  0.7062 -0.2696
 5782TIP3    H238838   2.126   2.861   5.472 -0.8316  0.5796 -2.0530
 5783TIP3   OH238839   0.176   4.744   2.591 -0.3641 -0.3748 -0.5161
 5783TIP3    H138840   0.104   4.807   2.588 -0.7903 -0.7740  1.0285
 5783TIP3    H238841   0.240   4.784   2.649  0.4012 -0.3045 -1.4000
 5784TIP3   OH238842   2.187   4.149   4.464  0.0760  0.5315  0.1089
 5784TIP3    H138843   2.275   4.155   4.429  0.4018  0.2138  0.8496
 5784TIP3    H238844   2.199   4.118   4.554 -0.7373  1.2256  0.4679
 5785TIP3   OH238845   2.869   2.145  14.536 -0.4479  0.0726  0.1127
 5785TIP3    H138846   2.792   2.108  14.493 -0.0910 -0.3801 -0.1534
 5785TIP3    H238847   2.893   2.221  14.483 -0.4776 -0.0204 -0.0333
 5786TIP3   OH238848   6.291   6.056  11.368 -0.0841 -0.0667 -0.1892
 5786TIP3    H138849   6.208   6.063  11.415 -0.2629 -1.0900 -0.3379
 5786TIP3    H238850   6.339   5.988  11.415  0.4974  0.2347 -0.3552
 5787TIP3   OH238851   5.531   2.246   2.184 -0.0217 -0.8552 -0.4075
 5787TIP3    H138852   5.606   2.212   2.136  0.0477 -0.2095 -0.7664
 5787TIP3    H238853   5.470   2.173   2.190 -0.2990 -0.7571 -2.0353
 5788TIP3   OH238854   4.796   5.289   3.511 -0.5783 -0.4430 -0.0897
 5788TIP3    H138855   4.847   5.237   3.573 -0.9490 -0.4968  0.1747
 5788TIP3    H238856   4.858   5.352   3.475 -0.2994 -0.5839  0.1407
 5789TIP3   OH238857   6.564   3.305   0.846 -0.1639  0.3222 -0.1757
 5789TIP3    H138858   6.591   3.241   0.912 -0.4812 -0.5567 -0.9052
 5789TIP3    H238859   6.585   3.390   0.886  0.4924 -0.2364  0.6823
 5790TIP3   OH238860   0.845   2.134   1.195  0.6658  0.0660  0.4631
 5790TIP3    H138861   0.840   2.075   1.119  3.0607 -0.0038  0.3428
 5790TIP3    H238862   0.884   2.214   1.161  1.0085  0.3254  1.4561
 5791TIP3   OH238863   5.330   5.573   2.719  0.4702  0.0281 -0.8774
 5791TIP3    H138864   5.260   5.638   2.718  0.7844  0.3641 -1.0554
 5791TIP3    H238865   5.284   5.489   2.718  0.0434  0.2416  0.2829
 5792TIP3   OH238866   1.138   0.779   0.863  0.1025 -0.2772 -0.5192
 5792TIP3    H138867   1.191   0.764   0.784 -0.4787 -0.3843 -0.8919
 5792TIP3    H238868   1.054   0.812   0.829  0.6087  1.8053  0.1626
 5793TIP3   OH238869   2.268   3.770   4.276  0.1422 -0.2914  0.3394
 5793TIP3    H138870   2.275   3.862   4.249 -0.1800 -0.1041  0.8963
 5793TIP3    H238871   2.189   3.767   4.330 -0.6066 -1.1511 -0.7642
 5794TIP3   OH238872   3.630   1.956   2.345  0.1580 -0.4272 -0.3595
 5794TIP3    H138873   3.564   1.905   2.298 -0.2226 -0.5126  0.2585
 5794TIP3    H238874   3.685   1.890   2.387  1.1425 -0.3795 -1.5313
 5795TIP3   OH238875   6.032   1.343  14.468 -0.0656 -0.4096  0.3003
 5795TIP3    H138876   5.960   1.288  14.437  0.8856 -1.6291  0.2355
 5795TIP3    H238877   6.066   1.297  14.545  0.9822 -0.1117  0.0157
 5796TIP3   OH238878   2.183   0.628  15.326 -0.5277  0.6960 -0.3857
 5796TIP3    H138879   2.256   0.683  15.356  0.5785 -0.6776 -0.5280
 5796TIP3    H238880   2.138   0.603  15.406  1.4511 -1.6108  0.0759
 5797TIP3   OH238881   4.052   0.887   3.608  0.6403  0.6706  0.0676
 5797TIP3    H138882   3.961   0.874   3.633  0.3956  0.6031 -0.8220
 5797TIP3    H238883   4.093   0.926   3.685  0.4767 -1.6769  1.3944
 5798TIP3   OH238884   0.824   6.040  11.340  0.7927 -0.0768  0.1488
 5798TIP3    H138885   0.755   6.077  11.394  0.9780  1.1120 -0.4193
 5798TIP3    H238886   0.795   5.950  11.322 -1.1583  0.7394 -0.9902
 5799TIP3   OH238887   1.875   5.325  10.970  0.3961  0.1624 -0.0507
 5799TIP3    H138888   1.894   5.273  10.892  3.7554 -0.5549  1.2022
 5799TIP3    H238889   1.906   5.413  10.948 -1.0247  0.5842 -0.4391
 5800TIP3   OH238890   6.441   0.720   5.903 -0.4515 -0.3886  0.1800
 5800TIP3    H138891   6.429   0.745   5.811  0.7158  0.2617  0.2014
 5800TIP3    H238892   6.361   0.672   5.925 -1.5102  0.9235 -0.6797
 5801TIP3   OH238893   0.146   5.566   1.168  0.1241 -0.2883  0.0721
 5801TIP3    H138894   0.184   5.486   1.131  1.0594  0.8606 -1.4981
 5801TIP3    H238895   0.197   5.637   1.129 -2.0929  1.1756 -0.2468
 5802TIP3   OH238896   3.498   0.024   3.649  0.1215 -0.1416 -0.4030
 5802TIP3    H138897   3.417   0.000   3.604  0.4605 -0.0689 -1.0571
 5802TIP3    H238898   3.546  -0.058   3.659 -0.1820 -0.2350  0.2800
 5803TIP3   OH238899   0.775   6.184   2.142 -0.6272 -0.1335 -0.1792
 5803TIP3    H138900   0.795   6.182   2.049 -2.8098 -0.4306 -0.6785
 5803TIP3    H238901   0.755   6.276   2.161  0.0129 -0.0398  0.0382
 5804TIP3   OH238902   5.724   6.074  15.254 -0.6207 -0.3866 -0.4811
 5804TIP3    H138903   5.695   5.985  15.274 -0.2359 -0.4820 -0.3487
 5804TIP3    H238904   5.643   6.123  15.239 -0.8147 -0.9132 -1.2111
 5805TIP3   OH238905   2.992   4.035  16.470 -0.1206  0.0808  0.0368
 5805TIP3    H138906   2.985   3.945  16.500  0.2338 -0.0029 -0.1315
 5805TIP3    H238907   2.997   4.029  16.375 -0.3698  0.2929  0.0077
 5806TIP3   OH238908   3.505   6.379  15.249 -0.1423 -0.3207  0.4154
 5806TIP3    H138909   3.427   6.433  15.233 -1.4483 -1.8568  1.4145
 5806TIP3    H238910   3.557   6.429  15.312 -0.0433  0.9642 -0.6674
 5807TIP3   OH238911   2.865   5.428   1.394 -0.1073 -0.3098 -0.0405
 5807TIP3    H138912   2.930   5.389   1.452  1.5641 -0.0390 -1.6822
 5807TIP3    H238913   2.789   5.445   1.451  1.4869  0.0155  2.0674
 5808TIP3   OH238914   6.425   0.684  12.521 -0.4255 -0.1306  0.8845
 5808TIP3    H138915   6.473   0.765  12.536 -1.8748  1.1115 -0.8890
 5808TIP3    H238916   6.418   0.677  12.426 -1.9859 -1.3360  1.0573
 5809TIP3   OH238917   1.705   4.270   1.325  0.0510 -0.3041  0.2373
 5809TIP3    H138918   1.789   4.288   1.367  0.4047  1.2883 -1.1278
 5809TIP3    H238919   1.644   4.256   1.398  1.3282 -0.7541  1.2360
 5810TIP3   OH238920   4.682   2.544   2.913  0.1419  0.0269 -0.2625
 5810TIP3    H138921   4.756   2.540   2.853  0.1472  1.5266 -0.3892
 5810TIP3    H238922   4.605   2.537   2.856  0.1167  2.6362 -0.6326
 5811TIP3   OH238923   3.684   6.421   0.760  0.3213  0.1765  0.4593
 5811TIP3    H138924   3.687   6.416   0.855 -0.8498 -2.5938  0.4166
 5811TIP3    H238925   3.625   6.494   0.742 -0.3316  0.0200  1.8785
 5812TIP3   OH238926   6.127   5.163  16.086 -0.0821 -0.3708 -0.2321
 5812TIP3    H138927   6.179   5.135  16.011 -0.6932 -1.7819 -0.1332
 5812TIP3    H238928   6.051   5.105  16.086 -0.4272  0.0652  1.0759
 5813TIP3   OH238929   6.580   6.162  14.604 -0.4395 -0.0439  0.2181
 5813TIP3    H138930   6.585   6.212  14.686  1.4309  1.5428 -0.8129
 5813TIP3    H238931   6.628   6.216  14.541 -1.4020 -1.5072 -1.7950
 5814TIP3   OH238932   5.427   5.055   5.336  0.4669 -0.4561  0.5412
 5814TIP3    H138933   5.465   4.968   5.335  1.3230 -0.1077  1.6591
 5814TIP3    H238934   5.388   5.063   5.422 -1.0398 -0.3260 -0.1371
 5815TIP3   OH238935   1.241   3.929  17.148  0.4089  0.4474 -0.3422
 5815TIP3    H138936   1.247   3.936  17.053  0.1038 -0.7157 -0.4645
 5815TIP3    H238937   1.328   3.953  17.179  0.8965 -0.3993 -1.0104
 5816TIP3   OH238938   6.062   1.191   4.813 -0.3769 -0.2890  0.1073
 5816TIP3    H138939   6.137   1.201   4.754 -1.4050 -0.0054 -1.1726
 5816TIP3    H238940   6.062   1.271   4.865 -0.5705  0.3099 -0.8030
 5817TIP3   OH238941   4.907   0.263  13.899  0.5821  0.2786  0.3042
 5817TIP3    H138942   4.864   0.334  13.851  1.0868 -0.1007 -0.7230
 5817TIP3    H238943   4.837   0.223  13.951  0.0446  0.7481 -0.0556
 5818TIP3   OH238944   6.663   0.652  16.037  0.5972 -0.2672  0.2266
 5818TIP3    H138945   6.653   0.574  16.091  1.7613  0.0423  0.9294
 5818TIP3    H238946   6.577   0.693  16.038  0.8405  0.3124  2.8109
 5819TIP3   OH238947   1.729   2.589   6.442  0.5193  0.1686 -0.6351
 5819TIP3    H138948   1.682   2.506   6.438  2.1141 -0.7650 -0.2646
 5819TIP3    H238949   1.821   2.565   6.437  1.0410  1.8275  0.6209
 5820TIP3   OH238950   2.404   3.494   0.720 -0.1040  0.3032 -0.1637
 5820TIP3    H138951   2.366   3.433   0.656  2.0951  0.5904 -1.7764
 5820TIP3    H238952   2.434   3.568   0.668  2.2500  0.2941  1.1151
 5821TIP3   OH238953   5.707   1.242  16.469 -0.2086  0.4710  0.5821
 5821TIP3    H138954   5.657   1.173  16.424 -0.9548  0.0071  2.0677
 5821TIP3    H238955   5.640   1.304  16.498  0.3209  1.0340  0.5992
 5822TIP3   OH238956   4.871   6.787  15.169  0.4140  0.3156 -0.0970
 5822TIP3    H138957   4.887   6.734  15.092  0.3425  0.7099 -0.3833
 5822TIP3    H238958   4.929   6.751  15.236 -1.4282 -1.7394  0.4516
 5823TIP3   OH238959   4.646   0.698  15.553 -0.1869  0.1281 -0.3709
 5823TIP3    H138960   4.553   0.719  15.555 -0.2732  0.1560 -2.9174
 5823TIP3    H238961   4.685   0.753  15.621 -2.1099 -0.4823  1.2852
 5824TIP3   OH238962   4.296   4.041   0.696 -0.3793 -0.1921 -0.1917
 5824TIP3    H138963   4.337   4.081   0.619  2.4502 -0.7095  0.9609
 5824TIP3    H238964   4.294   4.110   0.761  0.3490 -0.6574  0.3362
 5825TIP3   OH238965   5.109   0.135  17.288  0.4774  0.2327 -0.0014
 5825TIP3    H138966   5.084   0.054  17.334 -0.8500  1.5482  1.6717
 5825TIP3    H238967   5.098   0.204  17.354  1.5323  1.7934 -1.4238
 5826TIP3   OH238968   6.208   5.612  14.940  0.0982 -0.2183 -0.2387
 5826TIP3    H138969   6.160   5.547  14.992  0.7117 -0.3219  0.2117
 5826TIP3    H238970   6.290   5.568  14.918  0.9953  0.7827  1.0108
 5827TIP3   OH238971   1.457   6.631   1.772 -0.1483 -0.7585  1.0068
 5827TIP3    H138972   1.432   6.580   1.849 -0.3463 -0.3889  1.1880
 5827TIP3    H238973   1.420   6.718   1.788  0.1679 -0.5643  0.6904
 5828TIP3   OH238974   6.411   4.055   3.655 -0.3755  0.2447 -0.2194
 5828TIP3    H138975   6.328   4.012   3.675 -1.3676  2.9029  1.6690
 5828TIP3    H238976   6.399   4.090   3.567 -0.2368 -1.6912 -1.0260
 5829TIP3   OH238977   2.824   2.173   2.919  0.0754  0.4472 -0.3529
 5829TIP3    H138978   2.787   2.194   3.005  1.0395  0.2642  0.1162
 5829TIP3    H238979   2.860   2.085   2.930 -0.2330  0.2300 -1.0889
 5830TIP3   OH238980   2.186   5.313   5.770 -0.5848 -0.3860  0.6845
 5830TIP3    H138981   2.262   5.262   5.741 -0.1712  0.0724  0.9499
 5830TIP3    H238982   2.220   5.367   5.841 -1.2447 -0.4205  1.0232
 5831TIP3   OH238983   3.217   1.476  13.244  0.1523  0.1461 -0.2131
 5831TIP3    H138984   3.266   1.554  13.219  0.7349 -0.4437 -0.9018
 5831TIP3    H238985   3.171   1.450  13.165  0.0109 -0.2563  0.0029
 5832TIP3   OH238986   0.223   1.983   3.428  0.4341  0.2175  0.0291
 5832TIP3    H138987   0.180   1.944   3.352 -0.7514 -0.0651  0.8423
 5832TIP3    H238988   0.215   2.077   3.415 -1.7032  0.1621  0.8986
 5833TIP3   OH238989   0.384   0.462  14.430  0.0965  1.1194 -0.3860
 5833TIP3    H138990   0.298   0.422  14.441 -0.1129  1.4468 -0.8211
 5833TIP3    H238991   0.400   0.459  14.336  1.3358 -0.5533 -0.1398
 5834TIP3   OH238992   1.702   5.288   5.300  0.0569  0.4763 -1.0080
 5834TIP3    H138993   1.727   5.199   5.275  1.1375  0.6816 -0.6674
 5834TIP3    H238994   1.724   5.294   5.393 -1.4072  0.6154 -0.6497
 5835TIP3   OH238995   5.589   2.020   0.332 -0.0931  0.1442 -0.0015
 5835TIP3    H138996   5.651   1.972   0.387  0.6319 -0.8319 -1.6245
 5835TIP3    H238997   5.555   2.090   0.389  1.0295 -0.4983  1.4959
 5836TIP3   OH238998   5.493   2.944   2.438  0.3917  0.2506  0.2909
 5836TIP3    H138999   5.438   2.991   2.375  1.2713  0.6206 -0.2017
 5836TIP3    H239000   5.560   3.008   2.464 -1.2597  0.8934  3.3445
 5837TIP3   OH239001   2.361   1.664  11.188 -0.1429  0.1000 -0.2267
 5837TIP3    H139002   2.452   1.672  11.218  0.8484  1.3113 -3.3205
 5837TIP3    H239003   2.355   1.576  11.151 -0.1881  0.0533 -0.1082
 5838TIP3   OH239004   6.029   6.156   5.362 -0.0898  0.6055 -0.0816
 5838TIP3    H139005   6.026   6.133   5.455 -0.1130  0.8624 -0.0181
 5838TIP3    H239006   5.964   6.225   5.353 -2.5394 -1.7421 -0.9617
 5839TIP3   OH239007   1.563   2.865   2.481 -0.2724 -0.1120  0.5125
 5839TIP3    H139008   1.497   2.865   2.411 -0.9048 -1.4717  1.0977
 5839TIP3    H239009   1.577   2.773   2.501  2.4338  0.0828 -0.1775
 5840TIP3   OH239010   1.827   0.512   1.518  0.5776 -0.2909 -0.2039
 5840TIP3    H139011   1.885   0.451   1.563  2.1094  0.3585 -1.2178
 5840TIP3    H239012   1.879   0.593   1.512 -1.5430  1.2490  1.4763
 5841TIP3   OH239013   0.583   3.933   0.339 -0.0306  0.2961  0.4454
 5841TIP3    H139014   0.574   3.989   0.263  1.4429  1.4383  1.0861
 5841TIP3    H239015   0.511   3.958   0.397 -1.0352 -0.4416 -0.4747
 5842TIP3   OH239016   5.069   3.408  11.758  0.9190  0.1308  0.2589
 5842TIP3    H139017   5.042   3.472  11.692 -1.8297 -1.9941 -0.7477
 5842TIP3    H239018   5.060   3.455  11.841 -2.5533  0.6510 -0.3259
 5843TIP3   OH239019   6.472   1.787   3.289 -0.1280 -0.5110 -0.3284
 5843TIP3    H139020   6.531   1.736   3.233  1.1913  0.0751  0.5167
 5843TIP3    H239021   6.459   1.869   3.242 -0.9032 -0.9358 -0.8785
 5844TIP3   OH239022   1.187   2.744   2.623 -0.1752 -0.3734  0.1695
 5844TIP3    H139023   1.262   2.754   2.681 -0.6170 -1.6303  0.9788
 5844TIP3    H239024   1.221   2.763   2.536  0.8361  0.0763  0.6648
 5845TIP3   OH239025   2.986   5.716   5.953  0.4558 -0.0996  0.2349
 5845TIP3    H139026   2.975   5.767   6.033  0.9776  0.9511 -0.3633
 5845TIP3    H239027   2.982   5.625   5.983  0.3476  0.2814  1.4170
 5846TIP3   OH239028   4.189   3.694   1.286  0.3941 -0.5679 -0.2380
 5846TIP3    H139029   4.136   3.634   1.235 -0.2551  0.4706 -0.7805
 5846TIP3    H239030   4.249   3.734   1.223  0.0284  0.2300 -0.0938
 5847TIP3   OH239031   2.010   2.407   0.402 -0.4290  0.5473 -0.3060
 5847TIP3    H139032   1.926   2.372   0.369  0.1362  0.1219 -1.3225
 5847TIP3    H239033   2.001   2.404   0.497 -1.1969 -0.4420 -0.3937
 5848TIP3   OH239034   5.352   5.279  13.110 -0.1821 -0.2289  0.3752
 5848TIP3    H139035   5.421   5.245  13.168 -0.5070  0.5710  1.2281
 5848TIP3    H239036   5.388   5.360  13.076  0.1231 -0.8414 -0.7783
 5849TIP3   OH239037   2.172   0.945  11.840 -0.1097 -0.3070 -0.2275
 5849TIP3    H139038   2.186   0.897  11.922 -1.4551 -1.0347 -0.4115
 5849TIP3    H239039   2.140   1.031  11.868  0.8318 -0.0437  0.0541
 5850TIP3   OH239040   0.302   4.202  12.555 -0.0409  0.0251  0.0336
 5850TIP3    H139041   0.215   4.233  12.577  0.1860  0.4151  0.3917
 5850TIP3    H239042   0.359   4.237  12.623  0.3971 -0.2334 -0.1889
 5851TIP3   OH239043   0.064   1.685   5.895  0.0296 -0.8049 -0.3290
 5851TIP3    H139044   0.048   1.662   5.803 -1.6080  1.4177 -0.6316
 5851TIP3    H239045   0.054   1.780   5.898  2.8942 -0.5047  1.6055
 5852TIP3   OH239046   4.282   5.034  12.133 -0.7028  0.4790  0.1603
 5852TIP3    H139047   4.190   5.021  12.109 -0.4943  0.7626 -0.7969
 5852TIP3    H239048   4.286   5.007  12.225 -2.2258  2.6844  0.9176
 5853TIP3   OH239049   1.062   3.090   5.252 -0.0836  0.0979 -0.3461
 5853TIP3    H139050   1.113   3.057   5.326 -1.2124  1.1085  0.9326
 5853TIP3    H239051   1.046   3.182   5.274 -0.0696  0.5294 -2.0744
 5854TIP3   OH239052   2.200   4.230  12.695  0.1498  0.4895 -0.4980
 5854TIP3    H139053   2.262   4.159  12.710 -0.8880 -0.3943 -0.3152
 5854TIP3    H239054   2.138   4.224  12.768  0.9036  2.5327  0.3505
 5855TIP3   OH239055   5.332   1.403  13.969 -0.3351  0.2927  0.4718
 5855TIP3    H139056   5.394   1.340  14.004 -0.8933 -0.5159  0.0200
 5855TIP3    H239057   5.380   1.486  13.968  0.9235 -0.4249 -0.3846
 5856TIP3   OH239058   0.869   3.528   2.792 -0.1580  0.1665 -0.6141
 5856TIP3    H139059   0.842   3.612   2.828  2.1140  0.5860  0.2072
 5856TIP3    H239060   0.899   3.549   2.703 -1.1686 -0.0639 -1.0148
 5857TIP3   OH239061   3.136   4.621   4.868  0.1361  0.2186  0.0600
 5857TIP3    H139062   3.076   4.563   4.914 -0.4226  0.2475 -0.6285
 5857TIP3    H239063   3.150   4.579   4.783  0.9856  0.2824  0.1597
 5858TIP3   OH239064   6.180   4.122   6.011 -0.2354  0.1246  0.4082
 5858TIP3    H139065   6.231   4.120   6.091  0.6496 -3.3179 -0.1487
 5858TIP3    H239066   6.098   4.079   6.034 -0.3788  0.0453 -0.2450
 5859TIP3   OH239067   4.511   5.316  13.821 -0.1995  0.3390 -0.2787
 5859TIP3    H139068   4.561   5.235  13.834 -2.4521 -1.2377 -0.9696
 5859TIP3    H239069   4.510   5.358  13.907 -0.8616 -1.5119  0.6554
 5860TIP3   OH239070   1.364   4.723   4.350  0.0023 -0.5957 -0.1139
 5860TIP3    H139071   1.438   4.785   4.350  1.2349 -2.0334 -1.1567
 5860TIP3    H239072   1.338   4.716   4.259 -0.4680 -1.2300  0.0660
 5861TIP3   OH239073   0.677   5.545  15.302  0.6236 -0.0858  0.1281
 5861TIP3    H139074   0.691   5.519  15.393  0.4493  0.2017  0.2390
 5861TIP3    H239075   0.639   5.468  15.260 -0.2661  0.1100  0.5519
 5862TIP3   OH239076   6.194   2.540   3.528 -0.4614 -0.1816  0.4372
 5862TIP3    H139077   6.199   2.502   3.616 -0.0998  0.6448  0.7768
 5862TIP3    H239078   6.215   2.632   3.541 -1.0182  0.0701 -0.4316
 5863TIP3   OH239079   0.353   1.786   1.368 -0.2222 -0.0768 -0.5393
 5863TIP3    H139080   0.279   1.744   1.323 -1.2481 -0.4718  1.4778
 5863TIP3    H239081   0.408   1.713   1.396 -0.1522  0.1137 -0.1836
 5864TIP3   OH239082   6.480   3.996  14.507 -0.3900 -0.2191 -0.3833
 5864TIP3    H139083   6.458   3.970  14.596  1.1678 -0.2644 -0.0013
 5864TIP3    H239084   6.461   3.919  14.454 -0.4587 -0.4937  0.0404
 5865TIP3   OH239085   5.561   5.436   3.003 -0.1196 -0.1274 -0.1120
 5865TIP3    H139086   5.655   5.423   3.016 -0.1691  0.3478  0.7797
 5865TIP3    H239087   5.555   5.501   2.933  0.3026  2.6984  2.3834
 5866TIP3   OH239088   2.666   5.955   3.205 -0.2251 -0.0945 -0.3510
 5866TIP3    H139089   2.637   6.040   3.239  0.3691  0.1684 -0.4940
 5866TIP3    H239090   2.701   5.909   3.282  1.0159  0.4575 -0.5655
 5867TIP3   OH239091   2.304   4.187   0.038 -0.0453 -0.0205 -0.3787
 5867TIP3    H139092   2.314   4.176  -0.057 -3.6837 -0.9882 -0.7197
 5867TIP3    H239093   2.312   4.282   0.051  1.9737 -0.0107 -1.4055
 5868TIP3   OH239094   4.356   5.219   5.002 -0.3008 -0.1193 -0.2410
 5868TIP3    H139095   4.359   5.313   5.022  1.8172 -0.2163  0.0145
 5868TIP3    H239096   4.411   5.178   5.069 -2.4146 -1.7357  0.5595
 5869TIP3   OH239097   0.389   6.506  16.803 -0.5517  0.3073  0.3932
 5869TIP3    H139098   0.453   6.577  16.798 -0.7078  0.5119  1.2084
 5869TIP3    H239099   0.337   6.515  16.722  0.9182 -0.3336 -0.6417
 5870TIP3   OH239100   2.863   1.256  12.210  0.1714 -0.2689 -0.1089
 5870TIP3    H139101   2.922   1.186  12.182 -0.1220  0.0245 -1.4978
 5870TIP3    H239102   2.878   1.326  12.147 -0.5464  0.3944  0.4519
 5871TIP3   OH239103   3.212   5.322  12.737  0.3776 -0.9022  0.0037
 5871TIP3    H139104   3.250   5.291  12.819  2.3363  0.6653 -0.2966
 5871TIP3    H239105   3.243   5.259  12.671  0.9187 -0.6917  0.0567
 5872TIP3   OH239106   2.430   0.167   5.675  0.1035  0.3296 -0.8221
 5872TIP3    H139107   2.445   0.106   5.603  1.4764 -0.7480  0.3567
 5872TIP3    H239108   2.390   0.114   5.744  0.6969  0.9074 -0.0291
 5873TIP3   OH239109   2.783   1.972   5.432  0.0254 -0.2456 -0.0225
 5873TIP3    H139110   2.689   1.956   5.436 -0.2082  0.8233 -1.1199
 5873TIP3    H239111   2.815   1.951   5.520 -0.9403 -2.3869 -0.1643
 5874TIP3   OH239112   5.222   5.277  12.832 -0.0808  0.1890 -0.2496
 5874TIP3    H139113   5.266   5.353  12.872 -0.0334  0.1052 -0.1438
 5874TIP3    H239114   5.229   5.208  12.897  0.9091 -0.2563 -0.8172
 5875TIP3   OH239115   3.916   5.490  16.062  0.5190  0.3347 -0.2133
 5875TIP3    H139116   3.904   5.428  15.990  1.3319  1.1930 -1.1041
 5875TIP3    H239117   3.955   5.567  16.021  1.1768  0.7652  1.1909
 5876TIP3   OH239118   1.351   1.913   6.216  0.7417 -0.1274 -0.1529
 5876TIP3    H139119   1.446   1.925   6.211  1.0314 -1.0296  2.4642
 5876TIP3    H239120   1.321   1.983   6.275 -0.1019 -0.4119 -0.2377
 5877TIP3   OH239121   1.641   0.325  15.861  0.0023  0.4770 -0.2456
 5877TIP3    H139122   1.632   0.240  15.904  0.0740  0.6855  0.1794
 5877TIP3    H239123   1.707   0.372  15.911  0.8024  0.3552 -1.1724
 5878TIP3   OH239124   4.987   4.350  11.699  0.4257 -0.0806  0.7411
 5878TIP3    H139125   4.961   4.348  11.607 -0.5281 -0.6963  1.0303
 5878TIP3    H239126   4.930   4.416  11.738  0.3313 -0.3533  1.0564
 5879TIP3   OH239127   5.892   6.185  14.373  0.7487  0.3274  0.7065
 5879TIP3    H139128   5.901   6.121  14.302  0.6361  0.5176  0.5205
 5879TIP3    H239129   5.811   6.160  14.417  1.7992 -0.9729  1.9768
 5880TIP3   OH239130   6.197   4.415  10.897 -0.0514 -0.1792  0.0158
 5880TIP3    H139131   6.159   4.401  10.983  1.2554  1.8680  0.9631
 5880TIP3    H239132   6.270   4.353  10.893  0.9388  0.9137  1.0688
 5881TIP3   OH239133   0.369   5.111   4.071  0.2798  0.0832  0.1731
 5881TIP3    H139134   0.458   5.129   4.039  0.2943  1.2028  0.8013
 5881TIP3    H239135   0.383   5.061   4.151  0.2524 -2.4146 -1.3504
 5882TIP3   OH239136   0.557   0.768   2.048 -0.2633  0.2155  0.2553
 5882TIP3    H139137   0.509   0.798   1.971 -0.6027  0.2257  0.4736
 5882TIP3    H239138   0.646   0.750   2.015 -0.5456 -0.2867 -0.2476
 5883TIP3   OH239139   6.744   3.805  13.639  0.3310 -0.3663 -0.0378
 5883TIP3    H139140   6.770   3.817  13.547  0.3176 -0.6794 -0.0849
 5883TIP3    H239141   6.722   3.893  13.670  0.2631 -0.2704 -0.3562
 5884TIP3   OH239142   4.168   5.983  14.311 -0.3207  0.2581 -0.0676
 5884TIP3    H139143   4.076   5.962  14.328 -0.1231  0.0576  0.7874
 5884TIP3    H239144   4.194   6.041  14.382 -0.7507  3.2259 -2.2330
 5885TIP3   OH239145   4.304   3.498   4.454  0.1649  0.1431 -0.0593
 5885TIP3    H139146   4.255   3.453   4.523  1.3240 -0.1004  0.6159
 5885TIP3    H239147   4.344   3.573   4.498 -0.3383  0.8589 -0.8063
 5886TIP3   OH239148   3.952   0.268  15.005 -0.6298  0.2727 -0.1904
 5886TIP3    H139149   3.936   0.288  15.097 -0.1204 -0.2153  0.0060
 5886TIP3    H239150   4.033   0.216  15.005 -0.7237  0.1195 -0.8936
 5887TIP3   OH239151   3.362   2.234   0.944  0.2889 -0.3274 -1.1429
 5887TIP3    H139152   3.376   2.275   0.859  1.4204 -1.7822 -1.6736
 5887TIP3    H239153   3.449   2.232   0.985  0.3214 -2.4280 -1.2508
 5888TIP3   OH239154   1.913   5.852  13.671 -0.3554  0.0639 -0.0212
 5888TIP3    H139155   2.003   5.843  13.703  0.3677 -1.0235 -2.2476
 5888TIP3    H239156   1.884   5.936  13.707  2.6939  2.0507 -1.9251
 5889TIP3   OH239157   4.780   6.652   3.582 -0.5561  0.3336 -0.0779
 5889TIP3    H139158   4.773   6.629   3.490 -1.0094 -0.7939  0.2211
 5889TIP3    H239159   4.706   6.712   3.597  0.3922  1.7060 -0.7714
 5890TIP3   OH239160   2.341   5.935  14.356  0.2236 -0.4179 -0.5552
 5890TIP3    H139161   2.301   6.001  14.300  0.1047  0.6936  0.7866
 5890TIP3    H239162   2.406   5.893  14.301  1.1521  1.6571 -1.1002
 5891TIP3   OH239163   2.412   2.347   5.569  0.5137  0.4538  0.3332
 5891TIP3    H139164   2.358   2.416   5.608 -1.9107 -1.6512  0.7678
 5891TIP3    H239165   2.448   2.300   5.645  1.8011  0.9278  0.0338
 5892TIP3   OH239166   2.260   0.243  12.273  0.1993  0.2738 -0.4355
 5892TIP3    H139167   2.206   0.292  12.210  0.6516 -1.4937 -2.2831
 5892TIP3    H239168   2.228   0.153  12.266  2.5638 -0.5862 -0.6775
 5893TIP3   OH239169   0.207   0.095   2.019  0.2595 -0.6316  0.1555
 5893TIP3    H139170   0.249   0.180   2.010  3.1374 -1.8856  1.0747
 5893TIP3    H239171   0.128   0.101   1.966  0.3162  2.6564  0.3832
 5894TIP3   OH239172   3.314   5.824  15.462 -0.4228 -0.1475 -0.0427
 5894TIP3    H139173   3.362   5.819  15.544 -0.8550 -1.6550  0.1464
 5894TIP3    H239174   3.234   5.872  15.484  0.0054  0.4788  0.1438
 5895TIP3   OH239175   0.956   3.470  12.093  0.3028  0.1249 -0.3108
 5895TIP3    H139176   0.911   3.523  12.159 -0.3099 -0.7719 -0.0100
 5895TIP3    H239177   0.964   3.383  12.132  0.6635 -0.2021 -1.0980
 5896TIP3   OH239178   4.714   5.927   5.386  0.0840  0.3441 -0.0441
 5896TIP3    H139179   4.639   5.869   5.382 -0.0291  0.5379 -0.8694
 5896TIP3    H239180   4.783   5.875   5.427 -0.5711  0.2576  0.9862
 5897TIP3   OH239181   2.632   6.002  17.042  0.1036  0.3513 -0.3369
 5897TIP3    H139182   2.591   5.922  17.010  0.0790  0.3043 -0.1874
 5897TIP3    H239183   2.567   6.070  17.028  0.4690  0.5121 -1.3210
 5898TIP3   OH239184   3.512   2.084   1.969 -0.3532 -0.1853 -0.3834
 5898TIP3    H139185   3.503   2.050   1.881 -0.4784  1.3227 -0.9737
 5898TIP3    H239186   3.602   2.064   1.994  0.3110  1.1944 -1.6475
 5899TIP3   OH239187   2.850   6.796  12.604 -0.3954 -0.5014 -0.6122
 5899TIP3    H139188   2.803   6.773  12.684  1.3769  1.5009  1.0395
 5899TIP3    H239189   2.873   6.712  12.565 -0.4412 -1.5025  1.4644
 5900TIP3   OH239190   5.379   4.745  12.895  0.0641 -0.0957  0.3157
 5900TIP3    H139191   5.448   4.796  12.938 -0.2418  0.6904 -0.1306
 5900TIP3    H239192   5.411   4.654  12.900  1.3214  0.3035 -0.2576
 5901TIP3   OH239193   2.255   6.487  15.048 -0.5421 -0.1449  0.4121
 5901TIP3    H139194   2.269   6.424  14.977 -2.1393  1.5065 -1.3931
 5901TIP3    H239195   2.308   6.453  15.121  0.6082 -2.1987 -1.3442
 5902TIP3   OH239196   2.336   6.468   6.185 -0.1706 -0.1394 -0.5447
 5902TIP3    H139197   2.346   6.375   6.206  0.1232  0.0481  0.1724
 5902TIP3    H239198   2.376   6.513   6.259  0.6568  0.5576 -1.4073
 5903TIP3   OH239199   1.428   5.266   3.033  0.3006  0.6711  0.1214
 5903TIP3    H139200   1.471   5.247   3.117  1.6197  0.2474 -0.6373
 5903TIP3    H239201   1.412   5.179   2.995 -0.1480  0.8728 -0.1541
 5904TIP3   OH239202   1.176   5.506   0.706 -0.1971  0.4181 -0.1816
 5904TIP3    H139203   1.112   5.437   0.724 -1.4247  0.5721 -3.6708
 5904TIP3    H239204   1.252   5.483   0.760 -0.3634 -3.9903 -1.6669
 5905TIP3   OH239205   2.842   3.780  11.547  0.9159 -0.4637  0.0333
 5905TIP3    H139206   2.829   3.743  11.635  0.5482 -0.7158 -0.1263
 5905TIP3    H239207   2.934   3.760  11.527  0.7362 -1.2518 -0.0270
 5906TIP3   OH239208   6.211   0.381  12.949  0.4317  0.0270 -0.4124
 5906TIP3    H139209   6.194   0.390  13.043  1.1148 -0.3490 -0.2532
 5906TIP3    H239210   6.246   0.466  12.923 -1.2770  0.6780 -0.6584
 5907TIP3   OH239211   1.090   5.064   2.909 -0.4866  0.7016  0.5134
 5907TIP3    H139212   1.115   5.119   2.835  0.2226  1.2124  1.1314
 5907TIP3    H239213   1.171   5.046   2.955 -0.9478  0.5465  1.2796
 5908TIP3   OH239214   6.057   4.382   5.987 -1.0708 -0.1873  0.7596
 5908TIP3    H139215   6.011   4.318   6.041  2.0452 -2.2721  1.0960
 5908TIP3    H239216   6.096   4.330   5.917  1.8478  1.2137  1.2426
 5909TIP3   OH239217   1.108   1.064  13.704 -0.3208 -0.2751  0.0065
 5909TIP3    H139218   1.085   1.149  13.743 -2.0269  0.2642 -2.0787
 5909TIP3    H239219   1.066   1.000  13.761 -2.7775  0.5036 -0.8594
 5910TIP3   OH239220   1.255   3.729   1.226  0.0897 -0.3545  0.0588
 5910TIP3    H139221   1.340   3.685   1.230 -1.0718 -2.6442 -0.0589
 5910TIP3    H239222   1.193   3.660   1.204 -1.8224  1.2936  0.1803
 5911TIP3   OH239223   1.109   1.295   5.826 -0.4488 -0.8015 -0.2634
 5911TIP3    H139224   1.124   1.374   5.877 -1.2374 -1.0841  0.4151
 5911TIP3    H239225   1.181   1.293   5.763 -0.6613  0.6839 -0.5720
 5912TIP3   OH239226   5.606   0.410   0.039 -1.0112 -0.3903 -0.6252
 5912TIP3    H139227   5.692   0.428   0.000 -0.8252 -1.8423 -0.9387
 5912TIP3    H239228   5.580   0.492   0.081  2.9615 -1.3534  4.1866
 5913TIP3   OH239229   5.328   5.738  13.898 -0.4423 -0.2461  0.2290
 5913TIP3    H139230   5.235   5.729  13.878 -0.2987 -0.2758 -0.4627
 5913TIP3    H239231   5.365   5.779  13.819  0.2370 -0.8274  0.2414
 5914TIP3   OH239232   1.022   5.904  12.571  0.4347 -0.6774 -0.2397
 5914TIP3    H139233   1.029   6.000  12.578  2.1115 -0.8639  0.9275
 5914TIP3    H239234   1.083   5.881  12.501  1.5306 -1.0703  0.8352
 5915TIP3   OH239235   1.005   5.665   1.485 -0.0143  0.1545  0.3616
 5915TIP3    H139236   0.924   5.626   1.453 -0.2394 -0.1283  1.2502
 5915TIP3    H239237   1.058   5.590   1.515  0.9849  0.2501 -1.1044
 5916TIP3   OH239238   5.236   3.158   4.344 -0.0016  0.4192 -0.1315
 5916TIP3    H139239   5.171   3.204   4.397  1.8574  0.3378  2.3037
 5916TIP3    H239240   5.216   3.065   4.357  0.8613  0.3783  1.0277
 5917TIP3   OH239241   4.608   6.730  12.596  0.8444 -0.6827  0.2571
 5917TIP3    H139242   4.568   6.655  12.551  0.6218 -0.1229 -0.4825
 5917TIP3    H239243   4.701   6.723  12.575  0.7371 -0.4086 -0.3107
 5918TIP3   OH239244   1.500   2.972  13.082 -0.3081 -0.1667 -0.2375
 5918TIP3    H139245   1.423   3.015  13.045 -0.4316 -0.3598 -0.2057
 5918TIP3    H239246   1.555   3.044  13.114 -1.3275 -0.1091  1.4135
 5919TIP3   OH239247   3.815   0.193   2.335  0.7303 -0.5339  1.0049
 5919TIP3    H139248   3.879   0.195   2.264 -2.2035  1.8249 -1.7567
 5919TIP3    H239249   3.838   0.267   2.391  0.3256  0.4722 -0.1280
 5920TIP3   OH239250   4.786   1.075  16.760 -0.3523 -0.3803 -0.2576
 5920TIP3    H139251   4.756   1.042  16.845 -0.0958  2.1810  0.8677
 5920TIP3    H239252   4.734   1.154  16.746  0.0345 -0.4665 -2.2104
 5921TIP3   OH239253   4.177   1.001  13.671 -0.0062 -0.1617 -0.3844
 5921TIP3    H139254   4.203   0.975  13.759  0.1922  1.4534  0.0621
 5921TIP3    H239255   4.123   0.929  13.639  2.5081 -2.1961 -0.1607
 5922TIP3   OH239256   4.145   1.726   5.695  0.4177  0.1283  0.2688
 5922TIP3    H139257   4.170   1.818   5.701 -1.2220  0.6033  0.0577
 5922TIP3    H239258   4.163   1.702   5.604  0.7137  0.2727  0.2884
 5923TIP3   OH239259   3.547   4.619  11.745  0.0782 -0.0798  0.1589
 5923TIP3    H139260   3.597   4.638  11.824  0.7227  0.7265 -0.4192
 5923TIP3    H239261   3.583   4.679  11.679 -2.0983  0.9798 -0.1126
 5924TIP3   OH239262   1.874   0.209   3.398  0.4813  0.7239  0.2009
 5924TIP3    H139263   1.815   0.220   3.472  0.8977  0.3002  0.5962
 5924TIP3    H239264   1.873   0.293   3.353 -1.3414  0.3802 -0.4654
 5925TIP3   OH239265   5.402   0.236   0.248  0.3398  0.3722 -0.3047
 5925TIP3    H139266   5.453   0.273   0.176  1.1464  0.2424  0.1909
 5925TIP3    H239267   5.371   0.152   0.215 -1.3239  1.3643 -1.3624
 5926TIP3   OH239268   4.982   0.604  14.876 -0.2579 -0.4702  0.1276
 5926TIP3    H139269   4.890   0.628  14.888 -0.0815  0.0347  0.4785
 5926TIP3    H239270   5.030   0.667  14.929  0.1043 -2.9773  2.9264
 5927TIP3   OH239271   5.889   0.997   0.701  0.3222 -0.4308 -0.5340
 5927TIP3    H139272   5.807   0.979   0.748  0.7383  1.0568  0.8194
 5927TIP3    H239273   5.945   0.922   0.719 -0.4258 -1.0425 -0.7428
 5928TIP3   OH239274   5.855   3.802  13.005  0.1563 -0.5052 -0.1173
 5928TIP3    H139275   5.915   3.856  13.056  1.2770 -0.3445 -1.5346
 5928TIP3    H239276   5.815   3.743  13.068  1.3307 -0.1578  0.9668
 5929TIP3   OH239277   4.834   4.028   1.365 -0.6545 -0.3326  0.4300
 5929TIP3    H139278   4.907   4.047   1.424  1.0595 -1.9211 -1.1013
 5929TIP3    H239279   4.825   3.933   1.368 -1.4288 -0.3094 -0.8440
 5930TIP3   OH239280   5.221   2.694   6.141  0.4673 -0.4787 -0.1719
 5930TIP3    H139281   5.151   2.629   6.147  0.9917 -1.0349 -0.0322
 5930TIP3    H239282   5.288   2.664   6.203  2.1481 -1.5864 -2.4294
 5931TIP3   OH239283   3.391   5.764  12.831  0.2124  0.8068 -0.2992
 5931TIP3    H139284   3.337   5.712  12.772 -0.5747 -0.5508  1.5428
 5931TIP3    H239285   3.422   5.837  12.778 -0.9567 -0.0408 -2.2017
 5932TIP3   OH239286   2.632   3.605   5.035 -0.5630 -0.2236  0.1039
 5932TIP3    H139287   2.675   3.577   5.115  0.3429  1.4760  0.2438
 5932TIP3    H239288   2.596   3.692   5.056  0.7930  0.8049 -1.6875
 5933TIP3   OH239289   6.510   3.313  16.977 -0.0137 -0.2629  0.1686
 5933TIP3    H139290   6.501   3.385  16.914  0.1223 -0.8960 -0.5836
 5933TIP3    H239291   6.499   3.354  17.062 -3.0424  0.1899 -0.3653
 5934TIP3   OH239292   1.656   0.397   6.571  0.3979  0.4100 -0.2813
 5934TIP3    H139293   1.599   0.358   6.505  1.5167 -0.7989 -0.5660
 5934TIP3    H239294   1.649   0.337   6.646  1.1983  0.3104 -0.2812
 5935TIP3   OH239295   4.786   2.596  13.459  0.0032 -1.1074  0.0463
 5935TIP3    H139296   4.759   2.621  13.547  0.2454 -1.1844  0.1427
 5935TIP3    H239297   4.739   2.514  13.442 -0.3873 -0.8636 -0.0668
 5936TIP3   OH239298   3.230   1.971   0.961  0.0050  0.0469 -0.0599
 5936TIP3    H139299   3.149   1.986   1.011 -0.1829 -1.6073  0.1667
 5936TIP3    H239300   3.266   2.058   0.948 -0.4573  0.6062  2.1347
 5937TIP3   OH239301   4.025   3.338   2.119  0.0345 -0.2840 -0.2771
 5937TIP3    H139302   4.120   3.352   2.125  0.2348 -0.5677 -2.5358
 5937TIP3    H239303   4.007   3.272   2.186  1.4366 -0.2165  0.1793
 5938TIP3   OH239304   3.537   3.364  11.656 -0.2406 -0.2081 -0.4012
 5938TIP3    H139305   3.609   3.360  11.719  0.4402  1.5719 -1.0363
 5938TIP3    H239306   3.579   3.381  11.572 -1.1766 -2.1532 -1.2996
 5939TIP3   OH239307   5.400   1.873  16.264 -0.2368  0.3737  0.1444
 5939TIP3    H139308   5.370   1.894  16.176 -0.7653 -3.7158 -0.7615
 5939TIP3    H239309   5.489   1.840  16.252 -0.0923  0.3446  1.2064
 5940TIP3   OH239310   3.179   1.058  13.980  0.5427  0.2705 -0.1245
 5940TIP3    H139311   3.144   1.138  13.943 -0.6595  0.0904  0.5873
 5940TIP3    H239312   3.146   0.988  13.923 -0.6545  0.0631  0.7900
 5941TIP3   OH239313   2.119   1.041   3.911 -0.2315  0.6505 -0.7888
 5941TIP3    H139314   2.161   1.127   3.909 -0.0586  0.6564  2.1592
 5941TIP3    H239315   2.110   1.020   4.003 -0.0964 -2.6307 -1.4690
 5942TIP3   OH239316   4.952   0.727   4.888 -0.0902  0.1262 -0.5909
 5942TIP3    H139317   5.025   0.764   4.938  0.9824  0.1406 -2.1538
 5942TIP3    H239318   4.899   0.683   4.954  1.3768  0.0396  0.5686
 5943TIP3   OH239319   5.454   2.932  15.029  0.1607  0.0048 -0.1012
 5943TIP3    H139320   5.413   2.880  15.098  1.2398  2.3256  2.4263
 5943TIP3    H239321   5.385   2.990  14.998 -0.2405 -0.8235 -0.7862
 5944TIP3   OH239322   6.600   0.137  14.417 -0.2308  0.0529 -0.2184
 5944TIP3    H139323   6.601   0.049  14.380 -0.2793 -0.7374  1.5953
 5944TIP3    H239324   6.647   0.190  14.354  1.3975 -1.6402 -0.4725
 5945TIP3   OH239325   4.224   1.101  15.515  0.4299  0.7662 -0.3247
 5945TIP3    H139326   4.210   1.189  15.549 -1.7165  0.1379  0.4853
 5945TIP3    H239327   4.159   1.091  15.446 -0.8584 -0.9711  1.1083
 5946TIP3   OH239328   6.063   3.645  16.684 -0.0670  0.5022  0.5538
 5946TIP3    H139329   6.151   3.624  16.715 -0.1713 -0.6201  0.1104
 5946TIP3    H239330   6.051   3.589  16.607 -1.0814  0.8293  0.4688
 5947TIP3   OH239331   3.567   4.396   2.160 -0.8485 -0.1235  0.1540
 5947TIP3    H139332   3.520   4.359   2.086 -1.4210  0.2451  0.3287
 5947TIP3    H239333   3.655   4.359   2.154 -1.2648 -1.1022  0.0415
 5948TIP3   OH239334   4.508   5.368  15.032  0.0046 -0.7293  0.1580
 5948TIP3    H139335   4.556   5.446  15.004 -0.2404  0.3541  2.6050
 5948TIP3    H239336   4.416   5.392  15.024 -0.0734 -0.4100  1.7279
 5949TIP3   OH239337   0.003   6.092   0.812  0.5531  0.3632 -0.1277
 5949TIP3    H139338   0.074   6.059   0.758 -1.1254  0.3066 -2.3448
 5949TIP3    H239339  -0.030   6.015   0.858  1.9040  0.3997  0.9773
 5950TIP3   OH239340   5.664   5.607  16.587  0.2294  0.1473 -0.4384
 5950TIP3    H139341   5.695   5.593  16.498 -2.4445 -3.0070 -0.9845
 5950TIP3    H239342   5.659   5.519  16.625 -3.5994  0.8740  1.0315
 5951TIP3   OH239343   1.376   0.993  13.630  0.2828  0.6383  0.5368
 5951TIP3    H139344   1.284   1.016  13.636  0.1669  0.3698 -0.1461
 5951TIP3    H239345   1.400   0.965  13.718 -1.1414 -2.4074  0.0221
 5952TIP3   OH239346   0.626   1.822  15.549 -0.5495 -0.3736 -0.1277
 5952TIP3    H139347   0.620   1.849  15.641 -0.0926 -0.3099 -0.1136
 5952TIP3    H239348   0.617   1.727  15.551 -1.8642 -0.2548 -0.1431
 5953TIP3   OH239349   6.640   3.952  15.677  0.4647 -0.2873 -0.1969
 5953TIP3    H139350   6.606   3.883  15.734  1.0053 -0.4834 -0.0990
 5953TIP3    H239351   6.702   3.907  15.619  2.4655  0.4446  1.2972
 5954TIP3   OH239352   5.572   5.939  16.101 -0.1591 -0.7175 -0.0024
 5954TIP3    H139353   5.563   5.844  16.116 -1.0292 -0.4188  1.4898
 5954TIP3    H239354   5.661   5.959  16.129  0.0998 -1.1330 -0.5171
 5955TIP3   OH239355   6.661   0.996   0.651  0.5634 -0.2960 -0.8501
 5955TIP3    H139356   6.620   0.974   0.735 -0.4802 -0.5873 -1.4293
 5955TIP3    H239357   6.746   1.033   0.675  0.4499 -0.7661  0.3220
 5956TIP3   OH239358   2.775   0.899  15.525  0.2464 -0.3348  0.5399
 5956TIP3    H139359   2.863   0.932  15.505  0.6705 -2.3445 -1.1576
 5956TIP3    H239360   2.716   0.961  15.482  0.9784 -1.0558 -1.5667
 5957TIP3   OH239361   5.686   3.960  15.398 -0.1815 -0.5099 -0.2549
 5957TIP3    H139362   5.757   3.896  15.394  0.1531 -0.0795 -1.4530
 5957TIP3    H239363   5.667   3.969  15.491  0.5304 -1.5136 -0.0021
 5958TIP3   OH239364   4.199   0.905   3.385 -0.0117 -0.3011 -0.4372
 5958TIP3    H139365   4.135   0.928   3.452  1.2382 -0.3990  0.7966
 5958TIP3    H239366   4.228   0.989   3.349  0.3233 -0.1804  0.1043
 5959TIP3   OH239367   5.015   4.629  13.692 -0.0666 -0.1665  0.3092
 5959TIP3    H139368   4.990   4.699  13.631  0.3888 -0.0806  0.2130
 5959TIP3    H239369   4.932   4.594  13.724 -0.3662 -2.0731 -2.4533
 5960TIP3   OH239370   1.566   2.684  11.981  0.1495  0.8425  0.7453
 5960TIP3    H139371   1.640   2.681  11.921 -1.5089 -0.1775 -1.2836
 5960TIP3    H239372   1.521   2.766  11.959 -0.1079  0.7798  1.0345
 5961TIP3   OH239373   3.784   4.581   4.526 -0.5825  0.8129  0.0148
 5961TIP3    H139374   3.794   4.486   4.517 -0.6383  0.8644 -0.5951
 5961TIP3    H239375   3.787   4.596   4.621 -0.1666  0.2469  0.0972
 5962TIP3   OH239376   2.609   4.725  10.999  0.3299  0.3513 -0.5929
 5962TIP3    H139377   2.540   4.775  10.956  0.8257  0.4089 -1.3361
 5962TIP3    H239378   2.660   4.689  10.927 -0.4436 -1.8268 -0.0711
 5963TIP3   OH239379   1.297   5.905   1.268  0.4715  0.4066  0.1714
 5963TIP3    H139380   1.242   5.984   1.269 -0.2249 -0.0580 -0.4560
 5963TIP3    H239381   1.244   5.840   1.221  0.7738 -0.6253  1.2461
 5964TIP3   OH239382   6.161   4.900   2.709  0.3121  0.0683 -0.0706
 5964TIP3    H139383   6.194   4.897   2.619 -0.6745  1.8028 -0.5064
 5964TIP3    H239384   6.221   4.959   2.754  1.9508 -2.2905  0.9264
 5965TIP3   OH239385   3.429   3.401   5.925  0.4951  0.5309 -0.4053
 5965TIP3    H139386   3.450   3.387   6.018  0.6302 -0.8888 -0.6454
 5965TIP3    H239387   3.334   3.404   5.922  0.5186  2.0197 -0.0227
 5966TIP3   OH239388   4.678   4.185  11.688 -0.0061  0.3655 -0.3319
 5966TIP3    H139389   4.627   4.256  11.728 -1.1584 -0.5948 -0.0984
 5966TIP3    H239390   4.760   4.228  11.662 -0.7651  1.8398 -0.3874
 5967TIP3   OH239391   2.695   0.198   2.829 -0.5421 -0.2347 -0.0611
 5967TIP3    H139392   2.686   0.220   2.922  0.9257 -2.4073  0.6383
 5967TIP3    H239393   2.789   0.205   2.813 -0.8251  0.3739 -1.4698
 5968TIP3   OH239394   2.767   6.475   5.454  0.4147 -0.2441  0.1653
 5968TIP3    H139395   2.804   6.419   5.522  0.3452 -0.4556  0.0287
 5968TIP3    H239396   2.705   6.531   5.500  1.3225  0.5075  0.4987
 5969TIP3   OH239397   5.444   4.249  13.379  0.2408 -0.0418  0.5121
 5969TIP3    H139398   5.443   4.229  13.286 -1.5613  0.5291  0.3894
 5969TIP3    H239399   5.367   4.304  13.393  0.8248  0.3936  2.2311
 5970TIP3   OH239400   4.004   4.060  11.641  0.4189 -0.1218  0.1806
 5970TIP3    H139401   4.042   4.006  11.572  0.6679 -1.3699  1.2836
 5970TIP3    H239402   3.972   4.138  11.595  3.0559  0.3638 -0.9841
 5971TIP3   OH239403   0.192   6.087  14.421 -0.3949 -0.0705 -0.4170
 5971TIP3    H139404   0.139   6.070  14.343 -1.9971  2.3326  0.0738
 5971TIP3    H239405   0.164   6.021  14.484 -0.5858 -0.7393 -1.1954
 5972TIP3   OH239406   3.272   6.221  14.038  0.1698  0.1736  0.5356
 5972TIP3    H139407   3.212   6.161  13.994  1.5184 -0.5785 -0.3017
 5972TIP3    H239408   3.308   6.275  13.967  1.4540 -0.2459  0.8705
 5973TIP3   OH239409   1.532   0.817  16.808 -0.1113  0.2698  0.8075
 5973TIP3    H139410   1.510   0.805  16.715  0.2482  1.0304  0.6202
 5973TIP3    H239411   1.624   0.791  16.814 -0.0057  0.6654  0.8632
 5974TIP3   OH239412   2.372   4.242   3.714 -0.0200 -0.0918 -0.0937
 5974TIP3    H139413   2.399   4.252   3.805 -2.8293 -0.1629  0.7986
 5974TIP3    H239414   2.379   4.148   3.696  0.5334 -0.0774  0.0468
 5975TIP3   OH239415   3.838   3.450  17.197 -0.6257 -0.4425 -0.0306
 5975TIP3    H139416   3.800   3.362  17.201 -0.4155 -0.4932  1.0424
 5975TIP3    H239417   3.874   3.456  17.108 -2.3459 -0.7150 -0.7641
 5976TIP3   OH239418   4.664   4.654  15.067  0.0979  0.3471  0.3526
 5976TIP3    H139419   4.659   4.748  15.049  1.6942  0.0807 -1.6942
 5976TIP3    H239420   4.586   4.618  15.026  0.3212  0.5789 -0.2768
 5977TIP3   OH239421   3.991   1.996   1.776  0.6232 -0.0877 -0.2436
 5977TIP3    H139422   3.957   1.912   1.746  1.1947 -0.8428  1.1735
 5977TIP3    H239423   4.083   1.979   1.796  0.1093  0.1713  2.5947
 5978TIP3   OH239424   1.775   1.347  13.197  0.2389  0.5699  0.3976
 5978TIP3    H139425   1.837   1.277  13.176 -0.4953 -0.1276  0.5331
 5978TIP3    H239426   1.766   1.397  13.116  0.2308  0.0900  0.1013
 5979TIP3   OH239427   2.578   6.062  13.032 -0.4267 -0.9722 -0.5094
 5979TIP3    H139428   2.502   6.003  13.039  0.0432 -1.4860  0.2794
 5979TIP3    H239429   2.654   6.004  13.029  0.0697 -0.4014  0.6746
 5980TIP3   OH239430   2.350   4.355   1.858 -0.0874  0.9744  0.0277
 5980TIP3    H139431   2.368   4.441   1.895  1.1660  0.5108  0.5252
 5980TIP3    H239432   2.263   4.363   1.818 -0.7207  1.9602  1.5872
 5981TIP3   OH239433   6.436   2.247  16.634 -0.3047  0.7525  0.2732
 5981TIP3    H139434   6.467   2.322  16.583 -1.0644  2.1171  1.7661
 5981TIP3    H239435   6.514   2.215  16.679 -0.2557  1.6294  0.8352
 5982TIP3   OH239436   0.514   0.765   0.957  0.3344  0.8247 -0.5002
 5982TIP3    H139437   0.429   0.752   0.999 -0.3950 -0.5907 -2.3437
 5982TIP3    H239438   0.564   0.686   0.980  1.5731  2.1307  1.4718
 5983TIP3   OH239439   6.248   1.415   5.786  0.2651  0.2568  0.0828
 5983TIP3    H139440   6.236   1.403   5.880  1.6821  1.6393  0.4566
 5983TIP3    H239441   6.175   1.470   5.758 -0.1783 -0.1901  0.3499
 5984TIP3   OH239442   1.846   4.601  15.392  0.0592 -0.4044  0.0678
 5984TIP3    H139443   1.815   4.554  15.469  0.9679  0.2337  0.8295
 5984TIP3    H239444   1.932   4.563  15.373  0.8059  0.9437  0.6942
 5985TIP3   OH239445   5.155   2.450   1.893 -0.3232  0.1583  0.4183
 5985TIP3    H139446   5.099   2.480   1.822  0.1117  0.7642  0.3293
 5985TIP3    H239447   5.186   2.364   1.865 -0.3049  0.3129 -0.0416
 5986TIP3   OH239448   6.598   0.805   3.724  0.2070  0.1990 -0.4068
 5986TIP3    H139449   6.684   0.822   3.763  1.4179 -1.0068 -2.5048
 5986TIP3    H239450   6.562   0.892   3.705  1.9036  0.6667 -1.5292
 5987TIP3   OH239451   5.756   4.657   2.557  0.1788  0.2486  0.2523
 5987TIP3    H139452   5.755   4.693   2.646  1.7391  0.0725  0.3504
 5987TIP3    H239453   5.798   4.572   2.566  1.0643  0.5676 -0.7705
 5988TIP3   OH239454   4.023   3.746  11.550  0.2309 -0.4584  0.4226
 5988TIP3    H139455   4.073   3.811  11.501  3.0520 -3.2748 -0.5666
 5988TIP3    H239456   4.075   3.728  11.628 -0.0708 -2.1555  0.2578
 5989TIP3   OH239457   5.985   5.182   3.591  0.0063  0.1259  0.1694
 5989TIP3    H139458   6.061   5.239   3.583 -0.7192  1.1835  0.6927
 5989TIP3    H239459   5.918   5.237   3.630 -1.0798 -0.7567 -0.4299
 5990TIP3   OH239460   6.819   4.341  10.759  0.6859  0.2684  0.3069
 5990TIP3    H139461   6.884   4.302  10.817  0.7676  0.1536  0.1403
 5990TIP3    H239462   6.846   4.313  10.671  1.1727  1.2945  0.1214
 5991TIP3   OH239463   3.704   6.461   6.503  0.6272  0.1374  0.5188
 5991TIP3    H139464   3.641   6.432   6.569  0.0703 -0.3144 -0.2042
 5991TIP3    H239465   3.757   6.384   6.484 -1.5826 -0.8106 -2.2336
 5992TIP3   OH239466   0.597   6.747   4.544  0.7801  0.2904  0.2258
 5992TIP3    H139467   0.660   6.787   4.604 -0.6068  1.2204  1.0754
 5992TIP3    H239468   0.536   6.701   4.600 -1.0674  1.9351 -0.3847
 5993TIP3   OH239469   4.680   2.544  10.812  0.1932 -0.0429  0.0949
 5993TIP3    H139470   4.748   2.539  10.880 -1.5536 -0.8493  1.8273
 5993TIP3    H239471   4.680   2.458  10.772  0.4276  0.0706 -0.1522
 5994TIP3   OH239472   1.291   4.592  11.711  0.2598 -0.0662 -0.2927
 5994TIP3    H139473   1.310   4.681  11.738 -0.9360  0.1288 -0.0309
 5994TIP3    H239474   1.240   4.601  11.631 -0.0023 -0.4987 -0.1812
 5995TIP3   OH239475   0.403   6.654  11.755 -0.0762 -0.0360 -0.1806
 5995TIP3    H139476   0.400   6.567  11.794 -0.3230 -0.7507 -1.7321
 5995TIP3    H239477   0.494   6.664  11.726 -0.4048 -0.4082 -1.3629
 5996TIP3   OH239478   3.152   6.494   1.929 -0.0717 -0.3833 -0.0761
 5996TIP3    H139479   3.170   6.586   1.946 -0.9387 -0.0610 -0.8313
 5996TIP3    H239480   3.082   6.495   1.864 -0.1920 -1.5768  0.0175
 5997TIP3   OH239481   5.325   2.520  14.627  0.5764  0.3301  0.7789
 5997TIP3    H139482   5.404   2.544  14.676 -0.3687  1.9937  1.5611
 5997TIP3    H239483   5.354   2.517  14.536  1.2955  2.2349  0.9075
 5998TIP3   OH239484   0.793   4.286  13.101  0.4447 -0.1966 -0.0169
 5998TIP3    H139485   0.699   4.268  13.108  0.6462 -2.5264 -2.2826
 5998TIP3    H239486   0.802   4.337  13.021  1.1501 -0.5349 -0.1613
 5999TIP3   OH239487   2.150   5.288  11.933 -0.4298 -0.1621  0.1465
 5999TIP3    H139488   2.141   5.333  11.849 -0.2535  2.9475  1.7157
 5999TIP3    H239489   2.243   5.293  11.953 -0.9061  2.2564  2.0943
 6000TIP3   OH239490   4.392   4.099   2.317 -0.2092 -0.2619 -0.2748
 6000TIP3    H139491   4.473   4.048   2.316 -0.5142 -0.8660  2.2551
 6000TIP3    H239492   4.413   4.177   2.369 -0.9077  0.1941 -0.6728
 6001TIP3   OH239493   1.023   0.848  13.904 -0.0695 -0.0285  0.2005
 6001TIP3    H139494   1.066   0.801  13.975 -2.0287 -1.6398  0.3616
 6001TIP3    H239495   1.033   0.791  13.828 -2.1608 -0.5951  0.3118
 6002TIP3   OH239496   2.132   6.717   2.057 -0.0288 -0.2954 -0.4622
 6002TIP3    H139497   2.116   6.761   1.973 -1.4183 -0.9202 -0.5388
 6002TIP3    H239498   2.045   6.687   2.085  0.6557 -1.4901  0.4203
 6003TIP3   OH239499   1.048   5.805   3.459 -0.1303 -0.1778  0.3945
 6003TIP3    H139500   1.141   5.825   3.468 -0.1263  0.2711 -0.5532
 6003TIP3    H239501   1.043   5.748   3.382 -0.6007 -0.4354  0.6140
 6004TIP3   OH239502   4.705   2.832  14.350  0.1197 -0.1769  0.0007
 6004TIP3    H139503   4.632   2.864  14.298 -0.9337  0.4120  1.7763
 6004TIP3    H239504   4.703   2.737  14.338 -1.5877 -0.2767  0.7949
 6005TIP3   OH239505   5.870   6.812  16.136  0.2602 -0.3561 -0.7397
 6005TIP3    H139506   5.796   6.810  16.197  0.9714 -1.6367  0.1159
 6005TIP3    H239507   5.912   6.726  16.147  2.1874  0.5533 -0.8023
 6006TIP3   OH239508   3.151   6.270   5.550 -0.4668 -0.4578  0.0888
 6006TIP3    H139509   3.232   6.219   5.548  0.0895  0.4308 -2.6109
 6006TIP3    H239510   3.172   6.348   5.602  1.9212  2.0288 -4.3449
 6007TIP3   OH239511   3.252   4.734  13.431  0.1348  0.2762  0.6788
 6007TIP3    H139512   3.206   4.697  13.356 -0.0811  2.4779 -0.3446
 6007TIP3    H239513   3.336   4.688  13.433 -0.3666 -0.6892 -0.1401
 6008TIP3   OH239514   5.663   5.634   4.043 -0.3038  0.4447  0.3347
 6008TIP3    H139515   5.649   5.638   4.137  0.5504 -0.3719  0.5121
 6008TIP3    H239516   5.607   5.702   4.007  0.1330  1.4429  1.5186
 6009TIP3   OH239517   4.870   4.644   3.361 -0.2394 -0.1874 -0.2785
 6009TIP3    H139518   4.897   4.714   3.302  1.4331 -0.6745 -0.1007
 6009TIP3    H239519   4.919   4.567   3.332  0.0176 -0.6203  1.2609
 6010TIP3   OH239520   2.434   4.365  15.630  0.3227 -0.7191 -0.4454
 6010TIP3    H139521   2.471   4.277  15.619 -1.8962 -1.7489  0.0243
 6010TIP3    H239522   2.493   4.422  15.582  1.8092 -2.4722 -0.7564
 6011TIP3   OH239523   5.146   3.563   4.418 -0.7134  0.1714  0.3631
 6011TIP3    H139524   5.174   3.566   4.509  0.5081  0.8741 -0.0331
 6011TIP3    H239525   5.121   3.471   4.403  0.4461 -0.2457  0.9880
 6012TIP3   OH239526   3.657   3.508  12.419 -0.6916  0.4151  0.0731
 6012TIP3    H139527   3.649   3.509  12.324 -1.1171  2.4688  0.1244
 6012TIP3    H239528   3.713   3.432  12.437 -0.9915 -0.2649 -1.7679
 6013TIP3   OH239529   4.652   5.588  17.010  0.4951  0.0810  0.5172
 6013TIP3    H139530   4.733   5.636  16.992  0.6318 -0.7256 -1.0491
 6013TIP3    H239531   4.589   5.656  17.034  1.4709  0.7644  1.1993
 6014TIP3   OH239532   6.290   1.647  13.479 -0.5642  0.1447 -0.3349
 6014TIP3    H139533   6.349   1.696  13.536 -0.7384  0.4531 -0.4206
 6014TIP3    H239534   6.205   1.653  13.522 -0.9786  1.4992 -1.2950
 6015TIP3   OH239535   1.441   4.264   0.540  0.0481  0.2364 -0.1746
 6015TIP3    H139536   1.439   4.168   0.549 -1.4727  0.4155  1.7577
 6015TIP3    H239537   1.529   4.283   0.508  1.2380 -1.6493  1.8195
 6016TIP3   OH239538   1.633   3.720   5.678  0.6196 -0.2016 -0.0630
 6016TIP3    H139539   1.644   3.640   5.628  0.1493 -1.6630  2.0797
 6016TIP3    H239540   1.561   3.701   5.739 -0.2444  2.2260 -0.2421
 6017TIP3   OH239541   0.608   1.128  14.242 -0.4671  0.8363  0.1209
 6017TIP3    H139542   0.669   1.055  14.255  0.0743  1.0931 -0.9438
 6017TIP3    H239543   0.594   1.131  14.148 -2.7134  0.3343  0.4132
 6018TIP3   OH239544   1.130   2.199  16.079 -0.4027  0.4616  0.0263
 6018TIP3    H139545   1.178   2.119  16.103 -0.2006  0.7784  0.6908
 6018TIP3    H239546   1.190   2.270  16.102 -1.1446  0.8627  0.7650
 6019TIP3   OH239547   4.168   2.003   6.129 -0.1497 -0.7671 -0.1937
 6019TIP3    H139548   4.246   2.011   6.184  0.8712 -0.5734 -1.6144
 6019TIP3    H239549   4.166   1.912   6.102  0.0708 -0.5881 -0.8322
 6020TIP3   OH239550   1.494   2.766   1.910 -0.5091  0.3357 -0.1811
 6020TIP3    H139551   1.427   2.821   1.869 -2.0051 -0.9247  0.5124
 6020TIP3    H239552   1.518   2.702   1.842 -1.7561 -0.6926  0.3230
 6021TIP3   OH239553   0.463   3.133  14.047 -0.3853  1.1122 -0.0042
 6021TIP3    H139554   0.544   3.084  14.060 -0.7886  0.4660  0.0608
 6021TIP3    H239555   0.465   3.159  13.955 -1.4937 -1.4174 -0.7918
 6022TIP3   OH239556   5.751   2.509  15.021 -0.3819  0.0244  0.2172
 6022TIP3    H139557   5.789   2.574  15.081  0.2374 -0.2246  0.1017
 6022TIP3    H239558   5.805   2.516  14.942  1.5507 -2.6828  1.2560
 6023TIP3   OH239559   6.097   6.636   4.387  0.3307  0.4120 -0.5290
 6023TIP3    H139560   6.040   6.560   4.382 -0.9328  1.3242 -0.2995
 6023TIP3    H239561   6.085   6.680   4.303 -0.3257  1.3168  0.0314
 6024TIP3   OH239562   5.073   5.750  15.835  0.4829  0.6900 -0.1809
 6024TIP3    H139563   5.162   5.730  15.806  0.8217 -0.8548  1.8672
 6024TIP3    H239564   5.032   5.792  15.759  2.7179  0.7677 -1.3785
 6025TIP3   OH239565   0.670   5.966   6.460  0.1349 -0.2221  0.5566
 6025TIP3    H139566   0.629   5.993   6.542 -2.1370 -0.9816 -0.2886
 6025TIP3    H239567   0.656   5.872   6.456 -0.4587 -0.0820 -1.0593
 6026TIP3   OH239568   1.679   5.784   3.615  0.0209 -0.4063  0.3215
 6026TIP3    H139569   1.763   5.804   3.655  1.5346 -0.1254 -2.8503
 6026TIP3    H239570   1.620   5.852   3.647  1.1250 -0.2863  2.1396
 6027TIP3   OH239571   1.373   5.944  16.346 -0.0724 -0.0075 -0.0515
 6027TIP3    H139572   1.451   5.976  16.391 -0.0796  0.3050 -0.2564
 6027TIP3    H239573   1.318   5.908  16.416 -0.1107  0.5247  0.2011
 6028TIP3   OH239574   5.701   5.441  14.600 -0.4036 -0.2644  0.0532
 6028TIP3    H139575   5.781   5.493  14.600  0.3978 -1.4680 -0.0000
 6028TIP3    H239576   5.730   5.353  14.626 -1.7702 -0.6143  0.4226
 6029TIP3   OH239577   0.043   2.230   5.134  0.4544  0.6261  0.4269
 6029TIP3    H139578   0.103   2.173   5.087  0.2661  1.6700 -1.1240
 6029TIP3    H239579   0.091   2.312   5.145 -0.0974  0.9326  0.6061
 6030TIP3   OH239580   5.109   3.565   5.763 -0.1767 -0.0407 -0.0747
 6030TIP3    H139581   5.164   3.615   5.824  1.4026 -1.7855 -0.0203
 6030TIP3    H239582   5.041   3.627   5.737  0.3122  1.3865  1.8594
 6031TIP3   OH239583   3.909   5.440  12.147 -0.0471 -0.0303  0.2162
 6031TIP3    H139584   3.954   5.493  12.081  0.7079 -0.8603  0.0519
 6031TIP3    H239585   3.864   5.504  12.202 -0.7538  0.6698 -1.1545
 6032TIP3   OH239586   0.825   6.398  11.896  0.5083  0.0846  0.0999
 6032TIP3    H139587   0.797   6.455  11.824  1.7718  1.3968  0.6289
 6032TIP3    H239588   0.825   6.310  11.858 -0.8184  0.5064 -0.9197
 6033TIP3   OH239589   4.891   1.000  15.593 -0.4052 -0.2456  0.2958
 6033TIP3    H139590   4.957   0.971  15.529 -1.3358  0.1497 -0.8574
 6033TIP3    H239591   4.876   0.923  15.648  0.6562 -0.4893  0.2599
 6034TIP3   OH239592   1.964   0.056  15.614 -0.4459  0.6196  0.1680
 6034TIP3    H139593   1.895  -0.002  15.580  0.7473 -1.4044  1.1066
 6034TIP3    H239594   2.034   0.049  15.549  0.3700 -0.3533  1.1287
 6035TIP3   OH239595   1.599   6.615   0.277  0.3465  0.2488 -1.1679
 6035TIP3    H139596   1.650   6.585   0.202  1.2551  0.3818 -0.6085
 6035TIP3    H239597   1.611   6.547   0.343 -0.0397  0.3767 -0.9635
 6036TIP3   OH239598   3.099   3.998   3.117  0.4664 -0.4148 -0.0931
 6036TIP3    H139599   3.106   3.959   3.030 -0.7272 -1.1333  0.1186
 6036TIP3    H239600   3.113   3.925   3.177  0.1058 -0.1471  0.3173
 6037TIP3   OH239601   6.197   6.125  12.450  0.3305  0.2676 -0.5656
 6037TIP3    H139602   6.176   6.189  12.382  1.2871  1.8462  0.5810
 6037TIP3    H239603   6.124   6.131  12.512 -0.7948 -1.5285 -1.6489
 6038TIP3   OH239604   5.485   4.345   2.743  0.3547  0.2435  0.0023
 6038TIP3    H139605   5.481   4.250   2.736 -0.9597  0.2761  0.2091
 6038TIP3    H239606   5.447   4.376   2.661  1.3565  0.5960 -0.3354
 6039TIP3   OH239607   3.042   4.861   0.401  0.4801  0.5617  0.7058
 6039TIP3    H139608   3.075   4.886   0.315  1.8839 -1.1607  0.7157
 6039TIP3    H239609   3.104   4.901   0.463  0.5964  0.1603  0.8488
 6040TIP3   OH239610   3.023   0.789   0.668 -0.2465 -0.3650  0.8164
 6040TIP3    H139611   3.070   0.735   0.731  0.6468  0.4730  0.8901
 6040TIP3    H239612   3.026   0.877   0.706  0.0005  0.0833 -0.2126
 6041TIP3   OH239613   1.141   6.485   2.099 -0.6510  1.2141  0.0874
 6041TIP3    H139614   1.125   6.409   2.155 -1.8966  1.5071  0.1313
 6041TIP3    H239615   1.094   6.557   2.141 -0.6942  1.6804 -0.7494
 6042TIP3   OH239616   5.407   1.945  11.491  0.8264  0.1017  0.3114
 6042TIP3    H139617   5.419   1.973  11.581 -1.8582 -1.5581  1.2783
 6042TIP3    H239618   5.446   1.858  11.488  0.0737 -0.2376  0.1579
 6043TIP3   OH239619   4.847   4.922   3.239 -0.9840  0.2120  0.8191
 6043TIP3    H139620   4.877   4.970   3.162 -1.1463 -1.1910 -0.1303
 6043TIP3    H239621   4.782   4.980   3.279  0.4110  1.7340  0.9355
 6044TIP3   OH239622   5.739   1.961   5.362  0.1362  0.2809  0.5162
 6044TIP3    H139623   5.670   1.901   5.390  1.5378 -1.3892  0.5052
 6044TIP3    H239624   5.793   1.973   5.441 -0.1035  1.4839  0.4974
 6045TIP3   OH239625   2.042   0.384  17.172  0.0812 -0.6257  0.1233
 6045TIP3    H139626   2.117   0.363  17.117  0.4593 -1.1224  0.8286
 6045TIP3    H239627   1.977   0.419  17.111  2.0378  2.8569 -0.0821
 6046TIP3   OH239628   3.589   4.994   5.914 -0.5522 -0.0783  0.3936
 6046TIP3    H139629   3.577   4.900   5.901  1.5647 -0.5948  1.9113
 6046TIP3    H239630   3.529   5.016   5.986 -0.1573 -0.5217  0.8608
 6047TIP3   OH239631   3.662   4.928  17.008  0.3276 -0.1601 -0.1933
 6047TIP3    H139632   3.688   4.836  17.012  1.4597  0.1595 -0.0427
 6047TIP3    H239633   3.619   4.937  16.923  3.2366 -0.0654 -1.7291
 6048TIP3   OH239634   5.803   0.267  13.678  0.5874  0.0231 -0.1484
 6048TIP3    H139635   5.837   0.334  13.619  1.3909  0.1625  0.4638
 6048TIP3    H239636   5.821   0.302  13.766  1.3081 -1.1502  0.1755
 6049TIP3   OH239637   3.088   6.686  16.209  0.5548  0.2549 -0.1767
 6049TIP3    H139638   3.129   6.768  16.235 -2.0953  1.5336  0.0487
 6049TIP3    H239639   3.158   6.621  16.219  2.2055  2.1765  1.2825
 6050TIP3   OH239640   6.051   4.900   3.788 -0.0969  0.4929 -0.2377
 6050TIP3    H139641   5.992   4.956   3.736  0.7681 -0.2294 -2.0608
 6050TIP3    H239642   6.138   4.933   3.768  0.2006  0.6925  1.3915
 6051TIP3   OH239643   6.654   2.654   3.821  0.2702 -0.0531 -0.1281
 6051TIP3    H139644   6.719   2.716   3.856  0.8671 -0.6638 -0.1630
 6051TIP3    H239645   6.691   2.568   3.839  0.4163 -0.3869 -1.9448
 6052TIP3   OH239646   2.003   4.995  11.129  0.0001 -0.3077 -0.1179
 6052TIP3    H139647   1.974   4.908  11.160 -1.0112 -0.6931 -2.0653
 6052TIP3    H239648   1.975   4.998  11.037  3.0697  0.7447 -1.0555
 6053TIP3   OH239649   4.668   1.859  12.552  0.2633 -0.7318  0.2789
 6053TIP3    H139650   4.744   1.889  12.601 -0.3333 -1.2583  1.5340
 6053TIP3    H239651   4.598   1.853  12.617 -0.3500 -2.1345 -0.4844
 6054TIP3   OH239652   4.713   5.232   4.086  0.2370 -0.2123 -0.2409
 6054TIP3    H139653   4.725   5.216   4.179  3.2285 -0.1384 -0.5602
 6054TIP3    H239654   4.730   5.148   4.044 -2.7143 -0.6445 -0.6336
 6055TIP3   OH239655   6.554   5.923  16.467 -0.0415 -0.1667 -0.2940
 6055TIP3    H139656   6.524   6.013  16.455  0.9222  0.1363 -0.4888
 6055TIP3    H239657   6.648   5.931  16.485 -0.3365 -0.9980  1.7063
 6056TIP3   OH239658   2.366   3.762  13.518 -0.1489 -0.0843 -0.4046
 6056TIP3    H139659   2.362   3.771  13.613  0.6357  0.5142 -0.4263
 6056TIP3    H239660   2.326   3.677  13.500 -3.8415  1.4696  0.1220
 6057TIP3   OH239661   4.559   0.041   0.111 -0.0443 -0.1848  0.2069
 6057TIP3    H139662   4.501  -0.023   0.068 -0.0104  0.3262 -0.6195
 6057TIP3    H239663   4.524   0.049   0.200 -2.9266  2.0797 -1.0257
 6058TIP3   OH239664   3.038   5.390   4.739  0.2956 -0.2969 -0.1796
 6058TIP3    H139665   3.127   5.401   4.706  1.1298 -0.2355  1.9714
 6058TIP3    H239666   3.033   5.451   4.812 -1.4294 -0.5011 -0.1206
 6059TIP3   OH239667   2.137   4.400  14.448  0.0316  0.1699 -0.4010
 6059TIP3    H139668   2.056   4.446  14.425  1.0546  2.5179  0.4769
 6059TIP3    H239669   2.129   4.315  14.406 -2.5937  0.6087 -0.8888
 6060TIP3   OH239670   4.913   2.662  17.038  0.1439  0.2036  0.4120
 6060TIP3    H139671   4.922   2.586  17.095 -0.1227  1.0218  1.5692
 6060TIP3    H239672   4.988   2.717  17.060  0.5417  0.1118 -0.6894
 6061TIP3   OH239673   1.170   3.288   3.587 -0.0136 -0.1029 -0.4039
 6061TIP3    H139674   1.255   3.277   3.543  0.5393 -1.3696  0.9197
 6061TIP3    H239675   1.169   3.379   3.614  0.8387 -0.0203 -0.6286
 6062TIP3   OH239676   1.543   4.140  15.926  0.1372  0.5566  0.3952
 6062TIP3    H139677   1.459   4.103  15.899 -0.8769  2.9284  0.1009
 6062TIP3    H239678   1.582   4.173  15.845  0.5852  0.9344  0.7567
 6063TIP3   OH239679   1.954   5.793   0.669 -1.4320  0.1880 -0.2581
 6063TIP3    H139680   1.908   5.725   0.620  0.5913 -0.3031 -1.5907
 6063TIP3    H239681   1.892   5.866   0.674 -2.3693 -0.4651 -1.9192
 6064TIP3   OH239682   2.896   1.027   3.903  0.1995 -0.0071  0.5673
 6064TIP3    H139683   2.913   1.061   3.816  1.1905  1.6534  1.3869
 6064TIP3    H239684   2.912   1.101   3.962 -1.4971 -0.7934  2.0792
 6065TIP3   OH239685   2.075   5.687   2.106 -0.1933  0.2200 -0.4691
 6065TIP3    H139686   2.156   5.665   2.060 -0.3553 -0.6300 -0.3523
 6065TIP3    H239687   2.016   5.720   2.038  0.4287  1.3761 -0.4722
 6066TIP3   OH239688   5.055   3.232  15.549 -0.1364 -0.2968 -0.0165
 6066TIP3    H139689   5.003   3.157  15.577 -0.8688  0.4993  0.8060
 6066TIP3    H239690   5.095   3.205  15.466 -0.0063 -1.7564  0.5146
 6067TIP3   OH239691   3.428   1.618  13.891  0.2938 -0.4393 -0.4080
 6067TIP3    H139692   3.465   1.652  13.972  1.7763  0.3126 -1.3857
 6067TIP3    H239693   3.457   1.527  13.888 -1.3576 -1.0381  0.8261
 6068TIP3   OH239694   5.203   5.019   3.279  0.3546  0.2829 -0.2775
 6068TIP3    H139695   5.180   5.018   3.186 -2.3696 -0.2033  0.3498
 6068TIP3    H239696   5.247   4.934   3.293 -2.4201 -1.2389 -0.4211
 6069TIP3   OH239697   5.335   3.892  12.367  0.3694  0.2177  0.1184
 6069TIP3    H139698   5.386   3.968  12.397  0.4577  0.0240  0.4653
 6069TIP3    H239699   5.297   3.920  12.283 -0.8891  1.2085  0.9951
 6070TIP3   OH239700   2.980   2.804  15.362 -0.1992  0.0355  0.5244
 6070TIP3    H139701   3.001   2.714  15.335  0.4966  0.0066  1.1397
 6070TIP3    H239702   3.041   2.859  15.312 -1.7463  0.3131 -1.1259
 6071TIP3   OH239703   6.446   2.051  16.028 -0.4153 -0.0232  0.2068
 6071TIP3    H139704   6.412   2.000  15.955  1.3314 -1.8382  0.6063
 6071TIP3    H239705   6.540   2.055  16.012 -0.0204 -0.3568  2.2704
 6072TIP3   OH239706   5.139   3.606   3.100 -0.6444  0.4303 -0.1637
 6072TIP3    H139707   5.155   3.588   3.008 -0.8230 -0.4402 -0.0397
 6072TIP3    H239708   5.045   3.624   3.105 -0.1949  2.9332 -0.5087
 6073TIP3   OH239709   1.388   5.124   2.509 -0.2712  0.2179  0.1874
 6073TIP3    H139710   1.478   5.148   2.531  0.0079  0.5180 -1.2118
 6073TIP3    H239711   1.390   5.108   2.415 -1.3585 -1.2908  0.4008
 6074TIP3   OH239712   1.929   0.734   1.125  0.1705 -0.6556  0.1351
 6074TIP3    H139713   1.969   0.761   1.043 -1.1885 -1.4888 -0.8058
 6074TIP3    H239714   1.945   0.807   1.185  1.0841 -0.0103 -0.8761
 6075TIP3   OH239715   4.659   5.305  14.476  0.1591  0.4445  0.4755
 6075TIP3    H139716   4.585   5.336  14.529 -0.1659  0.9268 -0.2561
 6075TIP3    H239717   4.712   5.254  14.537 -0.6914  0.2341  1.0461
 6076TIP3   OH239718   6.099   4.641   5.959 -0.2184 -0.1190 -0.3616
 6076TIP3    H139719   6.020   4.662   5.909  0.6135 -1.5003 -2.3374
 6076TIP3    H239720   6.092   4.548   5.976  1.6192 -0.5513 -1.7879
 6077TIP3   OH239721   4.160   6.398   3.917  0.3236 -0.6428 -0.3936
 6077TIP3    H139722   4.186   6.474   3.866  0.6310  0.1327  0.8849
 6077TIP3    H239723   4.184   6.323   3.863  4.3958  0.0357  0.3046
 6078TIP3   OH239724   4.625   2.603  16.934  0.2200 -0.0620  0.0918
 6078TIP3    H139725   4.633   2.579  16.842  2.4039  2.0015 -0.3204
 6078TIP3    H239726   4.714   2.627  16.961 -0.8912  2.4600  1.8032
 6079TIP3   OH239727   3.543   3.294  14.194 -0.0993  0.0484 -0.1573
 6079TIP3    H139728   3.588   3.318  14.114  0.5828  0.3826  0.3208
 6079TIP3    H239729   3.560   3.200  14.204  0.7453  0.2364  0.1801
 6080TIP3   OH239730   0.049   3.750   4.835  0.2342  0.2053  0.3899
 6080TIP3    H139731  -0.045   3.731   4.828  0.1099  0.2430  1.8457
 6080TIP3    H239732   0.087   3.671   4.873  0.8200  0.1284 -0.3474
 6081TIP3   OH239733   1.250   1.132  16.464 -0.1268  0.0464 -0.0625
 6081TIP3    H139734   1.285   1.135  16.375 -1.1722  1.9354 -0.4599
 6081TIP3    H239735   1.155   1.130  16.451 -0.2547 -1.1384  1.0086
 6082TIP3   OH239736   3.037   3.441   0.972  0.0090  0.5072  0.0900
 6082TIP3    H139737   3.021   3.476   1.059 -2.4193 -0.1133 -0.0655
 6082TIP3    H239738   3.051   3.518   0.917  0.3199  0.9540  0.7875
 6083TIP3   OH239739   2.412   3.665  12.368  0.1714  0.5949 -0.1866
 6083TIP3    H139740   2.458   3.633  12.290  2.1386  0.0369  1.1885
 6083TIP3    H239741   2.388   3.587  12.416  1.5799  1.0355  1.2487
 6084TIP3   OH239742   5.793   4.284  15.172 -0.5815  0.2453  0.0714
 6084TIP3    H139743   5.783   4.322  15.259 -0.7384  0.5669 -0.0875
 6084TIP3    H239744   5.703   4.269  15.142 -0.5664  1.6353 -0.6957
 6085TIP3   OH239745   1.378   0.212  15.195 -0.3523  0.3440  0.7181
 6085TIP3    H139746   1.401   0.219  15.288 -1.0167 -1.3122  1.0183
 6085TIP3    H239747   1.378   0.118  15.177  0.0605  0.6589 -1.0393
 6086TIP3   OH239748   5.869   4.140  11.728 -0.2334 -0.2329 -0.7125
 6086TIP3    H139749   5.789   4.100  11.761  0.1898 -0.2837  0.2608
 6086TIP3    H239750   5.928   4.140  11.803  0.6097 -0.0194 -1.3748
 6087TIP3   OH239751   3.101   0.356  14.188  0.5921  0.1206  0.4344
 6087TIP3    H139752   3.043   0.426  14.157 -1.4113 -2.2357 -1.2964
 6087TIP3    H239753   3.058   0.323  14.268  0.9749  0.1636  0.6574
 6088TIP3   OH239754   5.160   5.613  15.460 -0.8675  0.1029 -0.0707
 6088TIP3    H139755   5.125   5.659  15.536 -0.5134  0.1637  0.0581
 6088TIP3    H239756   5.200   5.533  15.497 -3.1225 -1.2567 -0.4824
 6089TIP3   OH239757   5.185   2.939   5.634  0.2796 -0.0360 -0.6246
 6089TIP3    H139758   5.139   2.906   5.711 -0.9041  2.1280 -0.3670
 6089TIP3    H239759   5.180   2.867   5.570 -2.4332 -0.2863 -0.1752
 6090TIP3   OH239760   1.834   0.007   5.270  0.4124  0.7118  0.4180
 6090TIP3    H139761   1.846   0.054   5.188 -0.9132 -0.7358 -0.6372
 6090TIP3    H239762   1.909   0.033   5.324  3.0401 -0.6553 -2.3953
 6091TIP3   OH239763   4.401   0.786   0.570 -0.7054 -0.0664  0.5896
 6091TIP3    H139764   4.321   0.831   0.593  0.1454  2.4759 -1.2599
 6091TIP3    H239765   4.382   0.744   0.486 -0.3989 -0.2595  0.6138
 6092TIP3   OH239766   3.576   6.379   5.660 -0.4806 -0.0264 -0.5523
 6092TIP3    H139767   3.556   6.445   5.594 -1.7727 -0.2475 -0.3942
 6092TIP3    H239768   3.518   6.400   5.733  0.5143 -0.1490  0.2758
 6093TIP3   OH239769   6.535   5.651  16.398  0.1461 -0.2757  0.7681
 6093TIP3    H139770   6.544   5.735  16.442 -0.0603 -0.4208  1.0810
 6093TIP3    H239771   6.471   5.603  16.449 -0.0241 -0.4805  0.3666
 6094TIP3   OH239772   3.968   2.900   1.491 -0.4590  0.4821  0.1988
 6094TIP3    H139773   4.060   2.921   1.473 -0.0928 -0.6427  0.7123
 6094TIP3    H239774   3.933   2.979   1.532  0.4401  0.7068  0.5503
 6095TIP3   OH239775   1.912   2.196   1.718  0.1451  0.1675 -0.0124
 6095TIP3    H139776   1.963   2.246   1.654  0.6530  0.8672  0.9256
 6095TIP3    H239777   1.894   2.113   1.674 -1.1131  1.3348 -1.7907
 6096TIP3   OH239778   1.804   5.115  17.168 -0.2052 -0.1256 -0.2689
 6096TIP3    H139779   1.898   5.115  17.187 -0.1914 -0.3120 -0.3430
 6096TIP3    H239780   1.769   5.043  17.219 -0.4771  0.6111  0.6062
 6097TIP3   OH239781   1.713   2.284   5.373  0.5326 -0.0905 -0.0139
 6097TIP3    H139782   1.713   2.322   5.285  1.6620  0.1513  0.0750
 6097TIP3    H239783   1.725   2.190   5.360  1.9853  0.0920 -0.0818
 6098TIP3   OH239784   2.037   5.544   1.708 -0.1975  0.7203 -0.4550
 6098TIP3    H139785   2.093   5.620   1.722  1.7377 -0.7173 -0.1311
 6098TIP3    H239786   2.012   5.550   1.616  2.0188  0.4353 -1.1269
 6099TIP3   OH239787   3.904   2.093   5.208  0.2797 -0.2340 -0.4332
 6099TIP3    H139788   3.889   2.016   5.153 -0.6626  0.0141 -0.5304
 6099TIP3    H239789   3.903   2.166   5.147 -0.7151  0.0368 -0.1037
 6100TIP3   OH239790   4.891   0.865  13.358  0.2814  0.0312 -0.3611
 6100TIP3    H139791   4.962   0.928  13.344 -0.0477  0.2417 -1.1498
 6100TIP3    H239792   4.814   0.908  13.320 -0.3048 -0.1222  0.6403
 6101TIP3   OH239793   0.143   4.391  16.008  0.3400 -0.3792 -0.6200
 6101TIP3    H139794   0.071   4.420  16.064  0.6280 -0.7735 -0.0436
 6101TIP3    H239795   0.210   4.459  16.017  0.9059 -1.0791  0.5184
 6102TIP3   OH239796   1.162   6.454   0.319 -0.0495  0.0539 -0.9356
 6102TIP3    H139797   1.091   6.462   0.383 -0.6210 -2.7035 -1.1730
 6102TIP3    H239798   1.178   6.360   0.313  2.9141  0.5746 -1.6957
 6103TIP3   OH239799   6.756   5.212   0.487 -0.5387  0.6464  0.2606
 6103TIP3    H139800   6.703   5.147   0.440  1.7249  0.0218 -1.5292
 6103TIP3    H239801   6.758   5.288   0.429  1.2591  0.3275 -0.1136
 6104TIP3   OH239802   5.482   0.085   5.412 -0.2680 -0.1524  0.3870
 6104TIP3    H139803   5.455   0.013   5.356 -1.2177  0.8651 -0.4906
 6104TIP3    H239804   5.546   0.134   5.359 -1.0360  0.7097  0.2426
 6105TIP3   OH239805   6.471   0.940   1.811  0.2750 -0.4934 -0.5997
 6105TIP3    H139806   6.533   1.000   1.769  0.7557 -1.4218 -1.2410
 6105TIP3    H239807   6.473   0.964   1.903  1.4921 -0.4165 -0.6355
 6106TIP3   OH239808   5.778   2.325   5.033 -0.4650  0.3146  0.1555
 6106TIP3    H139809   5.755   2.310   4.941 -3.5518 -1.0806  1.0894
 6106TIP3    H239810   5.753   2.416   5.050 -2.4829 -0.2412  0.3006
 6107TIP3   OH239811   6.694   4.804  14.360  0.0309  0.4858 -0.1451
 6107TIP3    H139812   6.717   4.821  14.451 -0.5988  1.4964 -0.1741
 6107TIP3    H239813   6.759   4.740  14.330  0.0867 -0.0358  1.0829
 6108TIP3   OH239814   0.674   0.641   2.263  0.3385 -0.2040  0.1059
 6108TIP3    H139815   0.617   0.595   2.324  0.8001  1.3662  1.7461
 6108TIP3    H239816   0.620   0.656   2.186 -0.3335 -1.9462  0.2133
 6109TIP3   OH239817   1.060   4.302  15.516 -0.1998 -0.0668 -0.6236
 6109TIP3    H139818   1.116   4.380  15.517 -0.1776 -0.0838 -0.0143
 6109TIP3    H239819   1.064   4.270  15.426  1.4070 -0.5381 -0.3957
 6110TIP3   OH239820   1.155   3.967   0.760 -0.4311 -0.5688 -0.2424
 6110TIP3    H139821   1.235   4.007   0.795  0.4730 -1.4676 -1.2494
 6110TIP3    H239822   1.141   3.890   0.815 -0.5012 -0.5155 -0.1854
 6111TIP3   OH239823   3.990   6.174   1.771  0.6364  0.0732 -0.7634
 6111TIP3    H139824   3.908   6.216   1.746  0.8193  1.7754  1.3747
 6111TIP3    H239825   3.969   6.127   1.852  1.5969 -0.0431 -0.5745
 6112TIP3   OH239826   4.100   0.485  13.730  0.1879 -0.2657 -0.1225
 6112TIP3    H139827   4.108   0.552  13.662 -0.3656 -1.0191 -0.9369
 6112TIP3    H239828   4.149   0.410  13.696 -2.7226 -1.7686 -1.1371
 6113TIP3   OH239829   1.229   3.545  12.041 -0.0395  0.3616  0.0371
 6113TIP3    H139830   1.238   3.469  12.098  0.6608 -1.0619 -1.9314
 6113TIP3    H239831   1.136   3.549  12.020  0.0982 -0.6746 -0.8059
 6114TIP3   OH239832   0.126   3.403   3.054 -0.5228  0.4673  0.4975
 6114TIP3    H139833   0.134   3.490   3.094  0.5036  0.0756  1.1696
 6114TIP3    H239834   0.215   3.381   3.028 -0.7915 -0.3695  0.2844
 6115TIP3   OH239835   6.186   6.296   0.933 -0.5404  0.4150 -0.3248
 6115TIP3    H139836   6.227   6.265   0.852  0.1920 -0.5164  0.3806
 6115TIP3    H239837   6.101   6.252   0.935 -0.4538  0.2388 -0.4592
 6116TIP3   OH239838   5.058   0.227   1.931 -0.3973 -0.0524  0.2253
 6116TIP3    H139839   5.130   0.275   1.891  0.8386 -0.3942  2.0132
 6116TIP3    H239840   4.980   0.260   1.886  0.7613  1.0198 -1.0457
 6117TIP3   OH239841   0.852   1.288  14.223 -0.1748 -0.8864 -0.6131
 6117TIP3    H139842   0.846   1.320  14.132  0.1348  0.0152 -0.3271
 6117TIP3    H239843   0.761   1.279  14.251 -0.2787 -0.1528 -0.6779
 6118TIP3   OH239844   1.325   5.054  14.600 -0.2690 -0.1114  0.2044
 6118TIP3    H139845   1.317   5.111  14.677  0.6518  0.7248 -0.2963
 6118TIP3    H239846   1.250   4.996  14.606 -0.6295  0.4354  1.3334
 6119TIP3   OH239847   1.873   1.068  17.251 -0.5547  0.1742 -0.0015
 6119TIP3    H139848   1.907   1.083  17.163 -0.1352 -3.3498 -0.5044
 6119TIP3    H239849   1.844   1.154  17.280  1.9612  1.9340 -2.4357
 6120TIP3   OH239850   5.069   0.863  12.305 -0.1380  0.1976 -0.2927
 6120TIP3    H139851   5.030   0.784  12.341  0.0404 -0.1223 -0.7932
 6120TIP3    H239852   5.163   0.853  12.321 -0.1547  0.4865 -0.0112
 6121TIP3   OH239853   5.804   3.582   1.636 -0.1509  0.6659 -0.4786
 6121TIP3    H139854   5.783   3.519   1.704 -0.2875  0.1989 -0.9518
 6121TIP3    H239855   5.761   3.549   1.558 -1.2837  2.0189 -0.4431
 6122TIP3   OH239856   6.502   3.965  13.956  0.0660  0.0012 -0.0215
 6122TIP3    H139857   6.548   3.887  13.986  1.6422  0.2342 -1.7395
 6122TIP3    H239858   6.442   3.934  13.888 -0.0496  0.1417  0.0163
 6123TIP3   OH239859   3.248   5.166   2.955 -0.3551 -0.1706  0.1214
 6123TIP3    H139860   3.311   5.098   2.932  0.7415  1.4594 -1.8542
 6123TIP3    H239861   3.164   5.132   2.924  0.3181 -0.2711 -1.6384
 6124TIP3   OH239862   6.451   1.916   5.335  0.0092 -0.1781 -0.2909
 6124TIP3    H139863   6.503   1.956   5.264  1.0598 -0.8958  0.0582
 6124TIP3    H239864   6.497   1.943   5.415  0.9797 -2.4359 -0.0705
 6125TIP3   OH239865   4.526   3.258   0.785  0.1702  0.4089 -0.2927
 6125TIP3    H139866   4.575   3.213   0.854  0.3342  1.1621  0.0871
 6125TIP3    H239867   4.571   3.234   0.704 -0.8259 -1.5560 -0.2836
 6126TIP3   OH239868   3.123   0.268  16.003  0.2871  0.1592  0.3966
 6126TIP3    H139869   3.056   0.245  16.068  0.2380 -1.3398 -0.1551
 6126TIP3    H239870   3.182   0.328  16.049 -1.5095  1.6325  0.8397
 6127TIP3   OH239871   6.561   2.255   1.746 -0.2890  0.3143  0.2581
 6127TIP3    H139872   6.567   2.325   1.681  0.5583 -0.0157 -0.0351
 6127TIP3    H239873   6.499   2.288   1.811 -0.5355  0.9845 -0.3079
 6128TIP3   OH239874   3.523   3.145  11.903 -0.4169  0.3477 -0.1657
 6128TIP3    H139875   3.541   3.071  11.962  0.2969 -0.3101 -1.2000
 6128TIP3    H239876   3.606   3.160  11.858 -1.7699 -1.2758 -3.3789
 6129TIP3   OH239877   2.676   6.779   5.864 -0.1222  0.4641  0.5529
 6129TIP3    H139878   2.604   6.767   5.926 -0.7200 -0.0667 -0.2365
 6129TIP3    H239879   2.673   6.872   5.842 -1.4956  0.1795 -0.5784
 6130TIP3   OH239880   4.798   6.310  13.109  0.6703 -0.6223  0.0063
 6130TIP3    H139881   4.760   6.318  13.197  1.0914 -0.0114  0.1374
 6130TIP3    H239882   4.891   6.293  13.125  1.2419  2.0187 -0.3156
 6131TIP3   OH239883   4.464   2.937  14.261  0.2196  0.2852 -0.0434
 6131TIP3    H139884   4.469   2.941  14.165  0.9330 -0.5725 -0.0493
 6131TIP3    H239885   4.373   2.910  14.278  0.1119  0.3621 -0.4795
 6132TIP3   OH239886   6.395   4.876   5.238  0.3323 -0.2989 -0.1886
 6132TIP3    H139887   6.372   4.800   5.186 -0.6962 -0.7814  0.9625
 6132TIP3    H239888   6.386   4.950   5.178 -0.1952 -0.9163 -0.8660
 6133TIP3   OH239889   3.133   1.517  13.843  0.2061 -0.0546 -0.3459
 6133TIP3    H139890   3.160   1.563  13.764  1.7461 -1.3134 -0.5646
 6133TIP3    H239891   3.214   1.501  13.891 -0.7711  1.3741  1.8828
 6134TIP3   OH239892   1.090   2.783   5.829 -0.0324 -0.3751 -0.4687
 6134TIP3    H139893   1.033   2.740   5.765 -1.6535  0.3000  0.4938
 6134TIP3    H239894   1.030   2.825   5.890  1.5012  2.5127 -0.8475
 6135TIP3   OH239895   2.555   1.482   4.691  0.1410 -0.4049  0.1349
 6135TIP3    H139896   2.646   1.480   4.720 -0.3733  1.8267  2.0625
 6135TIP3    H239897   2.545   1.567   4.647 -0.8822 -0.8352 -0.4841
 6136TIP3   OH239898   4.009   5.455   4.751 -0.2050  0.1636 -0.4656
 6136TIP3    H139899   4.009   5.367   4.713 -0.4302 -0.5850  1.2049
 6136TIP3    H239900   3.917   5.471   4.772 -0.1105  0.6357 -0.4092
 6137TIP3   OH239901   2.353   4.319   2.346  0.7300  0.1633  0.5893
 6137TIP3    H139902   2.272   4.359   2.377  0.2977  0.2871 -0.6724
 6137TIP3    H239903   2.415   4.334   2.417  0.1657  1.7790  0.7687
 6138TIP3   OH239904   4.756   5.142   0.170  0.4580  0.1043  0.3282
 6138TIP3    H139905   4.701   5.219   0.181  0.1886 -0.2285  1.4604
 6138TIP3    H239906   4.843   5.176   0.149  0.6016  0.7688  1.9409
 6139TIP3   OH239907   0.460   2.693   6.156 -0.6568 -0.0051 -0.4192
 6139TIP3    H139908   0.478   2.619   6.096 -0.3373 -1.1698  1.0878
 6139TIP3    H239909   0.406   2.655   6.225  1.1850  0.6894  1.4527
 6140TIP3   OH239910   2.594   2.955   0.972 -0.0970  0.0515  0.4289
 6140TIP3    H139911   2.556   2.937   0.886 -1.0564 -1.1544  1.0895
 6140TIP3    H239912   2.554   2.890   1.030  1.2297  0.2585  1.6050
 6141TIP3   OH239913   0.581   2.938   0.887  0.2192  0.4300  0.0510
 6141TIP3    H139914   0.610   3.029   0.877 -2.6294  1.3554 -0.2937
 6141TIP3    H239915   0.579   2.904   0.797 -0.4280  0.6247 -0.0176
 6142TIP3   OH239916   0.068   5.370  11.040  0.3057  0.3059 -0.2590
 6142TIP3    H139917   0.060   5.418  10.958  0.9888  0.5307 -0.1983
 6142TIP3    H239918  -0.017   5.328  11.052  0.3813 -0.1929 -1.3770
 6143TIP3   OH239919   5.779   1.810   3.617 -0.3760  0.2397  0.0049
 6143TIP3    H139920   5.696   1.786   3.660 -0.2914  0.1599  0.1243
 6143TIP3    H239921   5.762   1.896   3.579  0.2166  1.2727  2.0210
 6144TIP3   OH239922   6.780   2.504   2.438  0.4796 -0.0623  0.3247
 6144TIP3    H139923   6.726   2.428   2.461  0.3740 -0.0879 -0.0010
 6144TIP3    H239924   6.825   2.478   2.357 -0.6680  0.7457 -0.5913
 6145TIP3   OH239925   0.226   1.965   1.003 -0.0142  0.6847 -0.3978
 6145TIP3    H139926   0.249   2.027   1.073  0.7135  0.6139 -0.5683
 6145TIP3    H239927   0.131   1.955   1.010  0.0630  0.5664  0.6820
 6146TIP3   OH239928   0.978   0.893  17.013  0.7394  0.3300  0.1640
 6146TIP3    H139929   1.008   0.903  16.923  1.2597  2.1176  0.5132
 6146TIP3    H239930   0.890   0.857  17.005  1.2064 -0.5880 -1.0089
 6147TIP3   OH239931   5.115   3.285   2.270  0.6936  0.1166 -0.1874
 6147TIP3    H139932   5.130   3.212   2.329  0.9440 -0.4972 -1.0057
 6147TIP3    H239933   5.202   3.307   2.236  0.3592 -0.5390 -1.5068
 6148TIP3   OH239934   6.744   1.224   3.375 -0.1233 -0.0555  0.1141
 6148TIP3    H139935   6.656   1.211   3.409 -0.2296  0.7063  0.1453
 6148TIP3    H239936   6.776   1.136   3.357 -0.4311 -0.4186  1.2734
 6149TIP3   OH239937   3.214   1.206   1.033 -0.4567 -0.7657 -0.1640
 6149TIP3    H139938   3.268   1.152   1.091  3.4889  3.9916  0.8830
 6149TIP3    H239939   3.131   1.215   1.078  0.8073 -1.3235  2.3487
 6150TIP3   OH239940   0.061   1.518  11.558 -0.2901 -0.1340  0.5849
 6150TIP3    H139941   0.021   1.468  11.629 -0.5080 -1.4935 -0.4835
 6150TIP3    H239942  -0.001   1.590  11.542 -1.3932 -1.1277  0.2475
 6151TIP3   OH239943   4.933   5.597   4.948 -0.1150  0.0662  0.1137
 6151TIP3    H139944   4.987   5.674   4.932 -0.0767  0.6414  2.7478
 6151TIP3    H239945   4.981   5.524   4.910  2.0452  0.7208  1.5202
 6152TIP3   OH239946   1.651   3.267  15.472  0.3827  0.0160  0.1169
 6152TIP3    H139947   1.744   3.289  15.460 -0.2104  0.5193 -4.6751
 6152TIP3    H239948   1.650   3.171  15.473  0.8812 -0.0127 -0.9735
 6153TIP3   OH239949   4.056   1.417   1.617 -0.4571 -0.1753 -0.3917
 6153TIP3    H139950   4.013   1.446   1.697 -2.0084 -0.0011 -1.2589
 6153TIP3    H239951   4.147   1.442   1.628 -1.0619  1.7601  0.4287
 6154TIP3   OH239952   3.383   2.418  14.064 -0.6286  0.0049  0.6381
 6154TIP3    H139953   3.411   2.499  14.023 -0.5778  0.5410  1.7009
 6154TIP3    H239954   3.462   2.381  14.102 -0.6954 -0.4153  0.3688
 6155TIP3   OH239955   5.622   6.781   0.695  0.0687 -0.5040  0.1214
 6155TIP3    H139956   5.700   6.821   0.732 -0.6300  1.2196 -0.2312
 6155TIP3    H239957   5.616   6.817   0.607 -1.2814 -0.3825  0.2491
 6156TIP3   OH239958   0.725   4.000  15.628 -0.7779 -0.2825  0.8426
 6156TIP3    H139959   0.631   4.003  15.649 -1.2397 -2.8644 -0.6602
 6156TIP3    H239960   0.767   3.972  15.709 -1.2698  0.8605  1.5159
 6157TIP3   OH239961   6.063   2.785  16.869 -0.4657  0.4957 -0.3832
 6157TIP3    H139962   6.134   2.814  16.926 -1.0812  2.2168 -0.4503
 6157TIP3    H239963   6.006   2.734  16.927 -0.7295  1.6514  0.3867
 6158TIP3   OH239964   0.066   6.089  15.913 -0.5062 -0.6687 -0.3996
 6158TIP3    H139965   0.040   6.035  15.838  0.7718 -0.2461 -1.1749
 6158TIP3    H239966   0.012   6.059  15.985 -1.9530 -0.9195 -1.5655
 6159TIP3   OH239967   5.232   3.721   6.815 -0.5728  0.3853 -0.2867
 6159TIP3    H139968   5.163   3.750   6.756 -1.0726 -3.8494 -1.9754
 6159TIP3    H239969   5.187   3.666   6.879  0.8033  0.0595  0.4256
 6160TIP3   OH239970   4.946   6.386   1.469 -0.2521 -0.2511  0.2103
 6160TIP3    H139971   4.960   6.368   1.562  0.4764 -0.2500  0.1051
 6160TIP3    H239972   4.853   6.406   1.462 -0.1320  0.6814  1.0922
 6161TIP3   OH239973   2.889   0.859  14.364  0.8503 -0.0957  0.2009
 6161TIP3    H139974   2.857   0.838  14.452 -0.4013 -0.0723 -0.2400
 6161TIP3    H239975   2.809   0.866  14.311  1.6780 -1.4190 -1.2207
 6162TIP3   OH239976   6.749   5.494  13.256  0.1831 -0.8513  0.5406
 6162TIP3    H139977   6.749   5.442  13.336 -0.3674  1.5948  2.2069
 6162TIP3    H239978   6.782   5.580  13.283 -1.2331  0.4233 -1.5924
 6163TIP3   OH239979   2.197   2.950  15.341  0.4157  0.0317  0.3367
 6163TIP3    H139980   2.221   3.021  15.281 -0.1877 -1.9213 -2.2961
 6163TIP3    H239981   2.142   2.992  15.406  0.6136  2.1156 -0.7881
 6164TIP3   OH239982   3.354   0.650   1.874  0.7807  0.7320  0.2166
 6164TIP3    H139983   3.333   0.651   1.780 -0.3834 -1.2257  0.4055
 6164TIP3    H239984   3.437   0.696   1.881  1.7651 -0.5887 -2.0400
 6165TIP3   OH239985   1.683   1.722   1.480  0.0637 -0.2309  0.6910
 6165TIP3    H139986   1.632   1.642   1.498  1.3123 -1.3041 -0.4104
 6165TIP3    H239987   1.747   1.726   1.551 -0.6314  0.3500  1.2961
 6166TIP3   OH239988   0.662   6.402   3.665 -0.5287 -0.5368 -0.3134
 6166TIP3    H139989   0.654   6.336   3.734  2.0301 -0.0300  0.5113
 6166TIP3    H239990   0.732   6.369   3.608  0.1956  1.0325 -0.3597
 6167TIP3   OH239991   6.149   6.773   3.595 -0.8196 -0.4884 -0.6090
 6167TIP3    H139992   6.095   6.704   3.556  0.1094 -0.7174 -1.4834
 6167TIP3    H239993   6.236   6.735   3.603 -0.3628  0.4924 -0.8310
 6168TIP3   OH239994   4.240   6.708  16.751  0.5963 -0.5655 -0.4950
 6168TIP3    H139995   4.266   6.616  16.755 -0.5574 -0.8434  0.6330
 6168TIP3    H239996   4.146   6.708  16.768  0.7595  0.9181  0.5367
 6169TIP3   OH239997   6.388   0.853   6.182 -0.0370 -0.0347 -0.4290
 6169TIP3    H139998   6.309   0.809   6.211  0.4934 -0.4029  0.4783
 6169TIP3    H239999   6.387   0.844   6.086 -1.4199  0.5524 -0.4806
 6170TIP3   OH240000   3.751   4.026  12.543  0.7138  0.0397 -0.1204
 6170TIP3    H140001   3.730   4.115  12.513 -0.9925 -0.4824 -0.5227
 6170TIP3    H240002   3.792   3.984  12.467  0.3238  0.0719 -0.3496
 6171TIP3   OH240003   5.819   2.859  12.235 -0.0949 -0.7285 -0.3845
 6171TIP3    H140004   5.820   2.848  12.140  0.5452  1.6858 -0.6897
 6171TIP3    H240005   5.909   2.838  12.262  0.0723 -0.1363 -0.4781
 6172TIP3   OH240006   5.673   4.587   5.270 -0.0230  1.0272  0.2279
 6172TIP3    H140007   5.603   4.567   5.332 -0.1592 -0.8021 -0.4824
 6172TIP3    H240008   5.627   4.625   5.195  0.0076  2.0584  0.7265
 6173TIP3   OH240009   1.924   6.555   5.001  0.3368  0.1274 -0.7640
 6173TIP3    H140010   1.953   6.492   5.067  1.3428  0.5675 -0.7810
 6173TIP3    H240011   1.891   6.501   4.930 -0.1120 -0.3615 -0.1911
 6174TIP3   OH240012   5.879   6.154   5.052  0.3983  0.0549 -0.5006
 6174TIP3    H140013   5.913   6.086   4.994  0.3118 -2.1407  1.9608
 6174TIP3    H240014   5.955   6.207   5.074  1.1404 -1.3067  0.2738
 6175TIP3   OH240015   4.495   6.417  16.590 -0.1954 -0.5769 -0.5973
 6175TIP3    H140016   4.452   6.353  16.647 -1.1307  0.5920  0.0366
 6175TIP3    H240017   4.426   6.446  16.531 -0.0800  0.6897 -0.1223
 6176TIP3   OH240018   5.983   2.199   5.413  0.9079  0.6453 -0.4076
 6176TIP3    H140019   5.993   2.280   5.463 -0.2810  0.7929 -0.4016
 6176TIP3    H240020   5.930   2.142   5.470 -0.2146  0.7158 -1.3589
 6177TIP3   OH240021   6.680   6.482  15.010  0.0145 -0.9872  0.5392
 6177TIP3    H140022   6.692   6.497  15.104  1.8060  0.1863  0.1395
 6177TIP3    H240023   6.622   6.552  14.982  1.3653  0.0630  0.3356
 6178TIP3   OH240024   3.410   6.568  15.536  0.0683  0.2365 -0.0609
 6178TIP3    H140025   3.404   6.664  15.531 -0.7715  0.3118  2.2498
 6178TIP3    H240026   3.320   6.538  15.529  0.2557 -0.3557  0.0491
 6179TIP3   OH240027   0.837   2.939  15.310 -0.3631  0.2900  0.7020
 6179TIP3    H140028   0.884   2.861  15.282  0.9037  0.7404  1.4634
 6179TIP3    H240029   0.768   2.907  15.367 -0.2113 -0.3186  0.5462
 6180TIP3   OH240030   5.198   6.624  14.035 -0.6977  0.3127  0.5025
 6180TIP3    H140031   5.191   6.534  14.003 -0.1427  0.1091  0.9519
 6180TIP3    H240032   5.242   6.671  13.964  0.4820 -0.1280  0.9205
 6181TIP3   OH240033   6.171   6.631   4.080  0.3550 -0.5012 -0.2367
 6181TIP3    H140034   6.083   6.622   4.045 -0.0248 -0.2683  0.6447
 6181TIP3    H240035   6.216   6.552   4.052 -1.1720 -2.3523  2.2807
 6182TIP3   OH240036   5.129   5.245  14.705 -0.0409 -0.1543 -0.3955
 6182TIP3    H140037   5.100   5.161  14.741  1.3629  0.3709  2.0743
 6182TIP3    H240038   5.201   5.222  14.646  2.0956 -0.5454  2.2646
 6183TIP3   OH240039   1.713   5.151  16.828 -0.4164  0.2348 -0.2247
 6183TIP3    H140040   1.672   5.186  16.749 -1.0544 -1.3110 -0.5955
 6183TIP3    H240041   1.682   5.208  16.899  0.1111  1.5871 -1.0614
 6184TIP3   OH240042   0.086   0.758  14.363 -0.1609 -0.3597 -0.6011
 6184TIP3    H140043   0.014   0.755  14.426 -0.0832  0.1756 -0.4777
 6184TIP3    H240044   0.080   0.676  14.314 -0.1275 -0.8484  0.2100
 6185TIP3   OH240045   4.251   4.827  14.285 -0.3076  0.3339  0.0658
 6185TIP3    H140046   4.228   4.741  14.322  0.4854  0.8159  1.7653
 6185TIP3    H240047   4.168   4.867  14.261 -0.7122 -0.7350 -0.3256
 6186TIP3   OH240048   3.216   5.608  15.923 -0.1983 -0.3666 -0.3291
 6186TIP3    H140049   3.212   5.564  16.008 -1.2718 -0.3278 -0.3577
 6186TIP3    H240050   3.169   5.690  15.937 -1.8114 -1.0931 -1.4003
 6187TIP3   OH240051   0.102   3.396   2.166 -0.1436 -0.1477 -1.0351
 6187TIP3    H140052   0.158   3.410   2.090  0.9880 -0.5494 -0.2917
 6187TIP3    H240053   0.115   3.474   2.220  1.0647 -1.0188 -0.0327
 6188TIP3   OH240054   1.447   4.358   3.969  0.3103 -0.7174 -0.7478
 6188TIP3    H140055   1.515   4.425   3.980  1.7766 -2.0274 -1.5745
 6188TIP3    H240056   1.423   4.334   4.059 -0.9745  1.6235 -0.4388
 6189TIP3   OH240057   3.080   1.048  12.787 -0.0966 -0.2375 -0.0086
 6189TIP3    H140058   3.141   1.057  12.714  0.4339  0.7414  0.5432
 6189TIP3    H240059   3.032   0.967  12.769 -0.3932  0.3108 -1.7426
 6190TIP3   OH240060   1.087   6.243  16.278  0.7372 -0.1862 -0.0215
 6190TIP3    H140061   1.160   6.183  16.259  1.8271  0.6517  1.4443
 6190TIP3    H240062   1.111   6.285  16.360 -0.9991  0.7677  0.0202
 6191TIP3   OH240063   1.607   1.499   3.663  0.2836 -0.1718 -0.2767
 6191TIP3    H140064   1.641   1.429   3.607 -1.2421 -0.8283 -0.3935
 6191TIP3    H240065   1.652   1.486   3.747 -0.8533 -2.0463  0.0815
 6192TIP3   OH240066   2.549   5.632   5.459 -0.3889 -0.7525  0.1523
 6192TIP3    H140067   2.502   5.711   5.484  2.2744  0.5871  1.1106
 6192TIP3    H240068   2.482   5.563   5.459 -2.5118  1.2527  0.4459
 6193TIP3   OH240069   0.799   0.803   0.014  0.1786  0.8107  0.3169
 6193TIP3    H140070   0.719   0.825   0.062 -0.4559  0.4761 -0.5716
 6193TIP3    H240071   0.823   0.884  -0.031  0.7763  1.1258  1.1917
 6194TIP3   OH240072   2.284   3.392  12.740  0.1061  0.2162  0.1313
 6194TIP3    H140073   2.286   3.483  12.768  3.5653  0.4403 -0.6030
 6194TIP3    H240074   2.337   3.346  12.806  1.7430 -0.5403 -1.6548
 6195TIP3   OH240075   1.274   0.206  14.929  0.3576  0.2569  0.3712
 6195TIP3    H140076   1.212   0.139  14.959  0.4472  0.6623  1.4902
 6195TIP3    H240077   1.351   0.193  14.984 -0.0526  2.0285  1.4089
 6196TIP3   OH240078   4.689   1.226  10.918  0.4249  0.1380 -0.0547
 6196TIP3    H140079   4.673   1.244  10.826  1.4503 -0.9619 -0.4546
 6196TIP3    H240080   4.635   1.150  10.938  0.1980  0.3772  0.2579
 6197TIP3   OH240081   1.052   0.569  12.184  0.3102  0.2310  0.5038
 6197TIP3    H140082   1.129   0.607  12.228  0.4953 -0.2974  0.6440
 6197TIP3    H240083   1.077   0.566  12.092  0.6037 -0.2929  0.6014
 6198TIP3   OH240084   1.131   4.862  10.903  0.0167  0.1644  0.2349
 6198TIP3    H140085   1.124   4.771  10.872  0.3818  0.2744 -0.1659
 6198TIP3    H240086   1.210   4.895  10.862  0.1832  0.4974  0.8217
 6199TIP3   OH240087   4.548   2.015  15.713 -0.1553  0.0977  0.2685
 6199TIP3    H140088   4.541   1.958  15.790  0.2527  0.4590  0.5759
 6199TIP3    H240089   4.607   1.969  15.653  0.7112  0.4934  0.7971
 6200TIP3   OH240090   0.307   2.093  15.329 -0.1068 -0.1480 -0.1014
 6200TIP3    H140091   0.258   2.155  15.384 -0.3796 -0.5611  0.1225
 6200TIP3    H240092   0.377   2.146  15.292 -1.4457  0.7443 -1.4175
 6201TIP3   OH240093   1.841   6.182   2.441  0.1044 -0.0915 -0.2565
 6201TIP3    H140094   1.852   6.212   2.350 -0.9603 -1.6352 -0.9168
 6201TIP3    H240095   1.751   6.150   2.444  0.0116  0.3324  1.4720
 6202TIP3   OH240096   1.175   2.877   3.338  0.5686 -0.3803 -0.0927
 6202TIP3    H140097   1.168   2.847   3.248 -0.4191 -1.5807  0.3613
 6202TIP3    H240098   1.129   2.961   3.340  0.1095 -0.6225 -0.5866
 6203TIP3   OH240099   4.538   4.953   3.753 -0.5823  0.3796 -0.0122
 6203TIP3    H140100   4.455   4.984   3.790  0.3721 -0.6913  3.2673
 6203TIP3    H240101   4.528   4.858   3.749  0.4449  0.2444  0.3981
 6204TIP3   OH240102   0.601   6.228   0.512 -0.0715  0.2149 -0.6118
 6204TIP3    H140103   0.523   6.225   0.567 -0.4045  0.6646 -1.0510
 6204TIP3    H240104   0.581   6.169   0.439  1.0398 -1.7085  0.5974
 6205TIP3   OH240105   5.952   2.884  14.933  0.2365 -0.4016 -0.5973
 6205TIP3    H140106   5.906   2.967  14.937 -2.9537 -2.1217  0.8816
 6205TIP3    H240107   6.031   2.897  14.987 -1.1076  1.1529  1.0393
 6206TIP3   OH240108   0.390   1.311  11.970 -0.3613  0.1545 -0.6383
 6206TIP3    H140109   0.459   1.349  11.915 -0.0824  0.5382 -0.0327
 6206TIP3    H240110   0.437   1.257  12.034 -0.7549 -1.2671 -1.5162
 6207TIP3   OH240111   2.921   1.290   0.077  0.6597  0.6018 -0.8316
 6207TIP3    H140112   2.941   1.335   0.159  0.6237 -1.4701  0.3618
 6207TIP3    H240113   2.967   1.206   0.084 -1.4292 -0.6614 -1.8094
 6208TIP3   OH240114   2.253   5.395  12.277  0.2386 -0.2040  0.1032
 6208TIP3    H140115   2.175   5.341  12.287  0.1992 -0.5039 -1.7141
 6208TIP3    H240116   2.317   5.355  12.337 -0.5015 -0.9154  0.4245
 6209TIP3   OH240117   6.099   2.473  13.316 -0.3960 -0.0512 -0.1601
 6209TIP3    H140118   6.159   2.401  13.336 -1.8370 -0.7946  1.5758
 6209TIP3    H240119   6.124   2.543  13.376 -0.3838  0.1314 -0.3776
 6210TIP3   OH240120   5.967   1.988   1.157  0.0388 -0.2677  0.7382
 6210TIP3    H140121   5.941   2.044   1.084  1.4759 -1.1967 -0.5127
 6210TIP3    H240122   5.885   1.959   1.195 -0.7732 -1.1952 -1.6177
 6211TIP3   OH240123   3.810   0.591  11.577 -0.1952 -0.3258 -0.4266
 6211TIP3    H140124   3.835   0.663  11.635 -2.7938 -0.4797  0.9354
 6211TIP3    H240125   3.751   0.536  11.629 -0.5125 -1.9007 -2.3573
 6212TIP3   OH240126   6.552   2.548  12.471  0.1393 -0.9943  0.3468
 6212TIP3    H140127   6.531   2.573  12.381 -1.1755 -1.8522  0.3985
 6212TIP3    H240128   6.586   2.458  12.464 -0.6491 -1.3289  0.7848
 6213TIP3   OH240129   4.128   1.647   2.102 -0.2790 -0.8430  0.5127
 6213TIP3    H140130   4.133   1.573   2.042  0.3346  0.3380 -0.9094
 6213TIP3    H240131   4.217   1.654   2.139 -0.2325 -0.5669  0.3478
 6214TIP3   OH240132   4.706   6.203   5.944 -0.2742 -0.4613  0.1595
 6214TIP3    H140133   4.709   6.123   5.997 -1.2664 -0.0542  0.8462
 6214TIP3    H240134   4.765   6.264   5.988  0.5176 -0.8313 -0.3903
 6215TIP3   OH240135   2.241   6.600   0.549 -0.7292  0.1475 -0.1402
 6215TIP3    H140136   2.185   6.528   0.519 -1.5348 -0.3798  2.4668
 6215TIP3    H240137   2.186   6.678   0.539 -0.5721  0.1306 -1.1237
 6216TIP3   OH240138   2.310   6.206   0.367  0.6439  0.2257 -0.6474
 6216TIP3    H140139   2.360   6.166   0.296  2.7284  0.5196  0.5770
 6216TIP3    H240140   2.281   6.132   0.420  2.1494  0.1449  0.1118
 6217TIP3   OH240141   6.117   0.738  14.247 -0.2495  0.0452 -0.5861
 6217TIP3    H140142   6.175   0.709  14.177  1.1361  1.4462 -0.0287
 6217TIP3    H240143   6.157   0.704  14.327 -1.0409 -0.2969 -0.3265
 6218TIP3   OH240144   5.633   0.281   6.592 -0.1828  0.0770 -0.0414
 6218TIP3    H140145   5.560   0.245   6.642 -0.5891 -0.3982 -0.9605
 6218TIP3    H240146   5.619   0.376   6.596 -1.5717 -0.0548 -1.2522
 6219TIP3   OH240147   2.886   0.130  12.245  0.3942 -0.4266  0.1767
 6219TIP3    H140148   2.828   0.152  12.171  0.8377  1.6009  0.4120
 6219TIP3    H240149   2.835   0.069  12.297 -1.4827  1.1772  0.2684
 6220TIP3   OH240150   6.560   1.949   1.809  0.4226 -0.5753 -0.3639
 6220TIP3    H140151   6.500   1.949   1.884  0.1421 -0.2601 -0.5858
 6220TIP3    H240152   6.547   2.035   1.769  0.2896 -0.8934 -0.9955
 6221TIP3   OH240153   0.759   6.425  11.277  0.0988 -0.1823 -0.0262
 6221TIP3    H140154   0.808   6.454  11.200 -1.8951  0.4794 -1.0904
 6221TIP3    H240155   0.825   6.389  11.336  1.9932  1.6142 -0.9757
 6222TIP3   OH240156   0.395   3.926   6.079 -0.1986  0.4029  0.0979
 6222TIP3    H140157   0.363   3.860   6.142 -0.3094  0.2692 -0.0977
 6222TIP3    H240158   0.484   3.945   6.108 -0.3681  0.6001  0.5072
 6223TIP3   OH240159   5.738   0.581   0.935 -0.4319 -0.5922  0.2455
 6223TIP3    H140160   5.761   0.541   0.851  2.1125  1.0749  0.0969
 6223TIP3    H240161   5.699   0.509   0.986  0.8115 -2.3686 -1.2486
 6224TIP3   OH240162   2.892   3.272  12.165 -0.0027 -0.3279  0.0280
 6224TIP3    H140163   2.799   3.282  12.184 -0.3693  0.1942 -1.9380
 6224TIP3    H240164   2.923   3.361  12.151  1.0234 -0.4179  1.6629
 6225TIP3   OH240165   0.674   6.079  15.215  0.6170  0.0731  0.2293
 6225TIP3    H140166   0.616   6.039  15.150 -0.2269 -0.6545  1.3935
 6225TIP3    H240167   0.708   6.157  15.172  1.0223 -1.0311 -1.5061
 6226TIP3   OH240168   1.999   1.691  15.819 -0.2999 -0.4779  0.6546
 6226TIP3    H140169   2.009   1.776  15.776  0.0404 -0.7808  0.1210
 6226TIP3    H240170   2.022   1.628  15.751 -1.3056 -1.0297  0.8118
 6227TIP3   OH240171   6.514   6.682   2.934 -0.2110 -0.1255 -0.6663
 6227TIP3    H140172   6.518   6.595   2.973  1.8859 -0.4605 -1.5737
 6227TIP3    H240173   6.506   6.742   3.008  1.8772 -0.8766  0.1821
 6228TIP3   OH240174   6.271   3.609  10.929  1.0246  0.2825  1.2032
 6228TIP3    H140175   6.308   3.685  10.976 -1.4161  0.7419  2.4482
 6228TIP3    H240176   6.220   3.648  10.857 -0.7343 -0.1244  2.2071
 6229TIP3   OH240177   4.844   0.276  14.791  0.5837 -0.3244  0.3995
 6229TIP3    H140178   4.870   0.249  14.703  1.6301  1.7914  0.0417
 6229TIP3    H240179   4.813   0.366  14.781  1.3450  0.1695  2.2995
 6230TIP3   OH240180   3.764   3.544   4.333  0.4466  0.2911 -0.4424
 6230TIP3    H140181   3.837   3.560   4.274  0.8907 -1.3311 -0.3286
 6230TIP3    H240182   3.686   3.567   4.281  1.0071  2.0859 -0.5319
 6231TIP3   OH240183   5.948   2.446  15.259  0.1971  0.2208 -0.0928
 6231TIP3    H140184   5.944   2.541  15.250  0.5376  0.3742  1.2496
 6231TIP3    H240185   5.899   2.412  15.184  1.0953  1.4295 -1.2329
 6232TIP3   OH240186   2.170   2.729  13.553  0.2546  0.6369  0.5563
 6232TIP3    H140187   2.170   2.649  13.606 -1.4861  0.5245  0.4218
 6232TIP3    H240188   2.236   2.785  13.595 -0.0227 -0.0424  1.9471
 6233TIP3   OH240189   4.834   5.792  16.055 -0.3161  0.3011  0.2355
 6233TIP3    H140190   4.819   5.871  16.004  0.8752 -1.2276 -2.5839
 6233TIP3    H240191   4.871   5.730  15.993  3.1178 -1.0034  3.3572
 6234TIP3   OH240192   2.118   0.148   0.773  0.0676 -0.5917  0.1996
 6234TIP3    H140193   2.101   0.241   0.758  2.6175  0.2139  2.0663
 6234TIP3    H240194   2.139   0.114   0.686 -3.0729  0.0363 -0.8793
 6235TIP3   OH240195   5.448   2.315   3.467  0.6402 -0.3865 -0.3633
 6235TIP3    H140196   5.484   2.403   3.458 -0.7206  0.6854  3.6011
 6235TIP3    H240197   5.366   2.316   3.418 -0.1153  1.0511  0.9147
 6236TIP3   OH240198   2.600   4.781   3.247  0.4764  0.1799 -0.0964
 6236TIP3    H140199   2.683   4.739   3.268  0.5334  0.6307  0.6255
 6236TIP3    H240200   2.585   4.762   3.155 -0.0661 -2.3888  0.4885
 6237TIP3   OH240201   6.337   2.025   1.077 -0.1065  0.1609  0.6712
 6237TIP3    H140202   6.327   2.010   0.983  0.2509 -0.0870  0.6733
 6237TIP3    H240203   6.313   2.117   1.089  0.7042  0.4345  0.2182
 6238TIP3   OH240204   0.630   6.672   4.211  0.1409 -0.1688 -0.1377
 6238TIP3    H140205   0.557   6.617   4.238 -0.6524  1.4471  1.0577
 6238TIP3    H240206   0.593   6.760   4.205  1.2916  0.1859 -2.4473
 6239TIP3   OH240207   0.398   5.680  14.903 -0.8080 -0.2203  0.0571
 6239TIP3    H140208   0.460   5.657  14.972 -0.1580 -1.1412 -0.8193
 6239TIP3    H240209   0.314   5.686  14.949 -0.2054  0.2950  1.1191
 6240TIP3   OH240210   3.845   4.887  10.227 -0.4733 -0.2152 -0.6234
 6240TIP3    H140211   3.849   4.795  10.253  0.0131 -0.1497 -0.4540
 6240TIP3    H240212   3.793   4.929  10.295  0.2887 -0.1550 -0.0702
 6241TIP3   OH240213   4.587   3.574   5.772 -0.0311  0.0329 -0.4081
 6241TIP3    H140214   4.540   3.657   5.769 -0.3637 -0.1417 -0.0720
 6241TIP3    H240215   4.555   3.531   5.852  1.2030  0.2220  0.2079
 6242TIP3   OH240216   5.937   3.986  15.756  0.5378  0.2325  0.1470
 6242TIP3    H140217   5.848   3.980  15.721  0.1958 -1.4927  1.2668
 6242TIP3    H240218   5.988   4.025  15.685 -0.9239  0.4231 -0.8234
 6243TIP3   OH240219   2.938   6.783   5.722  0.1664  0.2654  0.1043
 6243TIP3    H140220   2.864   6.785   5.784  0.3331  0.8291  0.2809
 6243TIP3    H240221   3.011   6.822   5.770 -0.3523  3.0674 -1.3014
 6244TIP3   OH240222   0.624   5.058  13.758 -0.0200 -0.5064  0.5983
 6244TIP3    H140223   0.539   5.102  13.768 -0.7039 -1.8851  0.9456
 6244TIP3    H240224   0.685   5.113  13.809 -1.0494 -0.4970  1.8464
 6245TIP3   OH240225   0.102   0.345  13.227 -0.2098  0.1414  0.0886
 6245TIP3    H140226   0.100   0.366  13.134 -0.4334  2.7637  0.6502
 6245TIP3    H240227   0.104   0.250  13.230  1.4194  0.0466 -2.6157
 6246TIP3   OH240228   4.559   5.696  12.132 -0.3349  0.4526  0.2671
 6246TIP3    H140229   4.510   5.614  12.132  2.2139 -1.1152 -0.2459
 6246TIP3    H240230   4.583   5.710  12.040  0.6475  0.9028  0.5832
 6247TIP3   OH240231   1.871   3.775   4.845  0.5078  0.1024  0.0558
 6247TIP3    H140232   1.910   3.690   4.864  0.1527  0.7684  4.0975
 6247TIP3    H240233   1.789   3.776   4.895 -0.0402  2.3849 -0.8265
 6248TIP3   OH240234   0.031   2.121  17.202 -0.3848  0.0385  0.2049
 6248TIP3    H140235  -0.037   2.102  17.137 -2.0899 -1.6676  2.4102
 6248TIP3    H240236  -0.012   2.107  17.286  2.2367  0.6541  1.6973
 6249TIP3   OH240237   5.768   2.999   6.269 -0.5511 -0.4794 -0.4043
 6249TIP3    H140238   5.805   2.929   6.322 -2.1615 -1.2757 -0.3167
 6249TIP3    H240239   5.676   3.003   6.295 -0.9246  0.3638 -1.8100
 6250TIP3   OH240240   1.630   2.827  11.133  0.5908 -0.2346  0.3542
 6250TIP3    H140241   1.556   2.885  11.151  1.5188  1.0111  0.2105
 6250TIP3    H240242   1.618   2.800  11.042 -0.1882 -0.7833  0.6148
 6251TIP3   OH240243   4.089   1.073   1.861 -0.2592 -0.5788 -0.5314
 6251TIP3    H140244   4.048   1.039   1.781 -3.9079 -0.9087  1.3646
 6251TIP3    H240245   4.130   0.996   1.901  2.7317 -0.1732 -2.6417
 6252TIP3   OH240246   6.034   0.062   3.831  0.3672  0.2230 -0.4698
 6252TIP3    H140247   6.112   0.113   3.852  0.2897  0.5806 -1.0490
 6252TIP3    H240248   6.043   0.041   3.738  0.1263 -0.3436 -0.3642
 6253TIP3   OH240249   4.190   3.532  10.690  0.1357 -0.3795 -0.5400
 6253TIP3    H140250   4.204   3.464  10.624  2.6366 -3.7046  3.1735
 6253TIP3    H240251   4.256   3.598  10.670  0.2614 -0.9164 -1.9391
 6254TIP3   OH240252   4.387   2.089   4.731 -0.1580  0.1542  0.6490
 6254TIP3    H140253   4.296   2.067   4.752  0.0987 -2.5133 -0.7256
 6254TIP3    H240254   4.387   2.098   4.635  1.0743 -0.1874  0.6097
 6255TIP3   OH240255   3.824   4.437  14.003  1.1290  0.0823  0.1480
 6255TIP3    H140256   3.903   4.473  13.963  1.4576  0.6493  1.2808
 6255TIP3    H240257   3.774   4.513  14.032 -0.2076 -0.2501 -1.2446
 6256TIP3   OH240258   2.438   4.573   3.795  0.8154 -0.1272  0.0923
 6256TIP3    H140259   2.509   4.614   3.844  0.5526 -1.5591  1.7128
 6256TIP3    H240260   2.480   4.500   3.748  0.5898 -0.3965  0.3080
 6257TIP3   OH240261   5.571   4.904  12.439  0.4475 -0.5565  0.0822
 6257TIP3    H140262   5.531   4.817  12.442 -0.0375 -0.3744 -0.9496
 6257TIP3    H240263   5.641   4.896  12.375  2.2247 -0.9274  2.0166
 6258TIP3   OH240264   2.033   6.395   5.515  0.0191  0.3062  0.0296
 6258TIP3    H140265   1.972   6.322   5.511 -1.3070  1.4612 -1.3257
 6258TIP3    H240266   2.111   6.364   5.468 -0.4477 -0.2996 -0.3471
 6259TIP3   OH240267   2.676   3.233  13.675 -0.4916 -0.2139 -0.5701
 6259TIP3    H140268   2.594   3.183  13.676 -0.4609 -0.3051 -2.1560
 6259TIP3    H240269   2.706   3.230  13.766 -1.1486 -2.0103 -0.3773
 6260TIP3   OH240270   5.723   1.571   2.981 -0.0793  0.2362  0.1515
 6260TIP3    H140271   5.780   1.573   3.058  1.2334  0.5027 -0.8186
 6260TIP3    H240272   5.686   1.483   2.981  0.1256  0.1436  0.9291
 6261TIP3   OH240273   4.384   3.002  16.700 -0.2340 -0.8168  0.2252
 6261TIP3    H140274   4.319   2.986  16.769  0.9501 -1.1524  1.2932
 6261TIP3    H240275   4.458   3.043  16.747 -0.6100  1.7630 -1.3527
 6262TIP3   OH240276   2.004   2.569   2.557  0.4756  0.0753  0.4045
 6262TIP3    H140277   1.969   2.656   2.537  2.4915  0.3276 -2.3238
 6262TIP3    H240278   1.928   2.519   2.584 -0.9018  2.3934  0.9986
 6263TIP3   OH240279   5.209   2.211   5.203 -0.2177 -0.2044  0.0420
 6263TIP3    H140280   5.134   2.165   5.166  0.8718 -1.1105 -1.1122
 6263TIP3    H240281   5.282   2.188   5.145  1.2603 -0.5331  1.9670
 6264TIP3   OH240282   6.105   5.049   5.665 -0.2890  0.5739 -0.1157
 6264TIP3    H140283   6.158   5.009   5.596 -1.2313  0.8655 -1.0235
 6264TIP3    H240284   6.169   5.078   5.730  0.6192  0.3075 -0.8702
 6265TIP3   OH240285   0.671   5.934   5.557  0.2660 -0.4954  0.4080
 6265TIP3    H140286   0.762   5.961   5.569 -0.8424  3.9409 -0.4348
 6265TIP3    H240287   0.649   5.962   5.468 -2.6791  0.8503  1.5146
 6266TIP3   OH240288   2.773   4.100   2.865 -0.9375  0.0717 -0.5871
 6266TIP3    H140289   2.734   4.055   2.940 -1.1451  1.8878  0.4053
 6266TIP3    H240290   2.698   4.122   2.809 -1.0595  1.2212  0.0363
 6267TIP3   OH240291   3.566   4.526   4.988  0.0234  0.4140 -0.0700
 6267TIP3    H140292   3.501   4.473   5.034  0.5820 -0.5866 -0.4179
 6267TIP3    H240293   3.631   4.547   5.056  0.6557 -0.7503 -0.3002
 6268TIP3   OH240294   4.396   5.860  16.200 -0.0325 -0.0046 -0.3808
 6268TIP3    H140295   4.430   5.937  16.155  2.2048  1.4223  3.5218
 6268TIP3    H240296   4.449   5.787  16.166  0.4247  0.7570 -1.3155
 6269TIP3   OH240297   5.146   6.178   1.288  0.1081 -0.0040  0.7043
 6269TIP3    H140298   5.081   6.245   1.266  0.8979  1.0095  1.3550
 6269TIP3    H240299   5.102   6.095   1.270 -1.8569  0.6076  2.4095
 6270TIP3   OH240300   5.698   0.356   2.190 -0.2609  0.6518  0.1413
 6270TIP3    H140301   5.754   0.357   2.112  0.6706  0.7340  0.7971
 6270TIP3    H240302   5.683   0.263   2.208 -1.9994  0.6553 -1.1953
 6271TIP3   OH240303   3.828   3.172   5.158 -0.0343  0.2772  0.6619
 6271TIP3    H140304   3.870   3.257   5.148 -1.3901  1.1602  2.2609
 6271TIP3    H240305   3.782   3.177   5.242 -0.4394 -1.9012  0.6067
 6272TIP3   OH240306   1.343   1.926   2.530  0.1336  0.4530 -0.1368
 6272TIP3    H140307   1.323   1.834   2.516  1.6131 -0.3294  2.5819
 6272TIP3    H240308   1.275   1.957   2.590  1.0499  0.4907  0.8877
 6273TIP3   OH240309   2.627   4.411   5.233  0.1645  0.8513  0.4700
 6273TIP3    H140310   2.644   4.430   5.325 -0.2009 -1.1634  0.9649
 6273TIP3    H240311   2.713   4.409   5.193  0.4603 -0.1076  1.1409
 6274TIP3   OH240312   5.432   2.841  13.628 -0.3962  0.1037 -0.2538
 6274TIP3    H140313   5.504   2.902  13.644 -0.7735  0.7840 -1.1159
 6274TIP3    H240314   5.464   2.782  13.560  0.1422 -0.9731  0.9087
 6275TIP3   OH240315   2.983   2.755   0.117  0.2504 -0.1890 -0.4763
 6275TIP3    H140316   3.077   2.748   0.105  0.3141 -2.5356  0.9593
 6275TIP3    H240317   2.970   2.747   0.212 -1.3984  0.0704 -0.6553
 6276TIP3   OH240318   6.738   6.221  15.584  0.2049 -0.3629  0.2907
 6276TIP3    H140319   6.664   6.161  15.579  0.6446 -1.0439  1.4606
 6276TIP3    H240320   6.815   6.165  15.569  0.5635  0.0490  0.5728
 6277TIP3   OH240321   2.489   4.240   5.011 -0.0044  0.7269 -0.3245
 6277TIP3    H140322   2.569   4.291   4.995  0.1021  0.3635 -0.9832
 6277TIP3    H240323   2.418   4.295   4.977 -0.1600  1.5448  1.2872
 6278TIP3   OH240324   5.490   3.763   4.686  0.1442 -0.3786  0.1105
 6278TIP3    H140325   5.552   3.690   4.684 -0.4831 -0.9184  0.0668
 6278TIP3    H240326   5.542   3.838   4.715  0.5031 -1.1437  1.4803
 6279TIP3   OH240327   2.902   6.074  16.781 -0.1358  0.1148  0.3668
 6279TIP3    H140328   2.859   5.992  16.760 -0.8363  0.3366  0.8992
 6279TIP3    H240329   2.834   6.141  16.769  0.8295  0.7909 -1.5251
 6280TIP3   OH240330   4.460   1.622   1.463 -0.1958 -0.1195  0.2698
 6280TIP3    H140331   4.513   1.551   1.500  0.3699 -0.0506 -0.3876
 6280TIP3    H240332   4.517   1.699   1.468 -0.0592 -0.1355 -0.8434
 6281TIP3   OH240333   6.805   5.778   1.160  0.8890 -0.0068 -0.5732
 6281TIP3    H140334   6.792   5.793   1.254 -0.0326  2.7966 -1.0955
 6281TIP3    H240335   6.822   5.684   1.153 -0.7392 -0.5707  2.2124
 6282TIP3   OH240336   5.860   4.017   6.821 -0.0284 -0.1698 -0.3646
 6282TIP3    H140337   5.945   4.057   6.834 -0.8928  1.3463  0.8717
 6282TIP3    H240338   5.869   3.929   6.857  0.3796  0.7636  1.8918
 6283TIP3   OH240339   3.804   5.004  12.838 -0.9771  0.2385  0.0897
 6283TIP3    H140340   3.865   4.957  12.895 -0.9236 -1.0053 -0.9540
 6283TIP3    H240341   3.860   5.045  12.772 -1.1077  0.8815  0.3782
 6284TIP3   OH240342   3.556   3.489   1.717 -0.1226  0.1886  0.4831
 6284TIP3    H140343   3.463   3.501   1.695 -0.3094  0.3923  1.3677
 6284TIP3    H240344   3.575   3.559   1.779  0.2447 -0.7212  1.4100
 6285TIP3   OH240345   1.816   0.331   5.286 -0.2337 -0.2179  0.0183
 6285TIP3    H140346   1.826   0.408   5.230  1.1035 -0.2867  0.1417
 6285TIP3    H240347   1.811   0.367   5.375 -2.8411 -0.0755 -0.1465
 6286TIP3   OH240348   0.734   0.993  15.027 -0.3622 -0.0217  0.5021
 6286TIP3    H140349   0.787   1.072  15.018  0.4561 -0.7339 -1.2801
 6286TIP3    H240350   0.708   0.971  14.937 -0.8294 -1.5988  0.9982
 6287TIP3   OH240351   2.631   1.890   5.986 -0.0483  0.4233  0.1258
 6287TIP3    H140352   2.632   1.967   5.930 -0.5976 -0.8479 -1.6672
 6287TIP3    H240353   2.717   1.849   5.971  0.2094  0.6332  1.0088
 6288TIP3   OH240354   2.418   5.904   4.380 -0.4527  0.0274 -0.7967
 6288TIP3    H140355   2.508   5.902   4.349  0.1163  0.5376  0.7849
 6288TIP3    H240356   2.374   5.965   4.322 -0.2141 -1.5303 -2.6726
 6289TIP3   OH240357   0.247   4.720  12.123  0.1607  0.0505 -0.0015
 6289TIP3    H140358   0.316   4.777  12.158  0.4069  0.2165 -0.7598
 6289TIP3    H240359   0.168   4.774  12.126 -0.0376 -0.2813  1.2711
 6290TIP3   OH240360   0.843   6.659  14.477  0.0753  0.2280  0.5604
 6290TIP3    H140361   0.803   6.699  14.554 -0.2529  0.9531  0.0201
 6290TIP3    H240362   0.917   6.716  14.455 -0.1123  0.2834  0.0630
 6291TIP3   OH240363   0.057   2.931  17.225  0.0346  0.0018 -0.3248
 6291TIP3    H140364   0.151   2.915  17.226  0.2574  1.2019 -1.2052
 6291TIP3    H240365   0.044   2.997  17.157 -1.4790 -0.3574 -0.4032
 6292TIP3   OH240366   2.745   6.306  11.963  0.2045  0.1144 -0.1576
 6292TIP3    H140367   2.655   6.296  11.931  0.1997  0.8678 -0.3923
 6292TIP3    H240368   2.799   6.270  11.893  0.0368 -1.7055  0.6066
 6293TIP3   OH240369   6.229   1.998   1.566  0.3113  0.0221  0.0528
 6293TIP3    H140370   6.236   2.078   1.619  1.1359  0.7391 -1.1183
 6293TIP3    H240371   6.315   1.988   1.526  0.3848 -1.7766  0.6107
 6294TIP3   OH240372   6.392   4.606   4.286  0.0302  0.2731 -0.9455
 6294TIP3    H140373   6.349   4.530   4.248 -0.8743  0.5395 -0.4989
 6294TIP3    H240374   6.485   4.588   4.279 -0.1694 -0.6241 -1.3440
 6295TIP3   OH240375   3.449   4.353  13.509  0.3266  0.3898 -0.0265
 6295TIP3    H140376   3.465   4.441  13.475  0.5735  0.5665  0.5506
 6295TIP3    H240377   3.431   4.300  13.431 -0.6576  1.1278 -0.3175
 6296TIP3   OH240378   4.220   0.031   2.136  0.1644  0.2619 -0.3670
 6296TIP3    H140379   4.126   0.023   2.118 -0.2910 -0.2722  2.0736
 6296TIP3    H240380   4.226   0.040   2.231  2.5475  1.1593 -0.5570
 6297TIP3   OH240381   0.665   0.985   5.349  0.2652 -0.3498 -0.3637
 6297TIP3    H140382   0.584   1.034   5.366 -0.3648 -1.6765  0.6352
 6297TIP3    H240383   0.649   0.938   5.268  1.3552  2.0595 -2.0107
 6298TIP3   OH240384   5.488   3.271   2.542  0.1853 -0.6838 -0.2942
 6298TIP3    H140385   5.473   3.324   2.621  1.9313 -0.0796 -0.3329
 6298TIP3    H240386   5.568   3.308   2.504  1.4626 -3.3717 -0.3124
 6299TIP3   OH240387   0.306   1.448  15.392 -0.2671  0.4410 -0.4823
 6299TIP3    H140388   0.289   1.367  15.346 -0.1437  0.5968 -0.8037
 6299TIP3    H240389   0.237   1.454  15.458 -0.2712  0.0733 -0.4538
 6300TIP3   OH240390   5.231   4.301   1.872  0.0982 -0.4539  0.0955
 6300TIP3    H140391   5.219   4.394   1.857  2.7222 -0.2241 -0.7529
 6300TIP3    H240392   5.163   4.259   1.820 -3.1857  1.0250  2.9447
 6301TIP3   OH240393   2.298   4.214  11.603  0.5710  0.2967 -0.1065
 6301TIP3    H140394   2.230   4.169  11.654  1.1295  0.5449  0.8522
 6301TIP3    H240395   2.290   4.306  11.628  0.9769  0.3883 -0.3158
 6302TIP3   OH240396   6.676   5.872   0.690  0.3272  0.0788 -0.4451
 6302TIP3    H140397   6.685   5.800   0.629  0.2733 -0.6818  0.4374
 6302TIP3    H240398   6.716   5.840   0.771  1.0985  1.3542 -0.3041
 6303TIP3   OH240399   0.331   5.415   4.881  0.1210  0.7224 -0.0033
 6303TIP3    H140400   0.415   5.436   4.922  0.1468 -0.1207  0.3862
 6303TIP3    H240401   0.329   5.319   4.879 -0.6329  0.7476 -0.4230
 6304TIP3   OH240402   5.526   6.366   0.465  0.0452 -0.2362 -0.1185
 6304TIP3    H140403   5.530   6.459   0.439 -2.1572  0.0419  0.4376
 6304TIP3    H240404   5.546   6.318   0.385 -0.1366  0.7024 -0.7347
 6305TIP3   OH240405   3.405   6.717  11.201  0.4108 -0.0638 -0.4331
 6305TIP3    H140406   3.379   6.775  11.272 -1.1080  0.9428 -1.7690
 6305TIP3    H240407   3.485   6.757  11.165  1.0229 -0.4240  0.5070
 6306TIP3   OH240408   6.089   5.857  15.190  0.7177 -0.0225 -0.6682
 6306TIP3    H140409   6.127   5.944  15.175 -0.6706  0.5550 -0.9558
 6306TIP3    H240410   6.052   5.832  15.106 -1.9651  0.6547  0.2583
 6307TIP3   OH240411   6.802   4.828   0.226 -0.5693 -0.1021 -0.0584
 6307TIP3    H140412   6.867   4.815   0.156  0.3024 -0.2184  0.7675
 6307TIP3    H240413   6.831   4.770   0.296 -1.9231 -0.6220  0.0896
 6308TIP3   OH240414   3.890   3.780   5.786 -0.0808 -0.2385 -0.4632
 6308TIP3    H140415   3.893   3.743   5.697 -0.2471 -1.1511 -0.0936
 6308TIP3    H240416   3.797   3.800   5.800 -0.1127 -0.4477 -0.3620
 6309TIP3   OH240417   1.962   0.613  12.529  0.4727  0.3293  0.7049
 6309TIP3    H140418   2.030   0.547  12.543 -0.1090 -0.0390  1.8178
 6309TIP3    H240419   1.889   0.585  12.585 -0.4294  0.9685 -0.1269
 6310TIP3   OH240420   1.359   0.741   5.281 -0.4105  0.5577  0.1557
 6310TIP3    H140421   1.316   0.657   5.296 -2.2868  1.3553 -0.5894
 6310TIP3    H240422   1.300   0.788   5.223  2.5002  0.8883 -2.6506
 6311TIP3   OH240423   5.789   6.524   4.180 -0.7596  0.1710 -0.5907
 6311TIP3    H140424   5.763   6.435   4.205 -0.9629  0.2493 -0.5176
 6311TIP3    H240425   5.871   6.513   4.132  0.0113  0.0829  0.7174
 6312TIP3   OH240426   4.681   0.482  16.030 -0.5103 -0.1360  0.3594
 6312TIP3    H140427   4.747   0.537  15.987  1.4259 -2.1664  0.6019
 6312TIP3    H240428   4.672   0.519  16.118  0.8775 -0.2618  0.5717
 6313TIP3   OH240429   0.405   1.527  14.496  0.2300 -0.0333  0.1003
 6313TIP3    H140430   0.436   1.480  14.418  0.8965 -2.1387  1.5849
 6313TIP3    H240431   0.459   1.605  14.500  2.3240 -1.4524  0.1604
 6314TIP3   OH240432   5.446   2.303  10.828 -0.3008 -0.2946  0.0192
 6314TIP3    H140433   5.398   2.329  10.749 -0.0781  0.9107  0.2687
 6314TIP3    H240434   5.531   2.273  10.795  0.0106  0.7626 -0.1697
 6315TIP3   OH240435   1.684   0.921   5.490 -0.0090 -0.6107 -0.1366
 6315TIP3    H140436   1.693   0.853   5.557 -0.8269  1.6757  2.3866
 6315TIP3    H240437   1.774   0.948   5.472  0.1744 -0.6702  0.6576
 6316TIP3   OH240438   5.164   6.538  13.203 -0.2146  0.6442 -0.6760
 6316TIP3    H140439   5.246   6.487  13.204 -0.9374 -0.5411  1.7666
 6316TIP3    H240440   5.099   6.477  13.167 -0.7513  0.3666  0.7535
 6317TIP3   OH240441   6.749   4.637   1.553  0.5559 -0.8682  0.3115
 6317TIP3    H140442   6.733   4.585   1.474  0.7323 -0.4978  0.0296
 6317TIP3    H240443   6.845   4.643   1.558  0.5269  1.5886 -1.0945
 6318TIP3   OH240444   4.149   6.690  12.903 -0.4844 -0.4058  0.2112
 6318TIP3    H140445   4.158   6.680  12.998 -3.1240 -0.1026  0.5364
 6318TIP3    H240446   4.066   6.736  12.892 -0.4620 -0.9156 -2.2867
 6319TIP3   OH240447   2.880   5.453  14.275  0.2681 -0.1753  0.2378
 6319TIP3    H140448   2.850   5.500  14.197  0.8097 -1.0431 -0.4998
 6319TIP3    H240449   2.864   5.514  14.347  1.8263  1.5175 -0.8214
 6320TIP3   OH240450   5.334   3.670   6.203  0.3329  0.0223 -0.2179
 6320TIP3    H140451   5.290   3.749   6.172 -1.2195  0.2672  2.5410
 6320TIP3    H240452   5.408   3.702   6.254  0.4865 -0.3350 -0.2136
 6321TIP3   OH240453   4.670   0.132  15.943 -0.5056 -0.0379  0.3291
 6321TIP3    H140454   4.746   0.190  15.932  0.0476 -0.9340 -0.7059
 6321TIP3    H240455   4.628   0.132  15.857  0.5192 -2.5805 -0.2014
 6322TIP3   OH240456   4.676   4.220   3.450 -0.1972  0.3241 -0.4803
 6322TIP3    H140457   4.668   4.220   3.354  0.3506 -0.4832 -0.5256
 6322TIP3    H240458   4.612   4.286   3.479 -1.0080 -0.0690 -1.3430
 6323TIP3   OH240459   1.957   5.736   3.688  0.4082  0.1166 -0.2849
 6323TIP3    H140460   1.974   5.790   3.610  0.8676 -0.8322 -0.8403
 6323TIP3    H240461   1.975   5.647   3.660 -0.4207 -0.3443  0.6239
 6324TIP3   OH240462   1.636   3.712  13.832 -0.0835 -0.3354 -0.3927
 6324TIP3    H140463   1.686   3.794  13.825 -0.5410  0.1445  1.6258
 6324TIP3    H240464   1.592   3.704  13.748  0.6884  1.0215 -0.9517
 6325TIP3   OH240465   0.707   0.486   3.340 -0.3299 -0.0066 -0.4326
 6325TIP3    H140466   0.648   0.471   3.414 -0.5451 -0.0094 -0.6061
 6325TIP3    H240467   0.754   0.566   3.364  0.4921 -0.6932  0.2814
 6326TIP3   OH240468   2.027   3.473  16.879  0.4354 -0.0842 -0.3962
 6326TIP3    H140469   2.101   3.439  16.827  2.1514  1.1778  1.1448
 6326TIP3    H240470   2.069   3.519  16.951 -1.9216 -0.8293  1.4874
 6327TIP3   OH240471   2.844   5.727  10.820 -0.1988 -0.2778  0.2124
 6327TIP3    H140472   2.819   5.691  10.734 -2.4013 -1.1399  1.1486
 6327TIP3    H240473   2.905   5.662  10.856  1.5448  0.6102 -1.1220
 6328TIP3   OH240474   6.348   0.911   3.310  0.3069 -0.1770  0.0928
 6328TIP3    H140475   6.322   0.853   3.238 -1.7990  0.8068  0.0442
 6328TIP3    H240476   6.397   0.854   3.370  0.0965 -1.5215 -0.9843
 6329TIP3   OH240477   1.682   4.914  16.950  0.0074 -0.1758  0.1621
 6329TIP3    H140478   1.684   4.920  17.045  0.1739  1.3626  0.0819
 6329TIP3    H240479   1.703   5.003  16.920 -1.0663 -0.3938 -1.3009
 6330TIP3   OH240480   1.250   2.959  11.070  0.4102 -0.1606  0.4304
 6330TIP3    H140481   1.238   3.052  11.047  1.1188  0.1558  1.2935
 6330TIP3    H240482   1.249   2.913  10.986  1.5473  0.8078 -0.1286
 6331TIP3   OH240483   6.498   6.787  11.436 -0.3315  0.9038 -0.0295
 6331TIP3    H140484   6.533   6.794  11.525 -1.6657  1.1962  0.4952
 6331TIP3    H240485   6.406   6.815  11.445 -1.2074 -1.5473 -0.9831
 6332TIP3   OH240486   5.410   3.275   5.986 -0.6620 -0.4445  0.0168
 6332TIP3    H140487   5.394   3.229   6.069 -1.5713  1.1119  0.7304
 6332TIP3    H240488   5.327   3.266   5.938 -0.1861 -1.2142 -0.6687
 6333TIP3   OH240489   2.047   6.615  13.800 -0.0229  0.2816 -0.0267
 6333TIP3    H140490   1.956   6.645  13.807  0.3296  1.3549  0.0798
 6333TIP3    H240491   2.071   6.588  13.889 -0.3931 -0.4625 -0.1530
 6334TIP3   OH240492   0.504   6.030   0.352 -0.2121 -0.7613 -0.4705
 6334TIP3    H140493   0.588   6.023   0.308 -0.1783  0.7086 -0.6923
 6334TIP3    H240494   0.506   5.964   0.421  0.6637 -1.4987 -1.2082
 6335TIP3   OH240495   4.905   4.610  14.867 -0.6920 -0.0414  0.6037
 6335TIP3    H140496   4.934   4.610  14.958  1.3189  0.1740 -0.0197
 6335TIP3    H240497   4.847   4.686  14.859 -0.1258  0.4782  1.4659
 6336TIP3   OH240498   3.269   2.742  16.136  0.7376  0.1762 -0.4619
 6336TIP3    H140499   3.300   2.785  16.057  0.9808 -0.4372 -0.7027
 6336TIP3    H240500   3.180   2.776  16.149 -0.0353 -1.1638 -2.0769
 6337TIP3   OH240501   5.540   1.586  11.980 -0.2354  0.3767  0.2845
 6337TIP3    H140502   5.575   1.614  11.896 -0.7289  1.2719  0.3749
 6337TIP3    H240503   5.567   1.654  12.042  0.6131 -0.5553  0.9678
 6338TIP3   OH240504   2.857   1.591   1.563 -0.5583  0.0714  0.4551
 6338TIP3    H140505   2.789   1.616   1.501  0.8384  0.1869 -1.0744
 6338TIP3    H240506   2.927   1.655   1.550 -0.6279  0.6838  2.8525
 6339TIP3   OH240507   0.426   4.774   0.490  0.0811 -0.4795  0.6356
 6339TIP3    H140508   0.404   4.736   0.405  4.0702  0.7307 -1.0297
 6339TIP3    H240509   0.405   4.706   0.553  0.4089 -2.7638 -1.6473
 6340TIP3   OH240510   5.774   4.670   2.832  0.2579  0.0901  0.6119
 6340TIP3    H140511   5.683   4.692   2.854 -0.7111 -0.1828 -2.7911
 6340TIP3    H240512   5.781   4.576   2.849 -0.2664  0.0040  0.3594
 6341TIP3   OH240513   1.157   3.558   3.643 -0.8247 -0.1092 -0.3027
 6341TIP3    H140514   1.220   3.622   3.677 -0.4194 -0.1776 -0.9242
 6341TIP3    H240515   1.075   3.607   3.636 -0.6428  0.2012 -0.2826
 6342TIP3   OH240516   3.379   3.664  14.503  0.3635 -0.8064  0.5480
 6342TIP3    H140517   3.446   3.604  14.472  1.4702  1.7999 -2.3223
 6342TIP3    H240518   3.297   3.613  14.498  1.5604 -2.7774  0.4345
 6343TIP3   OH240519   5.520   3.282   3.888  0.1232 -0.0608 -0.3081
 6343TIP3    H140520   5.545   3.332   3.965  4.0095 -1.2022 -0.7312
 6343TIP3    H240521   5.537   3.341   3.814 -2.0063  0.4376 -0.4336
 6344TIP3   OH240522   4.008   5.199   6.243 -0.3812  0.2695  0.5472
 6344TIP3    H140523   3.940   5.249   6.198 -0.4780  0.5864  1.0450
 6344TIP3    H240524   4.034   5.254   6.316 -0.1729 -0.2132  0.8392
 6345TIP3   OH240525   3.852   2.628  12.932  0.0944  0.0662 -0.5112
 6345TIP3    H140526   3.927   2.672  12.973 -1.8673  2.0386  1.0142
 6345TIP3    H240527   3.839   2.676  12.850 -0.8120  1.0931  0.2257
 6346TIP3   OH240528   6.647   4.120   4.167 -0.2779  0.0667  0.6717
 6346TIP3    H140529   6.721   4.131   4.107  0.1068  0.8555  1.2877
 6346TIP3    H240530   6.585   4.067   4.117  0.7050 -0.6235  0.1602
 6347TIP3   OH240531   4.510   6.292   1.800  0.1459  0.0740  0.0710
 6347TIP3    H140532   4.555   6.242   1.868 -1.9179 -1.2921  0.4966
 6347TIP3    H240533   4.453   6.228   1.758 -1.4227  1.7513 -0.4080
 6348TIP3   OH240534   4.609   3.002   1.680  0.0523  0.0803  0.0933
 6348TIP3    H140535   4.562   2.937   1.628  0.1006 -0.1280  0.3075
 6348TIP3    H240536   4.591   3.085   1.638 -3.3192  0.4765  2.1538
 6349TIP3   OH240537   0.545   5.706  12.000 -0.6772 -0.4887  0.0578
 6349TIP3    H140538   0.640   5.710  12.010 -0.4963 -0.3224 -1.5011
 6349TIP3    H240539   0.511   5.760  12.071  0.4890  1.1820 -0.6006
 6350TIP3   OH240540   3.299   4.634  10.766  0.1626 -0.0530  0.1833
 6350TIP3    H140541   3.309   4.661  10.858  0.6429 -1.9691  0.7088
 6350TIP3    H240542   3.352   4.554  10.759  0.0549  0.0391 -1.7469
 6351TIP3   OH240543   5.356   4.879   4.871  0.7749 -0.9005 -0.1357
 6351TIP3    H140544   5.360   4.784   4.858  0.7658 -1.1346  1.4443
 6351TIP3    H240545   5.432   4.898   4.926  1.4929  0.2058 -1.4918
 6352TIP3   OH240546   0.666   0.233   0.644 -0.4668  0.2302  0.0739
 6352TIP3    H140547   0.687   0.323   0.620  0.4105  0.5112  1.7859
 6352TIP3    H240548   0.751   0.192   0.660 -0.9231 -0.5284  0.5816
 6353TIP3   OH240549   4.072   2.337   2.454 -0.2669 -0.1811  0.4954
 6353TIP3    H140550   4.027   2.270   2.505 -0.3511 -0.8649 -0.4788
 6353TIP3    H240551   4.053   2.316   2.363  1.1478  0.1213  0.1066
 6354TIP3   OH240552   3.230   1.386  14.802 -0.2189  0.2707 -0.2133
 6354TIP3    H140553   3.214   1.334  14.723 -1.9784 -2.1681  1.6637
 6354TIP3    H240554   3.192   1.472  14.783 -1.8084 -0.6951 -1.5569
 6355TIP3   OH240555   3.153   4.703  13.959 -0.0241  0.3128 -0.2925
 6355TIP3    H140556   3.161   4.661  13.873  1.5607 -0.9159  0.4363
 6355TIP3    H240557   3.227   4.671  14.009 -0.8203  1.1666  1.5012
 6356TIP3   OH240558   4.458   3.620  12.287 -0.3792  0.0261  0.5697
 6356TIP3    H140559   4.395   3.620  12.215  0.5387 -1.3148 -0.2877
 6356TIP3    H240560   4.481   3.527  12.298 -0.1509  0.2761  2.2760
 6357TIP3   OH240561   0.906   3.364  13.256 -0.2980 -0.2558 -0.1179
 6357TIP3    H140562   0.869   3.360  13.344  0.7501  0.8290  0.3774
 6357TIP3    H240563   0.870   3.444  13.218  0.9609  0.4329  0.1144
 6358TIP3   OH240564   0.395   4.486   0.484 -0.0767  0.0008 -0.0782
 6358TIP3    H140565   0.375   4.502   0.576  0.5686  0.7452 -0.0685
 6358TIP3    H240566   0.467   4.423   0.486 -1.9333 -2.1975 -0.1089
 6359TIP3   OH240567   0.717   6.431  15.900  0.3116 -0.1229  0.0801
 6359TIP3    H140568   0.734   6.373  15.975  0.8704 -0.8116 -0.5695
 6359TIP3    H240569   0.672   6.506  15.938 -1.9526 -1.7524  0.7053
 6360TIP3   OH240570   2.707   1.269   0.753 -0.0543  0.2187  0.6314
 6360TIP3    H140571   2.722   1.185   0.795 -0.6627  0.3061  1.0258
 6360TIP3    H240572   2.794   1.298   0.725  0.2291 -0.2623  1.0179
 6361TIP3   OH240573   0.395   1.677   0.268 -0.2256 -0.3187  0.1952
 6361TIP3    H140574   0.477   1.700   0.311  1.4380  0.7940 -3.3359
 6361TIP3    H240575   0.388   1.582   0.279  1.3092 -0.3615  0.9300
 6362TIP3   OH240576   6.133   0.647  11.937 -0.7901 -0.5907 -0.4660
 6362TIP3    H140577   6.084   0.569  11.911  0.2866 -0.9037 -1.5953
 6362TIP3    H240578   6.075   0.720  11.915 -1.6774 -1.0514  0.3189
 6363TIP3   OH240579   3.881   3.828   3.932  0.2929 -0.5877 -0.2254
 6363TIP3    H140580   3.927   3.912   3.925 -0.8037  0.0077 -0.2993
 6363TIP3    H240581   3.864   3.802   3.842 -0.2735 -0.3993 -0.1691
 6364TIP3   OH240582   3.111   2.299   1.052 -0.3504 -0.4246  0.4130
 6364TIP3    H140583   3.153   2.318   1.135  0.9995 -1.3780 -0.0275
 6364TIP3    H240584   3.184   2.280   0.992 -1.3817 -1.4626 -0.5314
 6365TIP3   OH240585   1.011   4.293   2.773  0.3453 -0.0269 -0.2073
 6365TIP3    H140586   1.058   4.289   2.857  1.7670  0.0268 -0.9941
 6365TIP3    H240587   0.940   4.229   2.783  2.0334 -1.9115  0.1157
 6366TIP3   OH240588   6.395   3.747  14.397 -0.6046 -0.2783  0.3336
 6366TIP3    H140589   6.335   3.759  14.324 -0.5096  0.1826  0.3290
 6366TIP3    H240590   6.359   3.674  14.447 -1.9837  0.9477  1.1623
 6367TIP3   OH240591   6.421   4.153  15.381  0.3244  0.0588  0.2420
 6367TIP3    H140592   6.374   4.226  15.343 -2.1921 -1.0996  1.0468
 6367TIP3    H240593   6.454   4.104  15.306 -0.5380  0.3778 -0.3450
 6368TIP3   OH240594   0.535   3.318   1.521 -0.0501 -0.2927  0.3033
 6368TIP3    H140595   0.580   3.391   1.564  0.4588  0.1698 -0.9683
 6368TIP3    H240596   0.606   3.262   1.489 -0.3545  0.1261 -1.1730
 6369TIP3   OH240597   3.915   1.390   2.837  0.3470 -0.1635 -0.0594
 6369TIP3    H140598   3.925   1.298   2.812 -1.6617 -0.2701 -0.5133
 6369TIP3    H240599   3.823   1.399   2.861  1.0361  1.2138  2.1626
 6370TIP3   OH240600   0.019   4.114   6.193  0.1312  0.2491 -0.1829
 6370TIP3    H140601  -0.030   4.196   6.184  0.7299  0.5629 -0.6230
 6370TIP3    H240602   0.096   4.126   6.137  0.9012 -0.0989  0.7966
 6371TIP3   OH240603   5.871   1.617  15.177 -0.2447 -0.4696  0.3941
 6371TIP3    H140604   5.906   1.705  15.183 -0.5997 -0.3116  0.1708
 6371TIP3    H240605   5.861   1.601  15.084  3.3372 -2.1722  0.2166
 6372TIP3   OH240606   2.790   3.844   5.600 -0.0387  0.3506 -0.3120
 6372TIP3    H140607   2.796   3.940   5.595  0.1066  0.3292 -0.5515
 6372TIP3    H240608   2.696   3.826   5.592 -0.1734  0.5309  0.7674
 6373TIP3   OH240609   0.582   5.292   3.294  0.0480 -0.1543  0.3567
 6373TIP3    H140610   0.544   5.374   3.326 -0.1920 -0.2246  0.2535
 6373TIP3    H240611   0.614   5.247   3.372  0.1668  0.0318  0.4154
 6374TIP3   OH240612   3.716   0.395   2.887 -0.0305  0.5295  0.2202
 6374TIP3    H140613   3.737   0.477   2.842 -3.1780 -0.0550 -2.5011
 6374TIP3    H240614   3.740   0.327   2.824 -0.3154 -0.5049  1.2127
 6375TIP3   OH240615   6.760   3.655   3.397 -0.5316  0.3332 -0.2901
 6375TIP3    H140616   6.790   3.581   3.343 -0.0528  0.3531 -0.0566
 6375TIP3    H240617   6.690   3.695   3.346  0.1952  0.6046 -1.0857
 6376TIP3   OH240618   4.152   2.434  16.423 -0.0055 -0.1919 -0.1395
 6376TIP3    H140619   4.236   2.389  16.426  0.9210  1.5095 -0.2517
 6376TIP3    H240620   4.140   2.456  16.330  0.0973  0.7922  0.0734
 6377TIP3   OH240621   0.821   5.988  13.564  0.0369  0.6652  0.4864
 6377TIP3    H140622   0.818   5.990  13.660 -1.8087 -0.7704  0.4847
 6377TIP3    H240623   0.800   6.078  13.538 -0.8957  0.7250  1.4214
 6378TIP3   OH240624   4.666   2.490   5.668 -0.0358 -0.0939  0.5629
 6378TIP3    H140625   4.705   2.489   5.756 -0.7272 -1.4943  0.8700
 6378TIP3    H240626   4.600   2.559   5.672 -0.0811 -0.1675  1.1504
 6379TIP3   OH240627   3.240   3.647   3.991 -0.1904  0.4736 -0.0027
 6379TIP3    H140628   3.226   3.604   4.076 -4.3437  0.9120 -0.3477
 6379TIP3    H240629   3.235   3.576   3.927 -2.3583  0.7689 -0.2125
 6380TIP3   OH240630   4.212   1.370  15.582 -0.4866 -0.7773  0.4870
 6380TIP3    H140631   4.148   1.412  15.525 -1.2818 -1.3498  0.9595
 6380TIP3    H240632   4.266   1.442  15.613 -0.6057 -0.3478 -0.2736
 6381TIP3   OH240633   0.648   0.390  16.565 -0.4805 -0.9068  0.1057
 6381TIP3    H140634   0.728   0.338  16.576 -1.4207 -1.9685  1.9492
 6381TIP3    H240635   0.666   0.472  16.611 -1.4443 -2.2285  2.9358
 6382TIP3   OH240636   3.042   5.137  15.037  0.0920  0.1099  0.6138
 6382TIP3    H140637   3.051   5.140  15.132  0.5942 -0.6788  0.5971
 6382TIP3    H240638   3.131   5.156  15.005  0.3511 -1.5519  0.3326
 6383TIP3   OH240639   4.958   2.428  11.638 -0.6106  0.2553 -0.4741
 6383TIP3    H140640   5.003   2.344  11.644 -0.3759  0.3820 -0.4535
 6383TIP3    H240641   5.023   2.488  11.602 -1.3164  0.0246 -2.1826
 6384TIP3   OH240642   0.427   1.990  14.080 -0.1868 -0.1089 -0.3549
 6384TIP3    H140643   0.386   2.053  14.138  0.0829  0.6324 -0.9691
 6384TIP3    H240644   0.443   2.038  13.999  1.0839 -0.6305 -0.4240
 6385TIP3   OH240645   5.838   4.752  12.982 -0.1788  0.1993 -0.3675
 6385TIP3    H140646   5.885   4.799  12.912  0.2028 -0.2790 -0.4302
 6385TIP3    H240647   5.907   4.716  13.037 -0.4135 -2.4067 -1.6951
 6386TIP3   OH240648   3.129   3.266  14.969  0.3213 -0.1543 -0.2107
 6386TIP3    H140649   3.113   3.354  15.002 -2.8941  0.1424 -2.3492
 6386TIP3    H240650   3.096   3.208  15.039  0.7950  0.3568  0.4373
 6387TIP3   OH240651   0.793   1.886  12.372  0.1244 -0.1099  0.4214
 6387TIP3    H140652   0.701   1.865  12.360  0.1247  1.2844 -2.2028
 6387TIP3    H240653   0.840   1.812  12.334  0.1140 -0.1494  0.4844
 6388TIP3   OH240654   1.516   5.273   1.727 -0.5053  0.1873 -0.0116
 6388TIP3    H140655   1.499   5.238   1.640  0.3913 -2.8756  1.0037
 6388TIP3    H240656   1.456   5.226   1.785 -0.8534  1.9395  1.0873
 6389TIP3   OH240657   4.087   6.300   0.063 -0.5413 -0.3652  0.2643
 6389TIP3    H140658   4.056   6.214   0.090 -0.3373  0.2472  2.5562
 6389TIP3    H240659   4.065   6.357   0.136  0.0628  1.3805 -0.8805
 6390TIP3   OH240660   6.585   4.844  13.177  0.5350 -0.1137  0.2811
 6390TIP3    H140661   6.515   4.845  13.242 -0.9461 -1.0791 -1.2643
 6390TIP3    H240662   6.641   4.772  13.204 -1.1761 -1.8257 -0.5981
 6391TIP3   OH240663   0.924   1.800  15.326 -0.1340  0.2944 -0.3209
 6391TIP3    H140664   0.941   1.824  15.235  0.3349  0.2426 -0.2476
 6391TIP3    H240665   0.832   1.822  15.340 -0.8635 -1.8623 -1.5078
 6392TIP3   OH240666   5.208   4.128  16.355 -0.0254  0.2172  0.3555
 6392TIP3    H140667   5.259   4.110  16.276 -0.6371 -0.3348  0.0848
 6392TIP3    H240668   5.195   4.042  16.396  1.0345  0.5909  1.5255
 6393TIP3   OH240669   2.586   5.444  14.919  0.3431 -0.0456 -0.1275
 6393TIP3    H140670   2.501   5.418  14.884  0.0134  0.0908  0.5696
 6393TIP3    H240671   2.569   5.524  14.968  1.1973  0.9618 -1.4590
 6394TIP3   OH240672   6.270   1.267  12.751  0.0246 -0.5139 -0.2510
 6394TIP3    H140673   6.356   1.271  12.793  0.1342 -2.4795 -0.2586
 6394TIP3    H240674   6.212   1.312  12.812  0.7215 -0.7560  0.6043
 6395TIP3   OH240675   6.370   6.052  15.777  0.1089  0.5956 -0.5309
 6395TIP3    H140676   6.279   6.066  15.750 -0.0236  1.3940  0.3459
 6395TIP3    H240677   6.406   6.140  15.788  0.1702  0.2973  1.8828
 6396TIP3   OH240678   3.499   5.526   3.024 -0.3488  0.1113  0.6837
 6396TIP3    H140679   3.444   5.603   3.038 -2.0115 -0.6457 -1.3818
 6396TIP3    H240680   3.490   5.475   3.104  2.4842  3.0160  2.9768
 6397TIP3   OH240681   0.832   6.125   3.223 -0.3372  0.2609  0.4596
 6397TIP3    H140682   0.763   6.074   3.266  0.8460  0.3494  2.5064
 6397TIP3    H240683   0.786   6.201   3.187 -1.9176 -1.5579 -1.5751
 6398TIP3   OH240684   3.560   1.537   0.688  0.1077 -0.2924 -0.4041
 6398TIP3    H140685   3.521   1.571   0.769  0.0883 -1.3852  0.0554
 6398TIP3    H240686   3.625   1.473   0.718  0.4358 -0.3480 -1.2371
 6399TIP3   OH240687   6.261   1.263   2.352 -0.1217  0.0364 -0.0421
 6399TIP3    H140688   6.266   1.178   2.397  0.0610  0.2181  0.2792
 6399TIP3    H240689   6.327   1.317   2.396 -1.9334  1.1372  1.3987
 6400TIP3   OH240690   4.071   4.134   1.413  0.6218 -0.1042  0.6194
 6400TIP3    H140691   4.106   4.128   1.324  1.1633 -0.5255  0.8587
 6400TIP3    H240692   4.147   4.124   1.470  0.0628 -1.4210  1.1476
 6401TIP3   OH240693   6.710   3.483  13.225  0.4339  0.1458  0.2968
 6401TIP3    H140694   6.744   3.540  13.157  0.3937  0.1796  0.3037
 6401TIP3    H240695   6.629   3.526  13.255  1.7908  1.5026  2.1565
 6402TIP3   OH240696   1.047   4.149  14.457 -0.2105 -0.0107 -0.1235
 6402TIP3    H140697   1.022   4.175  14.368  0.4288  1.5272  0.1309
 6402TIP3    H240698   0.964   4.136  14.502 -0.5497 -1.4757 -1.1199
 6403TIP3   OH240699   4.059   6.526  15.359 -0.1463  0.5906 -0.7712
 6403TIP3    H140700   3.982   6.521  15.303 -0.0386  1.0728 -0.9681
 6403TIP3    H240701   4.027   6.565  15.441 -0.0021  1.3386 -1.0661
 6404TIP3   OH240702   5.795   2.513   0.030  0.2695  0.2447  0.4694
 6404TIP3    H140703   5.788   2.424  -0.004 -0.1751  0.2404  0.5594
 6404TIP3    H240704   5.883   2.519   0.065  0.6126  0.1305 -0.3582
 6405TIP3   OH240705   4.052   4.856   0.752  0.0732  0.0651  0.0202
 6405TIP3    H140706   4.062   4.915   0.676  0.8165 -0.6351 -0.4349
 6405TIP3    H240707   4.026   4.772   0.714 -3.7368  0.7744  0.8802
 6406TIP3   OH240708   0.540   4.262   0.574 -0.1205  0.3326  0.1428
 6406TIP3    H140709   0.464   4.270   0.630 -1.0294 -2.3262 -0.6342
 6406TIP3    H240710   0.578   4.177   0.597  1.3182  0.6351 -1.0325
 6407TIP3   OH240711   4.109   3.027  12.358  0.4674  0.3090 -0.4441
 6407TIP3    H140712   4.161   2.954  12.323 -3.8758 -2.5799 -1.3890
 6407TIP3    H240713   4.153   3.051  12.440  3.7638 -1.2659 -1.6624
 6408TIP3   OH240714   2.420   1.792   0.119  0.2628 -0.0374 -0.3469
 6408TIP3    H140715   2.436   1.716   0.064 -0.5610 -1.4460  1.3232
 6408TIP3    H240716   2.480   1.781   0.193 -0.2190  0.6660  0.1541
 6409TIP3   OH240717   6.252   6.355   5.529  0.6084  0.0984 -0.4598
 6409TIP3    H140718   6.299   6.273   5.546  0.8901  0.1842 -0.8266
 6409TIP3    H240719   6.291   6.418   5.590 -0.2904 -0.2786  0.5273
 6410TIP3   OH240720   1.237   3.257  11.023 -0.0347 -0.2487 -0.2277
 6410TIP3    H140721   1.297   3.327  11.001 -1.9731  1.5195 -0.0639
 6410TIP3    H240722   1.227   3.262  11.118  1.8715 -2.4920  0.1320
 6411TIP3   OH240723   1.289   4.100  14.316  0.1369 -0.3331  0.2859
 6411TIP3    H140724   1.359   4.045  14.352  2.5210  2.3472 -0.0035
 6411TIP3    H240725   1.240   4.131  14.392  0.1909 -1.0666  0.6169
 6412TIP3   OH240726   5.366   3.640   4.276 -0.1091  0.6075  0.1888
 6412TIP3    H140727   5.282   3.630   4.320  0.2503  0.6170  0.8795
 6412TIP3    H240728   5.411   3.709   4.326  0.4029  0.4342 -0.0306
 6413TIP3   OH240729   5.259   3.936   3.322 -0.0419 -0.1976 -0.1291
 6413TIP3    H140730   5.221   3.926   3.234 -0.7257  2.2398 -0.1320
 6413TIP3    H240731   5.203   3.882   3.378 -0.8651 -0.1306 -0.8664
 6414TIP3   OH240732   0.201   0.936   0.989  0.1702  0.2183 -0.0317
 6414TIP3    H140733   0.218   0.852   1.030 -0.7523  0.5847  1.1380
 6414TIP3    H240734   0.125   0.971   1.036  0.3040  1.5249 -0.7513
 6415TIP3   OH240735   5.261   4.474   0.946 -0.1169 -0.0694 -0.0023
 6415TIP3    H140736   5.257   4.426   1.028 -0.4708 -1.2507 -0.6880
 6415TIP3    H240737   5.186   4.441   0.896 -0.3525  1.1894 -0.4938
 6416TIP3   OH240738   4.974   3.197   1.774  0.7179  0.4576 -0.6180
 6416TIP3    H140739   4.952   3.230   1.861 -1.1012  1.3797 -1.3859
 6416TIP3    H240740   4.923   3.116   1.766 -0.6833  1.4061 -1.5458
 6417TIP3   OH240741   5.418   1.260  12.232 -0.1266 -0.5090  0.2762
 6417TIP3    H140742   5.337   1.214  12.253  0.4148 -1.6662 -0.1641
 6417TIP3    H240743   5.443   1.227  12.146  0.4961  0.3002  0.1394
 6418TIP3   OH240744   6.039   4.871  15.064  0.6239 -0.3827 -0.1164
 6418TIP3    H140745   5.977   4.875  15.136  0.5836  0.0962 -0.1777
 6418TIP3    H240746   6.065   4.779  15.060 -1.7587 -1.0434 -1.5221
 6419TIP3   OH240747   5.241   4.281  15.368  0.6914  0.2262  0.6550
 6419TIP3    H140748   5.301   4.224  15.320 -2.5657 -0.9603 -2.1286
 6419TIP3    H240749   5.202   4.225  15.435  1.2981  0.5483  1.2923
 6420TIP3   OH240750   1.127   4.921  14.928 -0.0574 -0.5512 -0.1331
 6420TIP3    H140751   1.069   4.870  14.871 -0.1313 -0.0207 -0.5333
 6420TIP3    H240752   1.196   4.859  14.953  0.0406 -0.7582 -0.8956
 6421TIP3   OH240753   5.110   3.852  12.539 -0.1032 -0.4343  0.0567
 6421TIP3    H140754   5.164   3.856  12.460 -1.1986  0.7938 -0.6575
 6421TIP3    H240755   5.050   3.778  12.523  0.8078 -1.2760  0.4952
 6422TIP3   OH240756   6.715   4.791   3.854 -0.1756  0.6964  0.0158
 6422TIP3    H140757   6.636   4.820   3.900  0.1199  1.8998 -0.2185
 6422TIP3    H240758   6.771   4.869   3.851  0.5815  0.1298 -0.7477
 6423TIP3   OH240759   0.660   1.089   4.647 -0.1340 -0.1538 -0.1416
 6423TIP3    H140760   0.706   1.173   4.650  1.1069 -0.8391  0.8231
 6423TIP3    H240761   0.568   1.111   4.641  0.1850  1.2755  0.1219
 6424TIP3   OH240762   5.995   2.230   2.031 -0.2367 -0.1464 -0.3749
 6424TIP3    H140763   6.014   2.319   2.001 -0.0908  0.6067  1.8697
 6424TIP3    H240764   6.075   2.201   2.073 -0.8090 -0.7421  0.3154
 6425TIP3   OH240765   5.349   6.796   0.156 -0.7769  0.1618 -0.6506
 6425TIP3    H140766   5.367   6.798   0.062  0.1380 -1.5345 -0.5279
 6425TIP3    H240767   5.257   6.770   0.163 -0.2774 -1.7645 -1.0444
 6426TIP3   OH240768   4.470   1.611   4.127 -0.1603 -0.1587 -0.4212
 6426TIP3    H140769   4.468   1.590   4.221  0.8392  0.7733 -0.1811
 6426TIP3    H240770   4.519   1.540   4.087  1.7553  0.8161  0.1508
 6427TIP3   OH240771   2.230   2.222   0.253  0.2193 -0.2726 -0.0938
 6427TIP3    H140772   2.173   2.216   0.330  0.1437 -0.9150 -0.1942
 6427TIP3    H240773   2.181   2.178   0.183  1.3989 -1.9950  0.1476
 6428TIP3   OH240774   4.449   3.284   1.934  0.0976 -0.3023 -0.1993
 6428TIP3    H140775   4.543   3.284   1.948 -0.0242  0.3248  0.7010
 6428TIP3    H240776   4.412   3.295   2.022 -0.8042 -0.3230 -0.5702
 6429TIP3   OH240777   3.209   0.836  12.113 -0.2627  0.5073  0.0243
 6429TIP3    H140778   3.236   0.804  12.027  1.0533  2.0445 -0.1605
 6429TIP3    H240779   3.203   0.931  12.102 -0.1149  0.7061  1.6127
 6430TIP3   OH240780   0.134   1.609  14.481 -0.0419 -0.2172 -0.4316
 6430TIP3    H140781   0.134   1.637  14.390 -0.9342  0.4601 -0.2304
 6430TIP3    H240782   0.219   1.569  14.494  0.6554  0.9931 -1.1739
 6431TIP3   OH240783   5.125   3.597  11.209 -0.2517 -0.1250 -0.1583
 6431TIP3    H140784   5.113   3.503  11.194 -0.4283 -0.5417  2.3868
 6431TIP3    H240785   5.036   3.631  11.218 -0.2067  0.3930 -1.5119
 6432TIP3   OH240786   2.742   5.590  12.162 -0.1654  0.7372  0.1466
 6432TIP3    H140787   2.794   5.511  12.171 -1.2452  0.1590  1.5388
 6432TIP3    H240788   2.713   5.610  12.251 -3.0911  0.4785 -0.6812
 6433TIP3   OH240789   4.941   1.402   2.647  0.2882 -0.1829 -0.0320
 6433TIP3    H140790   4.910   1.357   2.726  1.1992 -0.1273  0.3624
 6433TIP3    H240791   5.013   1.457   2.678  0.3094  0.2285 -0.8164
 6434TIP3   OH240792   3.907   5.858   2.905  0.2756  0.0682  0.2922
 6434TIP3    H140793   3.857   5.777   2.900 -1.1681  0.9582 -0.3098
 6434TIP3    H240794   3.936   5.864   2.996 -2.8454  0.7149  1.3070
 6435TIP3   OH240795   1.589   1.737   2.391  0.1291  0.4084  0.4367
 6435TIP3    H140796   1.525   1.754   2.460  0.2111 -0.0616  0.6277
 6435TIP3    H240797   1.563   1.653   2.353 -0.5707  1.1808 -0.8441
 6436TIP3   OH240798   4.041   1.096  12.651 -0.1499  0.3557 -0.3906
 6436TIP3    H140799   4.130   1.108  12.618  0.1417 -0.6411  0.0247
 6436TIP3    H240800   3.993   1.174  12.620  1.2902  1.7687  0.8447
 6437TIP3   OH240801   2.117   4.214   4.047  0.0378  0.2925 -0.0855
 6437TIP3    H140802   2.169   4.264   3.984 -2.4280 -0.3744 -2.7881
 6437TIP3    H240803   2.062   4.280   4.089 -0.6134  0.3403 -1.0007
 6438TIP3   OH240804   3.817   6.037  12.106 -0.7197  0.4384 -0.3452
 6438TIP3    H140805   3.734   6.054  12.149 -0.3383  0.0629  0.5411
 6438TIP3    H240806   3.794   5.986  12.028 -1.3446  0.5974 -0.2600
 6439TIP3   OH240807   0.139   0.604  14.617  0.3213  0.0385  0.4090
 6439TIP3    H140808   0.182   0.629  14.699  0.0879  1.2529  0.1736
 6439TIP3    H240809   0.201   0.630  14.549  0.1079 -0.1094  0.1580
 6440TIP3   OH240810   6.676   3.538   0.985 -0.2724 -0.6431  0.3103
 6440TIP3    H140811   6.717   3.540   1.071 -2.2871 -0.1110  1.2935
 6440TIP3    H240812   6.704   3.619   0.943  0.2073 -0.6014  0.7102
 6441TIP3   OH240813   3.943   6.304   6.004  0.7251  0.6599 -0.3375
 6441TIP3    H140814   3.981   6.349   5.929  0.6253  0.0480 -0.7570
 6441TIP3    H240815   3.891   6.233   5.965 -1.0361  1.6106  0.1914
 6442TIP3   OH240816   1.707   0.733   5.704  0.3853  0.2264  0.1302
 6442TIP3    H140817   1.648   0.673   5.750  0.3790  0.7766  0.8408
 6442TIP3    H240818   1.794   0.708   5.734  0.3664  0.7183  0.6027
 6443TIP3   OH240819   5.141   1.740  11.739 -0.7677  0.0303 -0.6045
 6443TIP3    H140820   5.175   1.825  11.766 -1.8145  0.5187 -0.7933
 6443TIP3    H240821   5.111   1.699  11.820 -1.8882  0.5775 -0.7451
 6444TIP3   OH240822   5.804   6.064  16.184  0.0420 -0.0793 -0.1671
 6444TIP3    H140823   5.855   5.995  16.227 -0.1592  0.5157  1.0431
 6444TIP3    H240824   5.732   6.082  16.244  1.9667  3.5542  1.2333
 6445TIP3   OH240825   4.311   0.848  13.397  0.6210 -0.7669 -0.0499
 6445TIP3    H140826   4.404   0.848  13.376  0.6808  0.1874  0.2278
 6445TIP3    H240827   4.268   0.830  13.314  1.0258 -0.6602 -0.2829
 6446TIP3   OH240828   6.420   2.609  14.397 -0.1051  0.1276  0.1590
 6446TIP3    H140829   6.472   2.610  14.317  0.5635  0.4480  0.5959
 6446TIP3    H240830   6.380   2.522  14.399  1.5089 -0.6189  0.5236
 6447TIP3   OH240831   5.603   1.057   3.803  0.0920 -0.5345 -0.4799
 6447TIP3    H140832   5.608   0.961   3.801  2.0627 -0.5293  1.8531
 6447TIP3    H240833   5.676   1.085   3.747 -1.3344 -0.3579 -2.2989
 6448TIP3   OH240834   2.953   0.912  13.148 -0.0186  0.3615 -0.3844
 6448TIP3    H140835   2.879   0.920  13.088  0.4647 -1.8445 -1.3009
 6448TIP3    H240836   3.027   0.890  13.092  0.1926 -2.9496  1.1089
 6449TIP3   OH240837   1.810   0.506   0.903 -0.0115  0.2796 -0.2550
 6449TIP3    H140838   1.756   0.478   0.977  0.5728 -0.3157 -0.0495
 6449TIP3    H240839   1.890   0.454   0.910  0.9472  1.7387 -0.0789
 6450TIP3   OH240840   5.803   5.921   1.448  0.4603 -0.4954 -0.2702
 6450TIP3    H140841   5.760   5.996   1.407 -0.6852 -1.6222 -1.1778
 6450TIP3    H240842   5.775   5.923   1.539  1.2270  0.7368 -0.0479
 6451TIP3   OH240843   4.258   2.959  14.446  0.0997 -0.3835  0.5854
 6451TIP3    H140844   4.270   2.961  14.541  0.9249 -1.4766  0.5129
 6451TIP3    H240845   4.180   3.013  14.430  1.9524  2.6598  1.5468
 6452TIP3   OH240846   5.686   4.176  16.856  0.3011 -0.2638  0.0180
 6452TIP3    H140847   5.613   4.140  16.806 -0.4028  0.6767  0.3492
 6452TIP3    H240848   5.740   4.220  16.790  0.4781 -0.8064 -0.2018
 6453TIP3   OH240849   1.236   3.557  14.689 -0.4475  0.4927 -0.0245
 6453TIP3    H140850   1.216   3.583  14.779 -2.2095  0.8469 -0.5045
 6453TIP3    H240851   1.168   3.493  14.666  0.9496 -0.8260 -0.5605
 6454TIP3   OH240852   2.603   2.470  16.255  0.2045 -0.7915  0.0777
 6454TIP3    H140853   2.603   2.456  16.350 -1.1214 -0.8919  0.0718
 6454TIP3    H240854   2.619   2.384  16.217 -0.1803 -0.9172  0.2000
 6455TIP3   OH240855   6.389   6.245  12.795  0.2624 -0.2776 -0.3435
 6455TIP3    H140856   6.386   6.233  12.700  0.5735 -1.0095 -0.2619
 6455TIP3    H240857   6.460   6.188  12.824  1.9355  1.9054  0.0291
 6456TIP3   OH240858   4.465   2.849   2.610 -0.3272 -0.2297 -0.4073
 6456TIP3    H140859   4.462   2.755   2.593  1.2675 -0.1370 -1.3018
 6456TIP3    H240860   4.473   2.856   2.705  2.8687 -1.1207 -0.5569
 6457TIP3   OH240861   0.761   3.150  13.757  0.1928  0.4052 -0.2750
 6457TIP3    H140862   0.695   3.194  13.811 -0.0655 -0.2882 -0.0270
 6457TIP3    H240863   0.826   3.218  13.739 -0.3446  0.9637 -0.1181
 6458TIP3   OH240864   5.711   3.842  13.536 -0.1750  0.0317 -0.1980
 6458TIP3    H140865   5.769   3.918  13.532 -0.0315 -0.0751 -0.1723
 6458TIP3    H240866   5.674   3.835  13.448  0.6216 -0.4932 -0.5007
 6459TIP3   OH240867   3.418   5.288  16.251  0.0858  0.0179  0.4177
 6459TIP3    H140868   3.362   5.217  16.283  1.7262 -0.6311  1.9563
 6459TIP3    H240869   3.402   5.290  16.156 -1.5095 -1.0405  0.6412
 6460TIP3   OH240870   3.555   5.589  10.941 -0.4399  0.1390 -0.2886
 6460TIP3    H140871   3.509   5.579  11.024 -0.4517  1.4518 -0.1215
 6460TIP3    H240872   3.553   5.684  10.924 -0.6490 -0.1392 -1.8967
 6461TIP3   OH240873   2.106   1.989   5.014 -0.1842  0.2267  0.0201
 6461TIP3    H140874   2.019   1.954   5.034 -0.7177  1.5899  0.0975
 6461TIP3    H240875   2.090   2.077   4.981  1.1593  0.4248 -0.1310
 6462TIP3   OH240876   1.291   0.738  16.984  0.5309 -0.0633 -1.2403
 6462TIP3    H140877   1.361   0.804  16.985  1.8907 -1.4748 -0.7061
 6462TIP3    H240878   1.318   0.675  16.917  0.5700 -1.4350  0.0368
 6463TIP3   OH240879   4.715   2.065  14.975  0.7011  0.0782  0.2233
 6463TIP3    H140880   4.749   2.065  14.886  2.7274  0.5455  0.9800
 6463TIP3    H240881   4.676   2.152  14.986  2.1142  0.6975  0.4032
 6464TIP3   OH240882   6.597   4.983  16.772  0.6395 -0.2001  0.2993
 6464TIP3    H140883   6.684   4.954  16.799  1.3548  0.6853 -0.9865
 6464TIP3    H240884   6.549   4.902  16.755  0.2873 -0.7743  3.7351
 6465TIP3   OH240885   3.482   6.212  15.750 -0.0278  0.3980  0.4577
 6465TIP3    H140886   3.515   6.172  15.670  0.0609  1.4944 -0.0673
 6465TIP3    H240887   3.393   6.239  15.729  0.7427  2.7024 -0.0207
 6466TIP3   OH240888   2.566   0.137  16.555  0.4387 -0.8046 -0.0473
 6466TIP3    H140889   2.623   0.214  16.552  0.8237 -1.1072 -0.5502
 6466TIP3    H240890   2.554   0.119  16.649  0.6209 -0.3387  0.0617
 6467TIP3   OH240891   3.807   0.047   4.359 -0.2535  0.1132 -0.3621
 6467TIP3    H140892   3.828  -0.006   4.282  1.4544 -0.2471  0.3283
 6467TIP3    H240893   3.770  -0.016   4.421 -2.7055  0.5991 -1.2645
 6468TIP3   OH240894   4.407   3.602   3.557 -0.4053  0.5553 -0.0541
 6468TIP3    H140895   4.403   3.585   3.463  0.9487  0.5018 -0.1132
 6468TIP3    H240896   4.360   3.684   3.569  0.5161  1.2247 -0.9608
 6469TIP3   OH240897   6.261   0.773  16.349 -0.0751 -0.5229 -0.2395
 6469TIP3    H140898   6.282   0.684  16.321 -0.1879 -0.5209 -0.3342
 6469TIP3    H240899   6.284   0.827  16.273  2.4778 -0.1572  0.7602
 6470TIP3   OH240900   3.763   4.680   2.756 -1.1082  0.0584 -0.1939
 6470TIP3    H140901   3.844   4.716   2.791 -2.6473  1.2751  2.2675
 6470TIP3    H240902   3.773   4.585   2.765 -0.9971  0.2962  2.5840
 6471TIP3   OH240903   5.061   1.609  12.568  0.3874 -0.8051  0.0549
 6471TIP3    H140904   5.035   1.550  12.498 -0.2454 -0.6999  0.1966
 6471TIP3    H240905   5.096   1.552  12.636  0.9735 -0.9113 -0.3246
 6472TIP3   OH240906   4.676   5.585  15.049  0.2584  0.2183  0.5292
 6472TIP3    H140907   4.727   5.634  14.984 -1.2563  2.2037  0.7643
 6472TIP3    H240908   4.627   5.653  15.095 -2.1996 -1.5927  0.6319
 6473TIP3   OH240909   0.587   3.788   1.880 -0.4751  0.2352 -0.1286
 6473TIP3    H140910   0.511   3.773   1.824 -1.2663 -1.1925  1.2821
 6473TIP3    H240911   0.550   3.828   1.960  0.4990  1.2775 -0.1840
 6474TIP3   OH240912   2.259   4.315  16.306 -0.7578 -0.2191  0.1670
 6474TIP3    H140913   2.200   4.355  16.370 -2.3414 -1.0248 -0.7561
 6474TIP3    H240914   2.209   4.316  16.224  1.2343  0.7672 -1.0656
 6475TIP3   OH240915   5.456   2.326  10.291 -0.1627 -0.3217 -0.1574
 6475TIP3    H140916   5.476   2.242  10.249 -1.7705 -0.3350 -0.9487
 6475TIP3    H240917   5.364   2.319  10.317 -0.4446  1.3364 -0.6167
 6476TIP3   OH240918   1.262   5.572   3.506 -0.6317  0.2382  0.0892
 6476TIP3    H140919   1.348   5.538   3.485 -0.7022  0.9904 -1.4720
 6476TIP3    H240920   1.202   5.500   3.488 -0.4467  0.0963  0.0475
 6477TIP3   OH240921   1.548   0.326   4.739 -0.2448 -0.4714 -0.2146
 6477TIP3    H140922   1.600   0.338   4.819  0.3700 -0.0738 -0.6737
 6477TIP3    H240923   1.545   0.231   4.727 -0.8920 -0.5647  0.6421
 6478TIP3   OH240924   5.885   1.039   0.193 -0.4466  0.2086  0.2213
 6478TIP3    H140925   5.818   1.010   0.255 -0.0177 -1.0184  0.1225
 6478TIP3    H240926   5.962   0.985   0.213  0.1629  0.8207 -0.4146
 6479TIP3   OH240927   1.187   1.406  14.846 -0.2552 -0.4031 -0.5935
 6479TIP3    H140928   1.114   1.438  14.899 -0.4508 -0.7563 -0.6459
 6479TIP3    H240929   1.146   1.344  14.785  0.1122 -0.7130 -0.5235
 6480TIP3   OH240930   6.304   3.558  15.917  0.2164 -0.1479  0.2220
 6480TIP3    H140931   6.285   3.611  15.994 -0.1993  1.8609 -1.2270
 6480TIP3    H240932   6.351   3.481  15.951 -1.1115  0.0576  2.6015
 6481TIP3   OH240933   6.426   2.842   3.195  0.1197 -0.1240 -0.2979
 6481TIP3    H140934   6.424   2.803   3.107  1.3250  2.0427 -1.3149
 6481TIP3    H240935   6.413   2.935   3.181 -0.7192  0.1298  1.9342
 6482TIP3   OH240936   6.359   5.534   1.938  0.0183 -0.1590  0.0385
 6482TIP3    H140937   6.371   5.455   1.992 -0.1190 -0.2191 -0.0175
 6482TIP3    H240938   6.264   5.542   1.930  0.0464 -0.3099 -0.4306
 6483TIP3   OH240939   0.675   1.505  11.283  0.5012  0.7031 -0.3224
 6483TIP3    H140940   0.644   1.421  11.248 -0.1808  0.1059  1.6943
 6483TIP3    H240941   0.657   1.568  11.213  1.5212 -0.9039 -2.0825
 6484TIP3   OH240942   3.355   0.864   2.140  0.1823  0.3712  0.3344
 6484TIP3    H140943   3.363   0.772   2.116  0.3104  0.2115  0.9816
 6484TIP3    H240944   3.437   0.884   2.185  1.0751  1.3803 -1.6742
 6485TIP3   OH240945   0.527   3.330  13.840 -0.7749  0.2468 -0.4508
 6485TIP3    H140946   0.452   3.311  13.784 -0.2604  2.7634 -2.0605
 6485TIP3    H240947   0.549   3.422  13.821  1.1808  0.2919  1.7910
 6486TIP3   OH240948   0.001   2.135  14.271  0.5581  0.2423 -0.4351
 6486TIP3    H140949  -0.084   2.163  14.237 -0.2305  1.3504  2.3064
 6486TIP3    H240950  -0.010   2.041  14.286 -1.1935  0.8256  2.4754
 6487TIP3   OH240951   0.679   5.214  12.558 -0.2771 -0.2275  0.1516
 6487TIP3    H140952   0.667   5.268  12.637  0.0234  0.1614 -0.0702
 6487TIP3    H240953   0.692   5.126  12.592  0.5947  0.0562  0.5765
 6488TIP3   OH240954   0.583   2.498   2.084  0.1173  0.4669  0.0352
 6488TIP3    H140955   0.548   2.433   2.145  0.6101  1.2817  1.2040
 6488TIP3    H240956   0.510   2.517   2.025 -0.1443 -0.8577 -0.0885
 6489TIP3   OH240957   6.602   0.552   2.051  0.1476 -0.0771  0.0882
 6489TIP3    H140958   6.519   0.504   2.059  0.4626 -0.4645  0.9976
 6489TIP3    H240959   6.632   0.564   2.141  1.2489 -0.2232 -0.2550
 6490TIP3   OH240960   5.621   4.685  17.196 -0.7174 -0.1268  0.3349
 6490TIP3    H140961   5.710   4.650  17.193 -1.1926 -1.3270 -0.1547
 6490TIP3    H240962   5.591   4.665  17.284 -0.9845 -0.9831  0.0602
 6491TIP3   OH240963   0.269   3.674  13.566 -0.0092 -0.0031 -0.3029
 6491TIP3    H140964   0.205   3.634  13.625 -1.1705  3.3606  0.8533
 6491TIP3    H240965   0.219   3.691  13.486 -0.1830  1.2645  0.0671
 6492TIP3   OH240966   2.610   4.537   1.637  0.2796  0.1026 -0.0605
 6492TIP3    H140967   2.543   4.497   1.581  0.9881  0.8146 -1.4642
 6492TIP3    H240968   2.598   4.497   1.723 -2.9172  1.3245  0.1075
 6493TIP3   OH240969   5.102   4.283   5.266 -0.3769 -0.1340 -0.2775
 6493TIP3    H140970   5.126   4.267   5.174  2.6610  1.6846  0.1242
 6493TIP3    H240971   5.097   4.195   5.304 -0.9318 -0.8768 -1.9911
 6494TIP3   OH240972   0.965   3.285   0.767 -0.3691 -0.1928  0.0491
 6494TIP3    H140973   1.056   3.277   0.737 -0.9548 -1.5793 -1.4319
 6494TIP3    H240974   0.935   3.195   0.775 -1.6615  0.2643  0.3768
 6495TIP3   OH240975   6.048   4.177   3.979 -0.3566  0.0680  0.1971
 6495TIP3    H140976   6.106   4.107   4.009  2.2007  2.8404  1.9755
 6495TIP3    H240977   6.103   4.231   3.922 -1.7906  1.5916  0.2179
 6496TIP3   OH240978   1.900   4.971   0.595 -0.4433 -0.4582  0.0358
 6496TIP3    H140979   1.898   4.921   0.677 -0.4152 -1.2097 -0.4176
 6496TIP3    H240980   1.941   5.054   0.619 -2.3118  0.1423  1.2301
 6497TIP3   OH240981   2.594   5.736  14.603 -0.0236  0.1865  0.2733
 6497TIP3    H140982   2.519   5.676  14.598  0.1149  0.0218  0.1390
 6497TIP3    H240983   2.579   5.786  14.683  0.1402 -0.4053  0.6788
 6498TIP3   OH240984   1.064   0.064   4.238  0.4425 -0.4864 -0.7833
 6498TIP3    H140985   1.096   0.021   4.159  1.5914 -2.5000  0.7289
 6498TIP3    H240986   1.024  -0.006   4.289  0.2820  0.6589  0.6928
 6499TIP3   OH240987   1.372   2.117   5.317  0.1289  0.1407 -0.0241
 6499TIP3    H140988   1.426   2.110   5.395  0.4542  0.6794 -0.1968
 6499TIP3    H240989   1.287   2.080   5.342  0.1678  0.5005  0.6409
 6500TIP3   OH240990   4.073   1.615   2.937  0.0457 -0.2636  0.4701
 6500TIP3    H140991   4.017   1.561   2.881  1.5926 -0.4855 -0.8989
 6500TIP3    H240992   4.100   1.555   3.007  2.9829 -1.7808 -1.8630
 6501TIP3   OH240993   4.036   2.864  16.621 -0.1810  0.2384  0.4003
 6501TIP3    H140994   3.986   2.915  16.557  0.6046  0.8053  0.2412
 6501TIP3    H240995   4.089   2.928  16.667  0.0951 -0.3166  0.8558
 6502TIP3   OH240996   3.975   2.259  13.882  0.2766 -0.1171 -0.4216
 6502TIP3    H140997   4.059   2.218  13.859  0.4457 -0.9799  1.6472
 6502TIP3    H240998   3.986   2.351  13.855  2.5750  0.2045  1.4173
 6503TIP3   OH240999   3.747   0.871  14.683 -0.0452 -0.4094 -0.4137
 6503TIP3    H141000   3.676   0.855  14.621 -0.7220 -0.1977  0.2882
 6503TIP3    H241001   3.766   0.964  14.674 -0.0060 -0.4210 -0.4485
 6504TIP3   OH241002   6.552   5.076  16.534  0.7513 -0.1409  0.2427
 6504TIP3    H141003   6.559   5.041  16.623  0.6243 -1.8459 -0.3943
 6504TIP3    H241004   6.526   5.167  16.545  0.3802 -0.4504  1.9390
 6505TIP3   OH241005   6.557   6.770  14.905 -0.1813 -0.4808 -0.2015
 6505TIP3    H141006   6.545   6.779  14.811 -0.4717  0.4403 -0.0764
 6505TIP3    H241007   6.473   6.797  14.943 -0.4112 -1.7936  0.2815
 6506TIP3   OH241008   5.450   4.931  14.785  0.4046  0.1024 -0.2658
 6506TIP3    H141009   5.410   5.011  14.751  0.9665  0.2555 -0.5739
 6506TIP3    H241010   5.460   4.947  14.879  2.9223  1.4534 -0.7233
 6507TIP3   OH241011   5.144   2.487   1.176  0.3059  0.3234 -0.2631
 6507TIP3    H141012   5.213   2.445   1.125 -0.3289 -1.0544 -0.0422
 6507TIP3    H241013   5.164   2.580   1.174  1.2763  0.0928 -1.5264
 6508TIP3   OH241014   1.547   4.264   1.542  0.2638 -0.5658  0.0162
 6508TIP3    H141015   1.544   4.344   1.595 -0.5087 -1.1113  0.7954
 6508TIP3    H241016   1.464   4.263   1.495  0.7438 -0.3364 -0.8393
 6509TIP3   OH241017   4.769   0.124   0.500 -0.1707  0.5001 -0.6943
 6509TIP3    H141018   4.845   0.073   0.472 -0.3488 -1.0703  1.5833
 6509TIP3    H241019   4.792   0.156   0.588 -1.2539  1.8818 -0.8892
 6510TIP3   OH241020   3.425   4.207   4.116 -0.0410  0.1760 -0.3209
 6510TIP3    H141021   3.439   4.283   4.059 -0.5641 -1.3974 -2.5722
 6510TIP3    H241022   3.330   4.195   4.118 -0.1029  0.7593  1.6454
 6511TIP3   OH241023   2.879   4.768  16.844  0.1225  0.7018 -0.3942
 6511TIP3    H141024   2.947   4.802  16.903  1.5529 -0.7316 -1.1997
 6511TIP3    H241025   2.918   4.774  16.757  0.1152 -2.2893 -0.6274
 6512TIP3   OH241026   3.933   5.989  11.103  0.7470  0.3210 -0.0454
 6512TIP3    H141027   3.838   5.975  11.099  0.6003  1.1188  0.6096
 6512TIP3    H241028   3.969   5.928  11.039 -0.1138 -0.9532  0.6649
 6513TIP3   OH241029   6.506   0.920  13.339  0.2733  0.3508  0.4137
 6513TIP3    H141030   6.583   0.933  13.282 -0.2232 -1.4864 -0.7128
 6513TIP3    H241031   6.531   0.847  13.396  0.4545  1.6601  2.0372
 6514TIP3   OH241032   6.472   2.827   1.683  0.0039  0.0254  0.2995
 6514TIP3    H141033   6.543   2.772   1.718  1.1309  1.2455 -0.0335
 6514TIP3    H241034   6.467   2.901   1.743  0.6176  1.1390 -0.9910
 6515TIP3   OH241035   0.387   2.521  12.522  0.0184  0.2394  0.2553
 6515TIP3    H141036   0.319   2.588  12.527  1.1712  1.5472 -1.0873
 6515TIP3    H241037   0.467   2.566  12.551  0.3506 -1.2433  1.7244
 6516TIP3   OH241038   3.435   0.504   3.873  0.0893 -1.0213 -0.0885
 6516TIP3    H141039   3.494   0.522   3.800  0.5401 -1.5270  0.1483
 6516TIP3    H241040   3.400   0.417   3.855  1.8054 -2.0518  1.3551
 6517TIP3   OH241041   4.917   6.562   4.453  0.0959  0.2039  0.0526
 6517TIP3    H141042   4.900   6.656   4.446 -0.9271 -0.0558 -1.3873
 6517TIP3    H241043   4.997   6.555   4.504  0.7765  1.9057 -0.7405
 6518TIP3   OH241044   4.302   2.264  16.045  0.1334 -0.0710 -0.1886
 6518TIP3    H141045   4.371   2.259  15.978 -0.4435  1.0002 -0.8715
 6518TIP3    H241046   4.223   2.236  16.000 -0.3653  1.1920 -0.1102
 6519TIP3   OH241047   2.988   4.926  10.675  0.2716 -0.2250  0.0869
 6519TIP3    H141048   2.953   4.893  10.757 -0.0134 -1.2378 -0.4332
 6519TIP3    H241049   2.950   4.868  10.608  1.2336  0.0127 -0.6692
 6520TIP3   OH241050   6.065   2.996   6.056 -0.3106 -0.4242  1.0610
 6520TIP3    H141051   6.058   2.902   6.067 -1.0605 -0.4220  0.6238
 6520TIP3    H241052   5.993   3.019   5.997  1.5402  0.0136 -1.0830
 6521TIP3   OH241053   4.031   3.649   1.915  0.0993 -0.0154 -0.4189
 6521TIP3    H141054   4.043   3.743   1.902  2.0689 -0.2768 -0.6212
 6521TIP3    H241055   4.097   3.608   1.859 -1.3890 -1.5474 -1.0776
 6522TIP3   OH241056   3.952   0.415   1.111 -0.2379 -0.0682  1.0420
 6522TIP3    H141057   4.043   0.387   1.119 -0.4893 -1.1409  0.2013
 6522TIP3    H241058   3.903   0.335   1.094 -1.0025  0.8551 -1.2452
 6523TIP3   OH241059   3.120   3.146  14.222  0.0788  0.3580 -0.4568
 6523TIP3    H141060   3.172   3.127  14.301 -0.0346  1.5026 -0.1090
 6523TIP3    H241061   3.166   3.219  14.180 -0.3330  0.2947 -1.0197
 6524TIP3   OH241062   4.670   5.046  14.133 -0.4611  0.2654 -0.1455
 6524TIP3    H141063   4.677   5.082  14.045 -2.9316 -1.2375 -0.9984
 6524TIP3    H241064   4.717   4.962  14.128  0.1583  0.5908  0.2069
 6525TIP3   OH241065   5.377   6.370   3.037  0.3875  0.6568 -0.3484
 6525TIP3    H141066   5.360   6.336   3.125  1.0018  0.1252 -0.4379
 6525TIP3    H241067   5.424   6.301   2.992 -0.9173  0.4680 -1.4790
 6526TIP3   OH241068   3.827   4.472   3.808 -0.4665 -0.3906  0.4114
 6526TIP3    H141069   3.913   4.463   3.851 -0.5542 -1.8936  0.2917
 6526TIP3    H241070   3.840   4.433   3.721 -1.0248  0.2299  0.0493
 6527TIP3   OH241071   6.428   1.668  15.414  0.2156  0.7604  0.1186
 6527TIP3    H141072   6.383   1.616  15.480 -1.5489  0.8079 -1.0323
 6527TIP3    H241073   6.436   1.609  15.339  2.5314  0.5876  0.4442
 6528TIP3   OH241074   3.294   5.034   5.068 -0.2769 -0.2744 -0.3565
 6528TIP3    H141075   3.248   4.952   5.083  0.0559 -0.1783  1.2135
 6528TIP3    H241076   3.386   5.014   5.083 -0.2422  0.4952  0.4735
 6529TIP3   OH241077   1.885   3.130   4.587  0.1276 -0.0175 -0.1538
 6529TIP3    H141078   1.918   3.219   4.590 -0.5166  0.2116  0.1452
 6529TIP3    H241079   1.962   3.076   4.572  0.6696  0.4918  0.8213
 6530TIP3   OH241080   6.482   3.626  17.072 -0.2193 -0.3068  0.0162
 6530TIP3    H141081   6.565   3.579  17.061  0.9820  1.8730 -0.6832
 6530TIP3    H241082   6.467   3.626  17.167  1.8595  1.2936  0.3963
 6531TIP3   OH241083   3.855   3.440  15.905 -0.2015 -0.2943 -0.5365
 6531TIP3    H141084   3.897   3.515  15.864  1.1850 -0.4157  0.6050
 6531TIP3    H241085   3.916   3.368  15.890  1.0541 -0.0443  2.9135
 6532TIP3   OH241086   0.875   0.346  11.854  0.0153  0.0911  0.6988
 6532TIP3    H141087   0.811   0.417  11.862 -0.0713  0.4472 -2.4142
 6532TIP3    H241088   0.953   0.378  11.900 -1.3550  0.4787  2.8121
 6533TIP3   OH241089   2.413   2.998   2.811 -0.2266  0.0098  0.1109
 6533TIP3    H141090   2.404   2.912   2.769 -2.5162  0.0044  0.5407
 6533TIP3    H241091   2.500   2.997   2.851 -0.5891 -2.4382  0.8662
 6534TIP3   OH241092   1.597   0.486   0.019  0.0533 -0.3382 -0.4535
 6534TIP3    H141093   1.652   0.552  -0.023  0.2304  0.1157  0.4642
 6534TIP3    H241094   1.516   0.485  -0.032 -0.3533  1.3171  0.1215
 6535TIP3   OH241095   0.284   2.352   1.744  0.0991 -0.4063 -0.6271
 6535TIP3    H141096   0.269   2.260   1.767  1.0839 -0.4893 -0.2743
 6535TIP3    H241097   0.380   2.362   1.746 -0.0980  1.5614  3.1035
 6536TIP3   OH241098   0.302   0.057   6.380 -0.1089  0.3342 -0.4096
 6536TIP3    H141099   0.335   0.123   6.319 -0.2161  1.7448  1.0259
 6536TIP3    H241100   0.379   0.029   6.430 -0.3835  0.7217  0.2358
 6537TIP3   OH241101   0.722   1.834  14.194  0.2297  0.1039 -0.3007
 6537TIP3    H141102   0.798   1.829  14.252  0.1672 -1.0270 -0.3158
 6537TIP3    H241103   0.683   1.920  14.213  0.1086 -0.3248  1.4295
 6538TIP3   OH241104   0.300   4.582   5.628  0.3562 -0.7813  0.3167
 6538TIP3    H141105   0.222   4.627   5.596  0.3465 -0.2611  1.0581
 6538TIP3    H241106   0.270   4.533   5.705  0.8757 -0.0787  0.9820
 6539TIP3   OH241107   2.855   0.189  16.865 -0.2470 -0.6580  0.1647
 6539TIP3    H141108   2.773   0.142  16.853 -1.1980  0.1473  3.0554
 6539TIP3    H241109   2.835   0.280  16.843 -0.0066 -0.5521  0.3780
 6540TIP3   OH241110   3.171   6.316  16.569 -0.2094  0.0341  0.2907
 6540TIP3    H141111   3.094   6.366  16.543 -2.1903 -2.0876  1.8449
 6540TIP3    H241112   3.205   6.360  16.646 -0.3156  0.5364  0.0515
 6541TIP3   OH241113   1.163   6.072  15.501 -0.0555 -0.3892  0.3101
 6541TIP3    H141114   1.128   6.014  15.568 -0.9351 -1.2585 -0.8824
 6541TIP3    H241115   1.094   6.076  15.435 -0.2344  2.4431  0.6115
 6542TIP3   OH241116   3.519   3.908   3.846 -0.6117  0.1726  0.0910
 6542TIP3    H141117   3.447   3.931   3.905  0.3435 -1.3738  1.9185
 6542TIP3    H241118   3.589   3.971   3.868 -1.0757  1.0940 -1.0469
 6543TIP3   OH241119   6.671   6.798   3.390 -0.4482 -0.0579  0.0684
 6543TIP3    H141120   6.589   6.847   3.395  0.1063  1.0385 -1.0161
 6543TIP3    H241121   6.727   6.838   3.457  0.5393  1.9086 -1.8508
 6544TIP3   OH241122   0.436   0.028  14.765  0.2020  0.3538 -0.1976
 6544TIP3    H141123   0.390   0.080  14.831  0.2870  0.5223 -0.2707
 6544TIP3    H241124   0.461   0.091  14.697 -0.1070  0.1385 -0.5151
 6545TIP3   OH241125   6.320   6.339  14.158 -0.7380  1.1318  0.5093
 6545TIP3    H141126   6.255   6.299  14.215 -0.0394  0.7604  1.0524
 6545TIP3    H241127   6.269   6.388  14.094 -1.5885 -0.0351  0.2714
 6546TIP3   OH241128   0.935   2.015  13.064 -0.5601 -0.8066  0.2521
 6546TIP3    H141129   0.847   1.988  13.089  0.1151 -4.1487 -0.7072
 6546TIP3    H241130   0.923   2.064  12.982 -1.7438  1.0633  1.5155
 6547TIP3   OH241131   6.551   0.170   0.991 -0.3260  0.2337 -0.3488
 6547TIP3    H141132   6.612   0.157   0.919  0.3178 -0.0078  0.2285
 6547TIP3    H241133   6.468   0.137   0.958 -0.3894  1.5163 -1.5062
 6548TIP3   OH241134   4.493   1.053  11.826 -0.0429  0.2795 -0.4375
 6548TIP3    H141135   4.467   1.131  11.875 -0.6775 -1.1057  1.4796
 6548TIP3    H241136   4.555   1.085  11.761 -2.0230  2.7239 -1.1845
 6549TIP3   OH241137   2.956   6.250  14.450 -0.5782 -0.5693 -0.0898
 6549TIP3    H141138   2.981   6.333  14.409 -2.2497  0.4817  0.9617
 6549TIP3    H241139   2.949   6.188  14.378  1.0374  0.1175 -0.8447
 6550TIP3   OH241140   4.924   3.395   0.617 -0.0614  0.2202  0.1681
 6550TIP3    H141141   4.993   3.338   0.583  0.9383 -0.6786  3.5552
 6550TIP3    H241142   4.971   3.459   0.672 -1.6576  1.3755  0.2178
 6551TIP3   OH241143   2.943   2.513   5.474 -0.4994  0.2645 -0.2771
 6551TIP3    H141144   2.857   2.542   5.501 -1.1833 -2.0264  0.1730
 6551TIP3    H241145   2.981   2.473   5.553 -0.3916 -1.6968 -1.2709
 6552TIP3   OH241146   4.250   4.855   2.938  0.5446  0.5701  0.6488
 6552TIP3    H141147   4.201   4.925   2.981  0.6656  0.9415  0.1888
 6552TIP3    H241148   4.194   4.778   2.946  0.1760  0.8412  0.6992
 6553TIP3   OH241149   5.674   2.662   4.763 -0.0026 -0.1433  0.0058
 6553TIP3    H141150   5.639   2.727   4.703  0.1970 -0.5740 -0.5892
 6553TIP3    H241151   5.767   2.655   4.740 -0.2190 -1.3021 -0.5691
 6554TIP3   OH241152   1.753   0.304   1.312  0.6395 -0.0828  0.0832
 6554TIP3    H141153   1.818   0.374   1.312 -0.4858  0.9910  0.7788
 6554TIP3    H241154   1.707   0.314   1.229  0.7088 -0.2144  0.0293
 6555TIP3   OH241155   0.134   0.130  12.528 -0.6312 -0.3258  0.5705
 6555TIP3    H141156   0.078   0.182  12.586  0.3576  0.5397  0.7705
 6555TIP3    H241157   0.101   0.150  12.440 -1.7383 -1.1620  0.7882
 6556TIP3   OH241158   5.062   1.376  16.148  0.3629  0.1499 -0.4461
 6556TIP3    H141159   5.113   1.369  16.229 -0.3790 -3.5724 -0.2017
 6556TIP3    H241160   5.121   1.416  16.085  1.7696  0.8348  1.2855
 6557TIP3   OH241161   6.745   1.109  14.676  0.6379 -0.6332 -0.2451
 6557TIP3    H141162   6.665   1.103  14.624  0.9550 -0.1034 -0.7869
 6557TIP3    H241163   6.813   1.070  14.622  1.0376  0.2252 -0.3789
 6558TIP3   OH241164   5.507   3.181  11.840  0.2750  0.5197  0.0446
 6558TIP3    H141165   5.592   3.152  11.873  0.3727 -0.2048 -0.8379
 6558TIP3    H241166   5.515   3.179  11.745 -1.0950 -0.7163 -0.0684
 6559TIP3   OH241167   6.397   4.876  14.925 -0.3305  0.2827 -0.1689
 6559TIP3    H141168   6.364   4.950  14.875  0.4090  1.4936  1.0948
 6559TIP3    H241169   6.339   4.871  15.001 -0.3444 -0.4048 -0.2204
 6560TIP3   OH241170   6.267   2.187  12.620 -0.0127  0.3168  0.0577
 6560TIP3    H141171   6.325   2.125  12.576 -1.2261 -0.3705 -0.6388
 6560TIP3    H241172   6.297   2.190  12.710  0.1262 -1.2297  0.0679
 6561TIP3   OH241173   2.931   4.176   4.890  0.0614  0.2008  0.4777
 6561TIP3    H141174   2.863   4.170   4.824  0.5602  0.1675 -0.0336
 6561TIP3    H241175   2.947   4.269   4.900  1.8821  0.1106 -1.4026
 6562TIP3   OH241176   4.177   0.519   2.147 -0.1558 -0.0179  0.3588
 6562TIP3    H141177   4.130   0.468   2.081 -0.4374  1.0068 -0.2537
 6562TIP3    H241178   4.265   0.530   2.110 -0.7383  1.7844 -0.5257
 6563TIP3   OH241179   0.805   1.297  12.158  0.0450  0.3561 -0.3341
 6563TIP3    H141180   0.769   1.361  12.219 -1.4722  0.7088 -1.5627
 6563TIP3    H241181   0.733   1.236  12.142  1.2374 -1.2225  0.2220
 6564TIP3   OH241182   5.618   5.206  16.999 -0.1096  0.0491 -0.1072
 6564TIP3    H141183   5.636   5.182  16.908  0.3214  1.7371 -0.4770
 6564TIP3    H241184   5.676   5.150  17.051  0.0166 -0.5454 -0.8945
 6565TIP3   OH241185   6.618   5.870   6.529  0.1332  0.6647  0.7656
 6565TIP3    H141186   6.641   5.956   6.567  0.2555  1.3107 -0.7534
 6565TIP3    H241187   6.700   5.821   6.531  0.6656  1.4570 -0.6274
 6566TIP3   OH241188   0.820   6.787  13.986 -0.3860 -0.4759 -0.8206
 6566TIP3    H141189   0.750   6.734  14.023  0.3559 -0.7715  0.2108
 6566TIP3    H241190   0.818   6.869  14.036  1.8150 -1.6051  1.2072
 6567TIP3   OH241191   0.831   0.042   4.931 -0.4286  0.4753  0.1370
 6567TIP3    H141192   0.752   0.014   4.886 -0.9694  1.3834  0.5049
 6567TIP3    H241193   0.841   0.134   4.907  0.6774  0.2896 -0.1395
 6568TIP3   OH241194   0.271   4.557   5.902  0.0391  0.6620 -0.2132
 6568TIP3    H141195   0.362   4.586   5.904  0.0269  0.6991 -0.1993
 6568TIP3    H241196   0.225   4.617   5.961 -0.0675  0.9045 -0.5428
 6569TIP3   OH241197   2.776   2.530  15.273 -0.5446  0.4705  0.3111
 6569TIP3    H141198   2.869   2.549  15.262 -0.0994 -1.5420  0.3057
 6569TIP3    H241199   2.770   2.435  15.257 -2.3667  0.3465  1.6331
 6570TIP3   OH241200   5.818   2.293  14.300 -1.0646 -0.4896 -0.4615
 6570TIP3    H141201   5.760   2.268  14.228 -0.3252 -0.1032 -1.1927
 6570TIP3    H241202   5.820   2.216  14.356  0.0233 -1.5682 -1.9441
 6571TIP3   OH241203   2.002   2.968   3.652  0.4080  0.5390 -0.2148
 6571TIP3    H141204   2.073   2.959   3.589  1.4234 -0.1448  1.0141
 6571TIP3    H241205   2.032   3.037   3.712 -0.7246  1.4744 -0.7007
 6572TIP3   OH241206   5.499   2.668   2.872 -0.3083 -0.3630 -0.1651
 6572TIP3    H141207   5.487   2.763   2.869 -1.5626 -0.4821  0.8389
 6572TIP3    H241208   5.469   2.637   2.787 -3.2528 -0.2017  0.7619
 6573TIP3   OH241209   0.898   4.095  12.234  0.0781 -0.6136 -0.3922
 6573TIP3    H141210   0.961   4.032  12.268 -0.8978 -1.7564 -0.6537
 6573TIP3    H241211   0.816   4.046  12.228 -0.5857  0.5489 -1.0620
 6574TIP3   OH241212   5.857   4.288  16.121  0.4383 -0.1927 -0.4396
 6574TIP3    H141213   5.891   4.199  16.125 -0.6318 -0.6183 -0.7418
 6574TIP3    H241214   5.762   4.278  16.121  0.3084  0.9421 -0.5741
 6575TIP3   OH241215   5.472   1.236  14.192  0.2041  0.4683 -0.4437
 6575TIP3    H141216   5.520   1.166  14.148  0.6778  0.5441 -0.0586
 6575TIP3    H241217   5.390   1.196  14.220 -0.4637  0.6410 -2.1197
 6576TIP3   OH241218   0.649   3.392  14.120  0.2436 -0.1857  0.4562
 6576TIP3    H141219   0.665   3.415  14.029 -2.2207 -0.1846 -0.0056
 6576TIP3    H241220   0.583   3.324  14.117 -1.9063  1.7131  2.3046
 6577TIP3   OH241221   3.724   5.319   0.237 -0.2102  0.2445  0.3367
 6577TIP3    H141222   3.746   5.409   0.214 -1.0092  0.2292 -0.5115
 6577TIP3    H241223   3.792   5.266   0.195  0.2724  0.4564  0.8557
 6578TIP3   OH241224   0.351   1.168   5.599  0.1661  0.0636 -0.5358
 6578TIP3    H141225   0.439   1.154   5.635  0.1650 -1.1653 -0.9686
 6578TIP3    H241226   0.323   1.081   5.571 -0.6060  0.6979 -1.7668
 6579TIP3   OH241227   2.216   2.313   3.969  0.3957 -0.0063 -0.6617
 6579TIP3    H141228   2.172   2.302   3.884  0.5877 -1.5868 -0.5582
 6579TIP3    H241229   2.296   2.362   3.949  2.6929 -4.1430 -2.1010
 6580TIP3   OH241230   1.238   0.672  13.360  0.3006  0.2093 -0.0068
 6580TIP3    H141231   1.182   0.732  13.407 -1.1479  1.1833 -2.8834
 6580TIP3    H241232   1.292   0.728  13.304  1.5989 -0.9343  0.0738
 6581TIP3   OH241233   6.205   3.961   5.360  1.0357 -0.2599  0.9538
 6581TIP3    H141234   6.148   4.036   5.344  1.1657 -0.2125  0.7027
 6581TIP3    H241235   6.154   3.885   5.331  1.8541 -0.0296 -1.1841
 6582TIP3   OH241236   0.914   5.217   5.902  0.0977 -0.2407 -0.2590
 6582TIP3    H141237   0.908   5.150   5.971 -0.2489  0.9589  0.9149
 6582TIP3    H241238   1.004   5.249   5.907  0.2538 -0.6094 -0.7932
 6583TIP3   OH241239   6.680   2.241  10.856 -0.4940  0.1062 -0.2645
 6583TIP3    H141240   6.722   2.318  10.817  1.0128 -0.6702 -0.1988
 6583TIP3    H241241   6.587   2.252  10.836 -0.3256  2.0410 -0.0994
 6584TIP3   OH241242   6.061   2.386  15.798  0.0566  0.8540  0.1287
 6584TIP3    H141243   6.118   2.372  15.723 -2.2481 -0.3520 -1.4877
 6584TIP3    H241244   6.078   2.312  15.856 -0.2805  0.1749 -0.6292
 6585TIP3   OH241245   4.325   3.352   1.372  1.0389  0.0811 -0.1347
 6585TIP3    H141246   4.289   3.424   1.424  0.3781 -1.3488  1.4302
 6585TIP3    H241247   4.369   3.395   1.298  0.6986  2.0767  0.8024
 6586TIP3   OH241248   4.210   3.137  16.073 -0.6149  0.0107 -0.0685
 6586TIP3    H141249   4.274   3.066  16.080 -1.1012 -0.3639  0.5593
 6586TIP3    H241250   4.185   3.156  16.163 -0.2043  1.2438 -0.2031
 6587TIP3   OH241251   5.188   5.010   0.599 -0.3906 -0.4359  0.3081
 6587TIP3    H141252   5.246   5.040   0.669 -1.4107  2.6578 -0.1228
 6587TIP3    H241253   5.239   5.018   0.519 -0.8844  0.7880  0.1142
 6588TIP3   OH241254   5.930   0.215  13.307  0.3869 -0.2708  0.6391
 6588TIP3    H141255   5.897   0.289  13.356 -2.3278 -0.9995  0.0076
 6588TIP3    H241256   5.928   0.142  13.369  1.0218 -0.2690  0.6617
 6589TIP3   OH241257   3.900   5.443   0.552  0.5300 -0.3276 -0.0276
 6589TIP3    H141258   3.877   5.511   0.489 -1.2137 -1.2263 -0.4113
 6589TIP3    H241259   3.980   5.404   0.517  0.6620  0.4910 -0.6487
 6590TIP3   OH241260   0.962   5.474   1.193 -0.3175  0.3395 -0.5634
 6590TIP3    H141261   0.894   5.532   1.226 -0.7943 -0.9520  0.8161
 6590TIP3    H241262   0.944   5.390   1.235  1.3661 -0.3555 -1.1702
 6591TIP3   OH241263   4.110   1.131  16.582 -0.1972  0.0941 -0.6795
 6591TIP3    H141264   4.092   1.160  16.671  1.1877  3.0761 -1.3142
 6591TIP3    H241265   4.189   1.077  16.589  1.5261  2.5812 -0.4262
 6592TIP3   OH241266   5.704   3.205   0.277  0.4663  0.1040  0.0523
 6592TIP3    H141267   5.617   3.229   0.246  0.9083  1.1025 -0.4308
 6592TIP3    H241268   5.719   3.260   0.354  0.2976 -0.7305  0.6887
 6593TIP3   OH241269   1.120   4.168  16.179  0.4790 -0.1469  0.6690
 6593TIP3    H141270   1.122   4.110  16.104 -0.5628  1.6466 -0.7986
 6593TIP3    H241271   1.212   4.184  16.201  0.8034  0.1226 -0.8638
 6594TIP3   OH241272   4.888   3.620  15.778 -0.2302  0.0164  0.0423
 6594TIP3    H141273   4.880   3.525  15.775 -0.0356  0.0546 -2.8655
 6594TIP3    H241274   4.802   3.651  15.805 -0.0282 -0.9937  1.9265
 6595TIP3   OH241275   3.893   0.241  13.684 -0.3389  0.7220  1.0802
 6595TIP3    H141276   3.940   0.323  13.673  1.5071 -0.3124  1.0114
 6595TIP3    H241277   3.826   0.242  13.616  1.1404  1.1595 -0.3831
 6596TIP3   OH241278   5.914   6.614   3.490  0.1897  0.4594  0.6698
 6596TIP3    H141279   5.922   6.553   3.416  0.3801  1.1335  0.1303
 6596TIP3    H241280   5.851   6.679   3.461  1.1394  1.3915  0.6402
 6597TIP3   OH241281   1.032   6.465  14.830  0.1297  0.2804  0.1581
 6597TIP3    H141282   0.979   6.505  14.899  0.6241 -0.0268  0.7138
 6597TIP3    H241283   1.103   6.527  14.816 -2.1400  2.3334 -2.9138
 6598TIP3   OH241284   5.898   1.983   4.924 -0.0547 -0.4612 -0.1106
 6598TIP3    H141285   5.982   1.963   4.882  1.4491  1.0522  2.0357
 6598TIP3    H241286   5.899   2.078   4.934 -1.2851 -0.5903  1.4165
 6599TIP3   OH241287   3.922   5.206   4.652 -0.8020 -0.1088  0.4518
 6599TIP3    H141288   3.925   5.148   4.576 -2.0605  0.5057 -0.0698
 6599TIP3    H241289   3.977   5.162   4.717 -1.0665 -1.4647 -0.2255
 6600TIP3   OH241290   6.471   0.954  13.985 -0.0446  0.7788  0.2790
 6600TIP3    H141291   6.478   1.042  13.948 -0.4689  1.3569  1.5247
 6600TIP3    H241292   6.377   0.937  13.988  0.0331  0.3298  0.1413
 6601TIP3   OH241293   4.966   6.203  16.525 -0.4274  0.3666 -0.0878
 6601TIP3    H141294   4.903   6.204  16.453 -1.6172  0.3714  0.9295
 6601TIP3    H241295   4.912   6.189  16.604  0.7063  1.5413  0.9181
 6602TIP3   OH241296   3.527   1.070  16.288 -0.0920 -0.3750  0.1313
 6602TIP3    H141297   3.448   1.112  16.255  0.3104  0.6458  0.4544
 6602TIP3    H241298   3.517   1.072  16.383  0.3805 -0.1276  0.1758
 6603TIP3   OH241299   6.330   3.059   3.036 -0.1597  0.2975 -0.2795
 6603TIP3    H141300   6.297   3.035   2.950  0.8077  0.3830 -0.6854
 6603TIP3    H241301   6.257   3.104   3.079  0.0557  2.2297 -1.8726
 6604TIP3   OH241302   1.094   2.532  16.940  0.3169  0.3753  0.5937
 6604TIP3    H141303   1.108   2.446  16.980  1.1523  0.7148  1.0492
 6604TIP3    H241304   1.001   2.532  16.916  0.6711 -1.2576 -0.8580
 6605TIP3   OH241305   2.067   4.446   4.684 -0.7216 -0.2088 -0.4236
 6605TIP3    H141306   2.012   4.414   4.756  2.0418  0.1989  1.9546
 6605TIP3    H241307   2.023   4.415   4.605 -4.1932 -0.1382  1.3914
 6606TIP3   OH241308   2.564   0.720  15.684  0.0200 -0.4593  0.0187
 6606TIP3    H141309   2.561   0.659  15.610  2.4552 -0.3951 -0.1721
 6606TIP3    H241310   2.616   0.794  15.652 -1.6204  1.0510  0.7465
 6607TIP3   OH241311   4.845   1.645   0.709 -0.2006 -0.5968 -0.5097
 6607TIP3    H141312   4.881   1.695   0.782 -1.4449 -2.4619  1.4834
 6607TIP3    H241313   4.859   1.699   0.632  0.8678  1.5835  1.1791
 6608TIP3   OH241314   0.505   6.612  12.323  0.1023  0.0110  0.1250
 6608TIP3    H141315   0.513   6.694  12.273 -0.1606 -0.1133 -0.1245
 6608TIP3    H241316   0.563   6.624  12.397  0.1197  0.4002  0.0525
 6609TIP3   OH241317   1.405   2.409   3.106 -0.1342 -0.4581  0.2057
 6609TIP3    H141318   1.349   2.426   3.181 -0.6310 -0.4581 -0.1617
 6609TIP3    H241319   1.350   2.359   3.046  0.9354 -2.3396  0.7610
 6610TIP3   OH241320   2.171   4.970   5.189  0.0174  0.3396 -0.0454
 6610TIP3    H141321   2.226   4.956   5.266  0.4466  1.8666 -0.0641
 6610TIP3    H241322   2.174   4.887   5.143  1.3168  0.0149  0.5915
 6611TIP3   OH241323   5.110   6.650   2.570  0.1348  0.4101  0.2245
 6611TIP3    H141324   5.084   6.581   2.508 -0.8473  1.0424 -0.0853
 6611TIP3    H241325   5.057   6.726   2.545  0.8534  1.1368  0.8718
 6612TIP3   OH241326   6.728   1.683  13.461 -0.4338 -0.2789  0.0038
 6612TIP3    H141327   6.785   1.606  13.456  1.0319  0.8218 -0.6060
 6612TIP3    H241328   6.659   1.657  13.523  0.1925 -1.9713  0.0398
 6613TIP3   OH241329   1.122   4.802   3.263 -0.0358  0.5111 -0.8322
 6613TIP3    H141330   1.079   4.792   3.178 -0.0536 -1.5087 -0.6069
 6613TIP3    H241331   1.054   4.839   3.319 -0.0476  1.7833 -1.6577
 6614TIP3   OH241332   3.145   1.287   3.879  0.0022 -0.1746 -0.0405
 6614TIP3    H141333   3.199   1.325   3.809 -2.3278 -0.7442 -2.2157
 6614TIP3    H241334   3.119   1.202   3.844 -0.6887 -0.7371  1.8236
 6615TIP3   OH241335   3.591   2.756  13.663  0.0687  0.0887  0.0593
 6615TIP3    H141336   3.670   2.737  13.613  0.9434  1.2717  0.9496
 6615TIP3    H241337   3.538   2.812  13.605 -0.0106 -0.4859 -0.4303
 6616TIP3   OH241338   0.511   1.996  13.679  0.0930  0.2568 -0.5979
 6616TIP3    H141339   0.487   1.997  13.587 -2.7114 -1.1990  0.0420
 6616TIP3    H241340   0.569   2.071  13.690  0.2504  0.6014 -3.4751
 6617TIP3   OH241341   3.770   6.717   0.110 -0.4778 -0.2302  0.1311
 6617TIP3    H141342   3.731   6.630   0.097 -0.5954 -0.0036 -1.1374
 6617TIP3    H241343   3.827   6.729   0.034  0.0851  0.5060  0.6701
 6618TIP3   OH241344   4.334   3.787   2.054 -0.2678  0.6597  0.5077
 6618TIP3    H141345   4.353   3.732   2.130 -1.2611 -4.0825 -2.4862
 6618TIP3    H241346   4.420   3.800   2.013 -0.3299 -0.7485 -0.0918
 6619TIP3   OH241347   2.079   6.469   0.924  0.4050 -0.4587 -0.0858
 6619TIP3    H141348   1.989   6.439   0.920 -0.3360  1.9807 -2.4510
 6619TIP3    H241349   2.123   6.423   0.852  0.3667  0.5638 -0.7616
 6620TIP3   OH241350   1.985   4.284   2.606  0.0408 -0.4414  0.2944
 6620TIP3    H141351   2.050   4.284   2.536  0.1508 -1.5979  0.3812
 6620TIP3    H241352   1.903   4.260   2.562 -0.6190  2.3027 -0.0529
 6621TIP3   OH241353   4.965   2.235  12.788 -0.0052  0.5122  1.0481
 6621TIP3    H141354   4.884   2.199  12.824 -0.7729  1.0799 -0.0781
 6621TIP3    H241355   4.950   2.239  12.694  1.2277  0.8915  0.8527
 6622TIP3   OH241356   3.009   5.791   2.940  0.9671  0.0429  0.4250
 6622TIP3    H141357   3.082   5.852   2.935  1.1408 -0.2305 -0.4704
 6622TIP3    H241358   3.027   5.727   2.871  0.9536 -1.1977  1.5647
 6623TIP3   OH241359   4.708   2.755  14.617  0.3005  0.6388 -0.1688
 6623TIP3    H141360   4.713   2.794  14.530  0.6707 -1.1987 -0.9969
 6623TIP3    H241361   4.795   2.770  14.655  0.3403  0.8851 -0.3550
 6624TIP3   OH241362   1.223   3.033  12.210 -0.1609  0.0113 -0.3835
 6624TIP3    H141363   1.152   3.052  12.271 -0.6690 -2.2324 -0.2376
 6624TIP3    H241364   1.296   3.006  12.266 -0.4072 -1.3606 -0.7066
 6625TIP3   OH241365   5.639   5.964   3.372 -0.0783 -1.0213 -0.0327
 6625TIP3    H141366   5.691   5.998   3.445 -1.0334  1.8114 -0.6500
 6625TIP3    H241367   5.698   5.902   3.328  1.7165 -0.1165  1.0351
 6626TIP3   OH241368   0.716   3.848  12.024  0.1268  0.2540  0.1258
 6626TIP3    H141369   0.709   3.875  11.933 -0.5125  1.3741  0.4940
 6626TIP3    H241370   0.628   3.819  12.047 -0.2473  1.9932  0.9870
 6627TIP3   OH241371   2.960   6.224  13.833  0.7237 -0.0287  0.3286
 6627TIP3    H141372   2.867   6.209  13.850  0.2778  1.0148 -1.1362
 6627TIP3    H241373   2.962   6.302  13.777  2.4788 -0.0434  0.3521
 6628TIP3   OH241374   1.756   3.506   2.132  0.2019  0.3005  0.2069
 6628TIP3    H141375   1.844   3.468   2.129 -0.0917 -0.3271 -0.7669
 6628TIP3    H241376   1.698   3.430   2.133 -0.3781  0.7046 -1.3917
 6629TIP3   OH241377   1.517   3.970  14.945  0.5471 -0.3288  0.2888
 6629TIP3    H141378   1.565   4.023  15.008 -0.3624 -0.7364  1.3370
 6629TIP3    H241379   1.566   3.979  14.864  0.1194  2.5382  0.2863
 6630TIP3   OH241380   6.674   1.303   4.577  0.0054  0.0447  0.0253
 6630TIP3    H141381   6.605   1.291   4.513  1.1842  1.5090 -1.5548
 6630TIP3    H241382   6.639   1.366   4.639  0.1057  1.1799 -1.0648
 6631TIP3   OH241383   3.476   2.479  16.717 -0.0280  0.3420  0.3464
 6631TIP3    H141384   3.459   2.550  16.779 -0.8555  0.4051  0.0626
 6631TIP3    H241385   3.390   2.439  16.704  0.1721  0.2233 -0.6265
 6632TIP3   OH241386   1.904   5.455   6.412 -0.1053  0.1368 -0.6174
 6632TIP3    H141387   1.856   5.513   6.472 -0.1621  0.8585 -1.3487
 6632TIP3    H241388   1.908   5.371   6.458 -0.5584  0.5484  0.1952
 6633TIP3   OH241389   5.181   4.655   3.900 -0.3500  0.0866  0.0972
 6633TIP3    H141390   5.120   4.649   3.827  0.7022 -1.0014 -0.7118
 6633TIP3    H241391   5.232   4.734   3.884 -0.3622  0.0387 -0.1703
 6634TIP3   OH241392   1.815   6.432   0.781 -0.0045 -0.1441  0.1142
 6634TIP3    H141393   1.753   6.388   0.839  0.2400 -2.2607 -1.1375
 6634TIP3    H241394   1.771   6.512   0.754 -2.6435 -2.0354 -1.4721
 6635TIP3   OH241395   1.712   3.487  12.804 -0.1121 -0.3406  0.1639
 6635TIP3    H141396   1.733   3.514  12.714  1.7941  0.8574  0.9441
 6635TIP3    H241397   1.618   3.504  12.812 -0.2049 -0.0038 -1.4628
 6636TIP3   OH241398   5.672   4.933   1.974  0.1054  0.0074 -0.2080
 6636TIP3    H141399   5.603   4.999   1.976  1.1563  1.1745 -1.4499
 6636TIP3    H241400   5.659   4.881   2.053 -0.9317  1.5111  0.6179
 6637TIP3   OH241401   2.548   6.372   1.476  0.4192  0.0195  0.1254
 6637TIP3    H141402   2.623   6.369   1.416  0.2936 -1.2651  0.0333
 6637TIP3    H241403   2.500   6.451   1.450  0.7001 -0.2016 -1.0840
 6638TIP3   OH241404   1.455   6.450  14.358  0.0164  0.1346 -0.5442
 6638TIP3    H141405   1.533   6.492  14.393  0.7367 -1.3944 -0.2652
 6638TIP3    H241406   1.489   6.375  14.309 -1.4236 -2.7560  2.6733
 6639TIP3   OH241407   3.995   5.619  14.898  0.0416 -0.4398 -0.0404
 6639TIP3    H141408   3.982   5.708  14.865  0.4630 -0.4811 -0.3187
 6639TIP3    H241409   4.005   5.566  14.819 -1.4888 -0.9396  0.0824
 6640TIP3   OH241410   5.834   0.036   1.099  0.3246  0.1250  0.0833
 6640TIP3    H141411   5.914   0.085   1.114 -0.4476  1.9698 -1.6178
 6640TIP3    H241412   5.784   0.045   1.180  0.6719  1.2116  0.1771
 6641TIP3   OH241413   2.779   0.320   0.628  0.8633  0.0349 -0.3909
 6641TIP3    H141414   2.784   0.377   0.551  0.8110 -0.4733 -0.7729
 6641TIP3    H241415   2.867   0.283   0.637  0.4361 -1.2141 -1.2157
 6642TIP3   OH241416   5.041   4.949  11.886  0.3485 -0.1128 -0.1179
 6642TIP3    H141417   4.999   5.032  11.861  2.1626  1.1982  1.0044
 6642TIP3    H241418   5.092   4.924  11.809  0.5651  0.3355 -0.1235
 6643TIP3   OH241419   3.619   1.948  13.512 -0.5490 -0.0761  0.1430
 6643TIP3    H141420   3.673   2.024  13.535 -4.3507  2.6292  0.7737
 6643TIP3    H241421   3.637   1.884  13.581  0.4313  1.5153  1.4029
 6644TIP3   OH241422   4.373   5.586  15.238  0.2987 -0.3702 -0.3830
 6644TIP3    H141423   4.413   5.663  15.198 -1.8100  1.3619  0.7125
 6644TIP3    H241424   4.315   5.551  15.171 -0.0124  0.0173 -0.3201
 6645TIP3   OH241425   6.181   2.049  16.183  0.7129  0.1532  0.8174
 6645TIP3    H141426   6.236   2.053  16.261  1.5280 -1.4407  0.3272
 6645TIP3    H241427   6.212   2.121  16.128  1.6449 -0.1395  0.9663
 6646TIP3   OH241428   1.686   2.378  14.706 -0.3520 -0.7151 -0.0469
 6646TIP3    H141429   1.763   2.400  14.758 -0.3833 -2.6109  0.8458
 6646TIP3    H241430   1.613   2.386  14.767 -0.6551 -0.5980 -0.4280
 6647TIP3   OH241431   2.470   2.925  13.269 -0.3587  0.2327  0.2575
 6647TIP3    H141432   2.524   2.974  13.331 -0.3403 -1.5609  1.7044
 6647TIP3    H241433   2.515   2.935  13.185  0.6149  1.1917  0.8759
 6648TIP3   OH241434   0.326   0.573   5.991 -0.7411 -0.4437 -0.0867
 6648TIP3    H141435   0.360   0.545   6.076 -0.8286 -2.3436 -0.6407
 6648TIP3    H241436   0.246   0.521   5.979 -0.2026 -0.9203 -1.7530
 6649TIP3   OH241437   0.861   2.187  12.848 -0.0495 -0.1726 -0.1157
 6649TIP3    H141438   0.805   2.250  12.893 -1.2180 -0.4592 -1.1779
 6649TIP3    H241439   0.931   2.241  12.811 -0.6486  0.4111 -0.4087
 6650TIP3   OH241440   2.988   4.153   1.134 -0.4881 -0.2571  0.2838
 6650TIP3    H141441   2.971   4.069   1.177 -1.5443 -1.0409 -1.5894
 6650TIP3    H241442   3.026   4.208   1.202  0.0727 -2.2083  1.5834
 6651TIP3   OH241443   0.318   4.880   3.658  0.4123  0.6682  0.5490
 6651TIP3    H141444   0.270   4.853   3.736 -1.5066 -2.1067 -1.4856
 6651TIP3    H241445   0.405   4.842   3.668  0.1892  0.3732  1.3431
 6652TIP3   OH241446   4.343   6.696   4.420 -0.0731  0.1813 -0.5872
 6652TIP3    H141447   4.305   6.608   4.421 -0.3068  0.2668 -1.8611
 6652TIP3    H241448   4.421   6.688   4.475 -1.1373 -0.3359  0.9075
 6653TIP3   OH241449   1.503   0.667  11.395 -0.0641 -0.0441  0.3941
 6653TIP3    H141450   1.559   0.738  11.424 -0.7717  0.9221 -0.5195
 6653TIP3    H241451   1.415   0.705  11.395 -0.5110 -1.0587  0.3243
 6654TIP3   OH241452   2.194   5.223   3.975 -0.3765  0.3597  0.0477
 6654TIP3    H141453   2.232   5.309   3.958 -1.4942  0.7708 -0.4094
 6654TIP3    H241454   2.256   5.161   3.936 -0.0897  1.0146 -0.5405
 6655TIP3   OH241455   5.689   0.882   0.861 -0.5222  0.3791 -0.5980
 6655TIP3    H141456   5.689   0.789   0.882  0.9321  0.7079  1.0481
 6655TIP3    H241457   5.605   0.915   0.894 -0.2125 -0.0003  0.5929
 6656TIP3   OH241458   2.509   5.430  13.150  0.0736 -0.6870  0.2563
 6656TIP3    H141459   2.519   5.420  13.055  1.5642  0.8234  0.2314
 6656TIP3    H241460   2.581   5.380  13.187 -1.1136 -2.1399  0.6533
 6657TIP3   OH241461   0.867   3.442  10.861 -0.0415 -0.5879 -0.4054
 6657TIP3    H141462   0.936   3.388  10.822 -0.0552  0.1963 -1.5339
 6657TIP3    H241463   0.785   3.406  10.827 -0.1060 -0.4359 -0.4106
 6658TIP3   OH241464   4.707   2.999  13.779 -0.0716 -0.1500  0.1167
 6658TIP3    H141465   4.628   3.046  13.753  0.6738  1.9515  1.5997
 6658TIP3    H241466   4.704   2.995  13.874  1.2373 -0.7091  0.1555
 6659TIP3   OH241467   6.169   6.442  13.941 -0.0114 -0.0710  0.2368
 6659TIP3    H141468   6.156   6.397  13.857  0.3475 -0.7096  0.5167
 6659TIP3    H241469   6.106   6.400  14.000  1.8220 -1.7567  1.0725
 6660TIP3   OH241470   6.440   3.214   4.177  0.0687  0.1068  0.4151
 6660TIP3    H141471   6.391   3.213   4.259 -0.5582  0.8942  0.0509
 6660TIP3    H241472   6.392   3.154   4.120  0.5744 -0.5358  0.6508
 6661TIP3   OH241473   5.763   3.331  13.579  0.0442  0.6466  0.0560
 6661TIP3    H141474   5.783   3.319  13.486  0.0171  2.0572 -0.1369
 6661TIP3    H241475   5.837   3.291  13.624  1.7641  2.9224 -0.6281
 6662TIP3   OH241476   2.434   3.963   3.771 -0.2075  0.5646  0.4240
 6662TIP3    H141477   2.476   3.917   3.699 -0.2291  2.1767 -0.6430
 6662TIP3    H241478   2.457   3.912   3.849  0.1231 -0.9800 -0.6722
 6663TIP3   OH241479   2.026   4.571   2.245  0.1224 -0.3734  0.1065
 6663TIP3    H141480   2.105   4.597   2.293  0.3256 -1.4105  0.3404
 6663TIP3    H241481   2.005   4.647   2.191  0.8514  0.1862  0.6021
 6664TIP3   OH241482   3.686   6.452   0.135  0.2289  0.5156  0.5241
 6664TIP3    H141483   3.714   6.364   0.110 -0.4016 -0.0565  1.7674
 6664TIP3    H241484   3.591   6.445   0.145 -0.1395  1.9396 -1.6760
 6665TIP3   OH241485   2.090   6.172  15.993 -0.1376 -0.1166  0.3229
 6665TIP3    H141486   2.033   6.236  16.038  0.9896  0.9012  0.3323
 6665TIP3    H241487   2.158   6.226  15.952  1.0499 -1.3542  0.6484
 6666TIP3   OH241488   1.739   3.983  12.433  0.1397  0.2603  0.5987
 6666TIP3    H141489   1.708   4.071  12.454  0.2045  1.1049 -2.5131
 6666TIP3    H241490   1.833   3.992  12.420 -0.0359  0.0568 -1.0258
 6667TIP3   OH241491   3.152   4.469  15.791  0.1350 -0.5415 -0.4595
 6667TIP3    H141492   3.104   4.491  15.871  0.7291 -2.2549  0.4043
 6667TIP3    H241493   3.220   4.536  15.784 -0.0613 -0.2551  0.3553
 6668TIP3   OH241494   1.060   3.129   1.898  0.5945  0.1744 -0.4761
 6668TIP3    H141495   1.049   3.174   1.814  1.3529  0.0798 -0.6287
 6668TIP3    H241496   0.981   3.151   1.947  0.3277  0.5534 -1.0660
 6669TIP3   OH241497   0.074   2.315  13.298 -0.4746 -0.5884  0.5095
 6669TIP3    H141498   0.137   2.301  13.227 -0.7476  2.8874 -0.5681
 6669TIP3    H241499  -0.004   2.348  13.253 -1.3027 -0.1056  2.2793
 6670TIP3   OH241500   5.434   4.602   5.799 -0.4790  0.2749 -0.2845
 6670TIP3    H141501   5.382   4.578   5.876  0.5334 -1.1427 -0.0257
 6670TIP3    H241502   5.395   4.684   5.768 -1.6574  0.2194  1.0224
 6671TIP3   OH241503   6.523   2.423   5.695  0.2296  0.2877  0.3826
 6671TIP3    H141504   6.482   2.495   5.744 -0.5321  1.2642 -1.6527
 6671TIP3    H241505   6.450   2.379   5.652  0.7849 -1.2252  0.9524
 6672TIP3   OH241506   1.640   0.934   4.883 -0.6946 -0.7958 -0.2030
 6672TIP3    H141507   1.723   0.894   4.907  0.4096  1.1588 -0.6580
 6672TIP3    H241508   1.599   0.872   4.823  1.3181 -0.9087 -1.4952
 6673TIP3   OH241509   5.620   6.255  10.812  0.0385  0.0328 -0.3527
 6673TIP3    H141510   5.627   6.161  10.832  1.2120  0.3560  0.8321
 6673TIP3    H241511   5.703   6.276  10.769  1.1055  1.1554  2.1287
 6674TIP3   OH241512   0.219   2.187  16.530  0.2306 -0.0625  0.2524
 6674TIP3    H141513   0.253   2.102  16.501 -0.7480 -1.0274  1.8826
 6674TIP3    H241514   0.131   2.191  16.493  1.3576  1.6389 -2.4271
 6675TIP3   OH241515   4.852   5.793   5.965  0.0287  0.3057  0.2946
 6675TIP3    H141516   4.922   5.729   5.954  0.8424  1.0150  1.2218
 6675TIP3    H241517   4.898   5.875   5.985 -1.0144  1.0672 -0.3476
 6676TIP3   OH241518   2.513   2.114   1.603 -0.6050 -0.3099  0.5490
 6676TIP3    H141519   2.549   2.120   1.691 -0.2238  1.2426  0.3007
 6676TIP3    H241520   2.567   2.048   1.560  2.2143  2.1789  0.0956
 6677TIP3   OH241521   5.802   2.406   4.416  0.4345 -0.4521  0.0100
 6677TIP3    H141522   5.821   2.499   4.411  0.6960 -0.5616 -1.1842
 6677TIP3    H241523   5.885   2.365   4.441 -0.1350 -0.1969  2.4115
 6678TIP3   OH241524   5.620   6.317   3.433 -0.0045  0.3258 -0.5051
 6678TIP3    H141525   5.662   6.271   3.506  0.0481  1.8391  0.4399
 6678TIP3    H241526   5.657   6.275   3.355  1.5232  0.0745  0.3208
 6679TIP3   OH241527   1.843   4.552   5.653  0.1028  0.2685  0.0768
 6679TIP3    H141528   1.827   4.468   5.695 -2.6193  1.0851  0.8270
 6679TIP3    H241529   1.838   4.615   5.725 -1.7357  1.4076 -0.9967
 6680TIP3   OH241530   6.341   0.895   0.614  0.3909 -0.3747  0.3168
 6680TIP3    H141531   6.340   0.914   0.708  0.5359 -2.4916  0.7692
 6680TIP3    H241532   6.416   0.837   0.602  0.2444 -0.2999 -1.0759
 6681TIP3   OH241533   2.440   3.625   4.430  0.1684 -0.1766 -0.0553
 6681TIP3    H141534   2.386   3.643   4.508 -0.0153 -0.4856 -0.1118
 6681TIP3    H241535   2.403   3.682   4.362  1.4829  1.4685  0.5625
 6682TIP3   OH241536   6.014   4.048   4.839  0.0831 -0.0705  0.2067
 6682TIP3    H141537   5.952   4.062   4.767  0.0706  1.3779  0.4804
 6682TIP3    H241538   5.962   4.007   4.908 -0.6987  1.4717  0.5773
 6683TIP3   OH241539   4.318   3.669   0.511  0.5554  0.1137 -0.1208
 6683TIP3    H141540   4.298   3.755   0.472  3.2832  0.4999 -0.8143
 6683TIP3    H241541   4.339   3.614   0.435  1.1068 -0.5023  0.4813
 6684TIP3   OH241542   0.548   2.112   2.070 -0.0814 -0.1387  0.3510
 6684TIP3    H141543   0.471   2.136   2.018  0.7497  3.6342  0.6652
 6684TIP3    H241544   0.517   2.116   2.161 -0.1274 -1.0173  0.3699
 6685TIP3   OH241545   3.445   0.936  13.071  0.7326 -0.2316 -0.1869
 6685TIP3    H141546   3.477   0.950  12.982  1.8878  0.6314  0.3610
 6685TIP3    H241547   3.524   0.934  13.125 -0.1970  3.8322  1.4637
 6686TIP3   OH241548   1.572   0.040  11.060 -0.1873  0.3037  0.1056
 6686TIP3    H141549   1.578  -0.001  10.973  0.4895  1.0215 -0.1905
 6686TIP3    H241550   1.598  -0.030  11.120 -1.1940 -0.3650 -0.2152
 6687TIP3   OH241551   2.374   4.129   6.194 -0.7976 -0.7985  0.1191
 6687TIP3    H141552   2.365   4.178   6.276  0.9259  0.1813 -0.2516
 6687TIP3    H241553   2.361   4.038   6.220 -2.1826 -0.3238  1.1446
 6688TIP3   OH241554   0.857   6.427   1.075  0.4805  0.0875  0.9323
 6688TIP3    H141555   0.820   6.491   1.014  0.7632 -0.7945 -0.1711
 6688TIP3    H241556   0.897   6.360   1.019 -0.4548 -1.4408  2.0586
 6689TIP3   OH241557   6.544   1.262   2.901  0.0916 -0.1114  0.0696
 6689TIP3    H141558   6.469   1.219   2.859  0.5599 -3.1759  2.2024
 6689TIP3    H241559   6.615   1.251   2.838  0.0069 -1.8490  0.2448
 6690TIP3   OH241560   5.106   0.185   5.650 -0.1697 -0.7954 -0.3906
 6690TIP3    H141561   5.158   0.170   5.571  0.5572  1.2181 -0.3175
 6690TIP3    H241562   5.016   0.193   5.618 -0.1250 -1.7611 -0.7954
 6691TIP3   OH241563   6.227   1.618  14.348  0.4993 -0.1034 -0.3584
 6691TIP3    H141564   6.321   1.640  14.344  0.1918  1.1355 -1.1877
 6691TIP3    H241565   6.214   1.584  14.436  1.1986  2.2617  0.6909
 6692TIP3   OH241566   4.970   4.837   1.188 -0.2807 -0.1493 -0.0186
 6692TIP3    H141567   4.992   4.750   1.221 -1.2662 -0.6455 -0.6332
 6692TIP3    H241568   5.020   4.845   1.106  0.4775  0.2189  0.4690
 6693TIP3   OH241569   1.958   2.509  13.501  0.0406 -0.0869 -0.4743
 6693TIP3    H141570   1.920   2.426  13.532 -0.6167  0.1154 -0.7180
 6693TIP3    H241571   2.023   2.532  13.567  0.3305 -0.8698 -0.4735
 6694TIP3   OH241572   5.683   1.052  16.939 -1.2477 -0.3924  0.0025
 6694TIP3    H141573   5.604   1.075  16.891 -1.8020 -0.0782  1.0616
 6694TIP3    H241574   5.652   1.002  17.015 -0.4044 -0.5911  0.2312
 6695TIP3   OH241575   2.436   6.178  10.483  0.2812 -0.1960 -0.4472
 6695TIP3    H141576   2.418   6.140  10.569  0.6095 -0.0969 -0.3344
 6695TIP3    H241577   2.408   6.110  10.421 -1.1078  0.2174 -0.2963
 6696TIP3   OH241578   5.938   0.457   3.883 -0.1171 -0.3997  0.4493
 6696TIP3    H141579   6.023   0.420   3.863 -0.3085 -0.1786 -0.8411
 6696TIP3    H241580   5.950   0.501   3.967  0.9028 -0.8010  0.5207
 6697TIP3   OH241581   5.369   3.633   3.991 -0.7128 -0.0728  0.0933
 6697TIP3    H141582   5.449   3.583   4.008  1.9251  3.2831 -1.6718
 6697TIP3    H241583   5.358   3.688   4.069 -0.6041  0.2968 -0.1481
 6698TIP3   OH241584   0.761   0.089  12.597 -0.3906 -0.3055  0.0414
 6698TIP3    H141585   0.757   0.096  12.692  2.3462  0.0854  0.1495
 6698TIP3    H241586   0.719   0.169  12.565  1.7569  1.2336  0.9727
 6699TIP3   OH241587   4.514   4.265  16.260  0.3894 -0.3253 -0.5254
 6699TIP3    H141588   4.584   4.200  16.251  0.9454  0.2298 -0.2580
 6699TIP3    H241589   4.491   4.264  16.353  1.3393  0.8087 -0.2577
 6700TIP3   OH241590   5.078   1.861   1.544 -0.7855  0.3213 -0.1662
 6700TIP3    H141591   5.122   1.777   1.556 -1.0131  0.2226 -0.0307
 6700TIP3    H241592   5.114   1.917   1.612 -0.9061  0.2261 -0.0251
 6701TIP3   OH241593   1.710   2.763  14.372  0.4664 -0.0336 -0.6642
 6701TIP3    H141594   1.617   2.770  14.355  0.2806  0.6775  0.6331
 6701TIP3    H241595   1.721   2.790  14.463  2.3222  2.7750 -1.6471
 6702TIP3   OH241596   2.280   0.053  10.461 -0.4395  0.4870  0.7230
 6702TIP3    H141597   2.320   0.117  10.520 -1.7112 -0.0621  2.1878
 6702TIP3    H241598   2.336   0.056  10.383 -0.0248  2.8217  1.0593
 6703TIP3   OH241599   0.995   6.580   5.942 -0.0599 -0.0460  0.5288
 6703TIP3    H141600   1.081   6.578   5.983  1.3283 -2.2247 -2.2864
 6703TIP3    H241601   0.974   6.673   5.934  2.3913  0.5475  0.5637
 6704TIP3   OH241602   3.825   3.288   4.432 -0.3121 -0.0011  0.2006
 6704TIP3    H141603   3.764   3.219   4.408  1.6645 -1.6516 -0.2625
 6704TIP3    H241604   3.819   3.351   4.361  0.3879 -1.4234 -1.1521
 6705TIP3   OH241605   1.208   4.095   5.635 -0.1721  0.6061  0.3859
 6705TIP3    H141606   1.267   4.103   5.560 -0.4560  1.3931  0.2393
 6705TIP3    H241607   1.133   4.045   5.600  0.1144  0.1650  0.3988
 6706TIP3   OH241608   0.547   4.084   2.279  0.0950  0.1596  0.2708
 6706TIP3    H141609   0.474   4.145   2.287 -0.2612 -0.3240  0.7785
 6706TIP3    H241610   0.574   4.090   2.187  0.6770  1.7614  0.5379
 6707TIP3   OH241611   0.420   3.002  12.856 -0.7335 -0.2105  0.2316
 6707TIP3    H141612   0.467   2.926  12.823 -0.4423 -0.7592  1.8815
 6707TIP3    H241613   0.423   3.065  12.785  1.1940 -0.8038 -0.2252
 6708TIP3   OH241614   2.393   3.482   4.935  0.3124  0.4172  0.0438
 6708TIP3    H141615   2.458   3.450   4.872 -0.0759  0.5687 -0.4372
 6708TIP3    H241616   2.445   3.522   5.005  0.8196 -1.8780  0.9995
 6709TIP3   OH241617   0.098   6.574   5.379  0.4025 -0.5534 -0.4280
 6709TIP3    H141618   0.114   6.652   5.325 -1.9983  1.2555  1.3684
 6709TIP3    H241619   0.006   6.554   5.366  0.2629 -1.2463  1.4894
 6710TIP3   OH241620   3.088   0.359   3.699  0.4049 -0.7966  0.3403
 6710TIP3    H141621   3.174   0.322   3.683  0.3174 -0.7326 -0.2730
 6710TIP3    H241622   3.070   0.415   3.623 -1.0105 -2.3626 -0.5217
 6711TIP3   OH241623   4.307   5.953  15.331  1.1240 -0.4491  0.1857
 6711TIP3    H141624   4.266   5.866  15.329  1.3830 -0.5728  0.1946
 6711TIP3    H241625   4.234   6.014  15.326  0.9819 -0.6707 -0.4241
 6712TIP3   OH241626   3.475   2.741   4.070  0.2771 -0.0269  0.0778
 6712TIP3    H141627   3.438   2.655   4.090  1.6350 -0.3130  1.5291
 6712TIP3    H241628   3.562   2.721   4.035  1.1631  0.7976  1.7849
 6713TIP3   OH241629   2.762   0.715  16.885 -0.9614 -0.1702  0.1569
 6713TIP3    H141630   2.849   0.721  16.925 -0.6588  1.1409 -0.6512
 6713TIP3    H241631   2.771   0.650  16.816  0.2633  2.2406 -2.0441
 6714TIP3   OH241632   2.554   0.918   0.150 -0.8404  0.2438  0.5657
 6714TIP3    H141633   2.554   0.871   0.067 -1.9155  0.1179  0.6396
 6714TIP3    H241634   2.505   0.861   0.210 -1.2546  0.9796  0.9264
 6715TIP3   OH241635   5.591   5.622   3.447  0.2482 -0.1289 -0.0392
 6715TIP3    H141636   5.616   5.680   3.375 -1.0555  1.8194  1.0233
 6715TIP3    H241637   5.596   5.677   3.525 -0.9047 -1.4808  1.0183
 6716TIP3   OH241638   2.268   1.281   3.917 -0.0275 -0.1239 -0.0149
 6716TIP3    H141639   2.296   1.331   3.840 -1.7828 -0.7561 -1.1159
 6716TIP3    H241640   2.211   1.341   3.965  1.2813  0.3606  0.9526
 6717TIP3   OH241641   6.817   2.530  14.084  0.0857 -0.1761 -0.1480
 6717TIP3    H141642   6.788   2.551  14.172  1.2309 -0.7947  0.3787
 6717TIP3    H241643   6.828   2.615  14.041 -1.2699  0.1030  0.0383
 6718TIP3   OH241644   6.466   3.650  13.809 -0.1718  1.1170  0.6476
 6718TIP3    H141645   6.427   3.728  13.770  1.7558  1.9550  0.3734
 6718TIP3    H241646   6.414   3.635  13.888 -2.1461  1.1857 -0.5991
 6719TIP3   OH241647   0.105   0.310   0.635 -0.0213  0.1597 -0.0391
 6719TIP3    H141648   0.166   0.253   0.683  0.1935  0.5405  0.1425
 6719TIP3    H241649   0.027   0.314   0.691  0.3264  0.8094  0.4025
 6720TIP3   OH241650   6.431   1.794   6.478 -0.1896 -0.4358 -0.1184
 6720TIP3    H141651   6.503   1.829   6.425  0.1484 -0.7126  0.1529
 6720TIP3    H241652   6.411   1.709   6.439 -0.2200 -0.4566 -0.0571
 6721TIP3   OH241653   2.355   6.411  12.756 -0.2638  0.1987  0.2950
 6721TIP3    H141654   2.352   6.457  12.840 -0.3226  0.1307  0.3313
 6721TIP3    H241655   2.278   6.354  12.758 -1.0073  1.1616 -0.3613
 6722TIP3   OH241656   2.245   1.185   1.848 -0.2830 -0.4936  0.1164
 6722TIP3    H141657   2.315   1.232   1.804  0.1514 -1.7517 -0.5792
 6722TIP3    H241658   2.290   1.127   1.910 -0.6563 -1.7251 -0.7413
 6723TIP3   OH241659   2.569   1.269  16.215 -0.2958 -0.4929 -0.4385
 6723TIP3    H141660   2.653   1.315  16.215 -1.2302  1.2619  1.5748
 6723TIP3    H241661   2.592   1.178  16.234  1.0294  0.2245  1.5429
 6724TIP3   OH241662   0.602   1.647  11.551  0.6751  0.0472  0.0111
 6724TIP3    H141663   0.604   1.738  11.523 -1.5416  0.5829  1.4624
 6724TIP3    H241664   0.685   1.634  11.598  0.8300  1.4240  0.1287
 6725TIP3   OH241665   3.991   4.081   3.868  0.1856  0.2190  0.0080
 6725TIP3    H141666   4.074   4.104   3.909  0.6158  0.7991 -1.1903
 6725TIP3    H241667   4.000   4.106   3.776 -1.1689 -0.0661 -0.2277
 6726TIP3   OH241668   0.333   1.679   0.565  0.1475 -0.1937  0.4507
 6726TIP3    H141669   0.328   1.773   0.547 -1.9223 -0.5236 -0.8479
 6726TIP3    H241670   0.252   1.659   0.613 -0.7334 -1.7874 -1.6426
 6727TIP3   OH241671   6.800   0.819   6.143 -0.2723 -0.5267 -0.5477
 6727TIP3    H141672   6.825   0.728   6.157 -1.7844 -1.1742 -1.8590
 6727TIP3    H241673   6.855   0.849   6.071 -0.8371 -0.8954 -1.1425
 6728TIP3   OH241674   4.313   5.242   0.445  0.2884 -0.1638  0.0696
 6728TIP3    H141675   4.403   5.231   0.475  0.4333 -0.7674 -0.5606
 6728TIP3    H241676   4.294   5.161   0.398 -0.1818  0.4552 -0.8166
 6729TIP3   OH241677   6.281   1.056   2.144  0.0743  0.1969  0.3567
 6729TIP3    H141678   6.340   0.984   2.120  2.4735  2.0233  0.6121
 6729TIP3    H241679   6.313   1.086   2.229 -0.2861  2.1969 -0.1869
 6730TIP3   OH241680   5.742   2.738   4.305  0.6186 -0.0476  0.1172
 6730TIP3    H141681   5.822   2.738   4.358  0.1148  2.4271  0.9364
 6730TIP3    H241682   5.751   2.815   4.249  0.0249 -1.2779 -1.7063
 6731TIP3   OH241683   0.497   1.858  12.142  0.0530  0.3890 -0.2708
 6731TIP3    H141684   0.419   1.907  12.120  0.6608  1.4988  0.0216
 6731TIP3    H241685   0.499   1.856  12.237 -0.1717 -0.5338 -0.2812
 6732TIP3   OH241686   0.539   3.154  14.909  0.1231  0.0096  0.3728
 6732TIP3    H141687   0.462   3.164  14.964  0.7713  2.2146  0.9246
 6732TIP3    H241688   0.600   3.221  14.940  1.5949 -0.5766 -1.1635
 6733TIP3   OH241689   6.199   3.366  12.813 -0.5057  0.2089 -0.2405
 6733TIP3    H141690   6.280   3.393  12.771  0.0361  0.2577  0.8291
 6733TIP3    H241691   6.139   3.440  12.799  0.0590  0.7420  0.1592
 6734TIP3   OH241692   0.791   1.946  16.517 -0.1412 -0.4573  0.2789
 6734TIP3    H141693   0.799   2.042  16.516 -1.3758 -0.3382  1.2636
 6734TIP3    H241694   0.876   1.915  16.484  1.3445  0.9322  2.6551
 6735TIP3   OH241695   4.477   4.474   1.987 -0.6813  0.0528 -0.2272
 6735TIP3    H141696   4.510   4.451   2.074  0.4615  0.8614 -0.4393
 6735TIP3    H241697   4.427   4.555   2.000 -1.9959 -0.7683 -0.0360
 6736TIP3   OH241698   3.339   0.577   4.258  0.2193 -0.3190 -0.5439
 6736TIP3    H141699   3.259   0.627   4.277 -0.2476 -0.1415 -2.8573
 6736TIP3    H241700   3.404   0.644   4.237  0.1507 -0.6004 -1.6478
 6737TIP3   OH241701   5.011   6.444  15.497 -0.2368  0.5387 -0.2174
 6737TIP3    H141702   5.104   6.448  15.520 -0.2151 -1.1791  0.0494
 6737TIP3    H241703   5.011   6.447  15.401 -0.0347  2.6270 -0.1570
 6738TIP3   OH241704   3.267   6.311   4.321 -0.3219  0.0159  0.2612
 6738TIP3    H141705   3.184   6.306   4.274 -0.6004 -0.0460  0.7539
 6738TIP3    H241706   3.251   6.373   4.392 -0.1933 -0.6094  0.8468
 6739TIP3   OH241707   6.238   4.988  13.102  0.3278  0.0292 -0.3459
 6739TIP3    H141708   6.288   4.917  13.143  0.3993  1.0364  1.3383
 6739TIP3    H241709   6.149   4.976  13.134 -0.0554 -0.3738 -1.5169
 6740TIP3   OH241710   2.122   3.408  11.863  0.3884 -0.3331 -0.4876
 6740TIP3    H141711   2.187   3.375  11.801 -0.2001  0.9407 -1.7827
 6740TIP3    H241712   2.169   3.410  11.947  0.8074 -3.3101 -0.5712
 6741TIP3   OH241713   3.726   2.377   5.209 -0.2212  0.2398  0.2460
 6741TIP3    H141714   3.702   2.452   5.264  0.1244 -0.3496  1.2179
 6741TIP3    H241715   3.818   2.361   5.230 -0.2670 -0.4043 -0.0232
 6742TIP3   OH241716   2.958   2.145  16.125  1.1507  0.4650 -0.5405
 6742TIP3    H141717   2.953   2.110  16.213  0.3731 -1.9315 -1.5162
 6742TIP3    H241718   2.967   2.069  16.068  0.4699  1.8891 -2.6402
 6743TIP3   OH241719   1.157   0.391  11.896 -0.5440  0.3189 -0.3149
 6743TIP3    H141720   1.178   0.350  11.980  1.4992  1.9452 -0.0133
 6743TIP3    H241721   1.241   0.418  11.860 -1.5232  0.8367 -2.2856
 6744TIP3   OH241722   1.306   4.858   2.501 -0.0422 -0.2690 -0.5581
 6744TIP3    H141723   1.321   4.951   2.517  0.2362 -0.4513  0.2860
 6744TIP3    H241724   1.211   4.849   2.494 -0.0378  0.1610 -1.1868
 6745TIP3   OH241725   5.883   3.707   5.437 -0.4261  0.2593  0.0167
 6745TIP3    H141726   5.814   3.641   5.437 -1.3907  1.2367  1.0223
 6745TIP3    H241727   5.953   3.669   5.384 -0.5975 -1.9398  1.2856
 6746TIP3   OH241728   5.196   0.706  15.868  0.2051  0.1269  0.6543
 6746TIP3    H141729   5.281   0.666  15.850  0.3382  0.3396  0.8060
 6746TIP3    H241730   5.132   0.647  15.827  0.2670 -1.2140  2.4103
 6747TIP3   OH241731   2.179   0.970  17.037 -0.6740  0.2004  0.3774
 6747TIP3    H141732   2.252   0.932  16.989 -1.9251 -0.0415 -1.3789
 6747TIP3    H241733   2.168   1.057  17.000 -1.6062  0.0396  0.2514
 6748TIP3   OH241734   0.906   4.746  12.141 -0.2685  0.4998  0.2373
 6748TIP3    H141735   0.889   4.656  12.115 -0.2179  1.0884 -1.9064
 6748TIP3    H241736   0.990   4.767  12.100  0.1065  1.2848  1.3734
 6749TIP3   OH241737   2.622   2.276  12.816 -0.2011 -0.8337 -0.0611
 6749TIP3    H141738   2.582   2.198  12.853  0.1258  0.0463  2.2307
 6749TIP3    H241739   2.667   2.317  12.890 -0.8888  1.8358 -1.0560
 6750TIP3   OH241740   3.853   4.738   4.759  0.1521 -0.6282  0.4847
 6750TIP3    H141741   3.815   4.826   4.759 -0.9169 -1.0836 -0.1419
 6750TIP3    H241742   3.947   4.753   4.760 -0.0191  0.5239  1.3381
 6751TIP3   OH241743   5.943   0.175  11.262 -0.3933  0.2285  0.1378
 6751TIP3    H141744   5.863   0.206  11.305 -1.2437 -2.3268  0.5201
 6751TIP3    H241745   5.960   0.089  11.302  3.0581  1.0989  0.6670
 6752TIP3   OH241746   3.676   5.451   1.649 -0.3486 -0.1819  0.3903
 6752TIP3    H141747   3.716   5.506   1.582 -0.3202 -0.2665  0.3380
 6752TIP3    H241748   3.631   5.512   1.706  0.6739 -0.0042  1.0112
 6753TIP3   OH241749   4.657   3.064  17.211  0.7593 -0.0376  0.5899
 6753TIP3    H141750   4.727   3.055  17.275  0.3142  1.2398  1.2735
 6753TIP3    H241751   4.591   3.000  17.238 -0.7602  2.5126  3.2203
 6754TIP3   OH241752   4.102   6.769   5.426 -0.0679 -0.2054 -0.0262
 6754TIP3    H141753   4.044   6.824   5.479  0.2125  0.0162  0.0514
 6754TIP3    H241754   4.118   6.820   5.347 -0.1729 -0.3730 -0.1569
 6755TIP3   OH241755   3.895   2.260  11.305 -0.0712 -0.7388 -0.1506
 6755TIP3    H141756   3.878   2.257  11.399  1.6318  1.1911  0.2546
 6755TIP3    H241757   3.863   2.176  11.272 -1.9642 -0.8763  1.9246
 6756TIP3   OH241758   4.629   4.099  12.076 -0.0285  0.1788  0.0404
 6756TIP3    H141759   4.586   4.118  12.159  1.3871  0.8832  0.6409
 6756TIP3    H241760   4.660   4.009  12.084 -0.7857 -0.0957 -0.1253
 6757TIP3   OH241761   3.066   2.120   5.370 -0.7334  0.8941  0.3604
 6757TIP3    H141762   3.094   2.086   5.455 -0.4310 -1.1693 -0.5254
 6757TIP3    H241763   2.982   2.161   5.386 -0.2137  1.3937  1.8372
 6758TIP3   OH241764   3.888   5.506  12.518 -0.2928  0.2477 -0.1704
 6758TIP3    H141765   3.853   5.575  12.462 -1.5332 -0.3528 -0.1365
 6758TIP3    H241766   3.823   5.496  12.588 -0.0271 -0.8203 -0.0728
 6759TIP3   OH241767   6.500   4.953  13.697 -0.0197  0.3396 -0.3865
 6759TIP3    H141768   6.455   4.870  13.711  0.5395  0.0304 -0.4154
 6759TIP3    H241769   6.454   5.015  13.754  0.3553 -0.2656  0.5889
 6760TIP3   OH241770   5.098   5.761  12.477 -0.5053  0.6524  0.9249
 6760TIP3    H141771   5.076   5.731  12.566  0.0244 -1.7732  0.2748
 6760TIP3    H241772   5.162   5.697  12.446 -2.3173  0.1787 -2.0321
 6761TIP3   OH241773   5.023   0.607  14.532 -0.1219  0.2927 -0.1773
 6761TIP3    H141774   5.108   0.639  14.562 -0.1021  0.8163 -0.7720
 6761TIP3    H241775   4.997   0.670  14.464 -0.1189 -0.9083 -1.3056
 6762TIP3   OH241776   6.148   0.030   2.696  0.0616  0.1535 -0.1306
 6762TIP3    H141777   6.106   0.103   2.740  3.0033  1.5122  0.5467
 6762TIP3    H241778   6.152  -0.039   2.762  0.9027  0.8085  0.5121
 6763TIP3   OH241779   5.646   2.744  11.142 -0.1638 -0.1214 -0.3877
 6763TIP3    H141780   5.651   2.650  11.158 -0.5461 -0.3944 -1.7978
 6763TIP3    H241781   5.729   2.767  11.101 -0.3244  0.0165 -0.6457
 6764TIP3   OH241782   3.078   5.008  15.753  0.0319  0.1922 -0.3083
 6764TIP3    H141783   3.028   4.938  15.795  1.0509 -0.4049 -0.0675
 6764TIP3    H241784   3.023   5.037  15.680 -0.2787 -1.0457 -0.5750
 6765TIP3   OH241785   1.713   1.536   3.912  0.0266  0.3513 -0.2795
 6765TIP3    H141786   1.714   1.453   3.960 -1.7004  0.2354 -0.4317
 6765TIP3    H241787   1.676   1.599   3.974  0.6043  0.8576 -0.4387
 6766TIP3   OH241788   5.641   6.426   4.757 -0.1603 -0.1218 -0.1643
 6766TIP3    H141789   5.673   6.481   4.685  1.5677 -2.9412 -1.6418
 6766TIP3    H241790   5.563   6.384   4.721 -0.8849  0.5568  0.5984
 6767TIP3   OH241791   2.568   0.368   1.230 -0.4764 -0.3442 -0.5822
 6767TIP3    H141792   2.650   0.362   1.278 -0.2838  2.4998 -0.4964
 6767TIP3    H241793   2.543   0.277   1.214  2.3168 -1.2550 -0.0128
 6768TIP3   OH241794   2.395   5.456   3.111 -0.4177  0.4162 -0.0797
 6768TIP3    H141795   2.451   5.459   3.034 -0.6141  1.6692 -0.1888
 6768TIP3    H241796   2.444   5.501   3.179 -1.1644  1.2817 -0.1016
 6769TIP3   OH241797   0.726   0.411   5.437  0.1903 -0.8021  0.2464
 6769TIP3    H141798   0.785   0.391   5.364 -0.7555 -0.0838 -0.7171
 6769TIP3    H241799   0.696   0.501   5.420 -0.4724 -0.8297  1.2263
 6770TIP3   OH241800   1.328   3.425   5.789  0.2846  0.3776  0.0990
 6770TIP3    H141801   1.359   3.515   5.785  0.8766  0.1669 -0.2621
 6770TIP3    H241802   1.236   3.431   5.814  0.4839  1.0483  0.6661
 6771TIP3   OH241803   5.502   2.015   4.469 -0.0108  0.7201  0.3042
 6771TIP3    H141804   5.581   2.064   4.444  0.0639  0.2773 -0.3673
 6771TIP3    H241805   5.533   1.926   4.482 -0.7931 -0.0270 -2.4864
 6772TIP3   OH241806   4.745   0.278   3.194 -0.7995 -0.0853 -0.0353
 6772TIP3    H141807   4.775   0.316   3.277 -0.0375  0.8530 -0.7358
 6772TIP3    H241808   4.675   0.217   3.220 -0.4445  0.0604  1.3101
 6773TIP3   OH241809   4.497   3.133   2.647 -0.2289  0.5142  0.1980
 6773TIP3    H141810   4.494   3.196   2.575  0.4296  1.2572  0.8145
 6773TIP3    H241811   4.531   3.053   2.608 -0.2439  0.8001 -0.4015
 6774TIP3   OH241812   4.681   0.490   4.852  0.2787 -0.2888 -0.1231
 6774TIP3    H141813   4.619   0.553   4.887  1.6021  0.5152  0.8051
 6774TIP3    H241814   4.721   0.450   4.929  2.0413  0.3211 -0.7096
 6775TIP3   OH241815   5.558   1.803   3.053 -0.0876 -0.3774  0.0862
 6775TIP3    H141816   5.598   1.722   3.023 -0.9425 -0.5927 -0.5194
 6775TIP3    H241817   5.629   1.867   3.054  0.6057 -1.1536  0.6536
 6776TIP3   OH241818   4.454   0.990   1.339 -0.0011 -0.5742  0.0593
 6776TIP3    H141819   4.433   0.994   1.246  1.3872 -0.8986 -0.2941
 6776TIP3    H241820   4.412   0.909   1.370 -0.8838 -0.2032 -0.1657
 6777TIP3   OH241821   3.031   5.273   2.665 -0.4930  0.7467 -0.2084
 6777TIP3    H141822   3.082   5.313   2.735 -1.0993 -0.2803  0.8520
 6777TIP3    H241823   3.050   5.179   2.671 -3.0039  0.2349  0.6933
 6778TIP3   OH241824   1.158   4.291   0.185 -0.3772 -0.1832 -0.1909
 6778TIP3    H141825   1.067   4.273   0.208 -0.4305  1.9184  1.4220
 6778TIP3    H241826   1.154   4.327   0.097 -0.8877 -1.9119 -0.8969
 6779TIP3   OH241827   1.728   1.265  15.426 -0.4374 -0.4058  0.0645
 6779TIP3    H141828   1.809   1.251  15.475  0.9276  0.1335 -1.9774
 6779TIP3    H241829   1.707   1.358  15.440 -0.7739 -0.5685  0.6713
 6780TIP3   OH241830   4.321   1.731  15.090 -0.0650 -0.4113 -0.0999
 6780TIP3    H141831   4.244   1.678  15.107  0.8427 -1.0919  2.1489
 6780TIP3    H241832   4.291   1.822  15.101 -0.4800 -0.6853  1.0746
 6781TIP3   OH241833   4.436   6.811   5.805  0.6544  0.4262  0.2739
 6781TIP3    H141834   4.379   6.757   5.860 -1.2007  1.7084 -0.3433
 6781TIP3    H241835   4.402   6.798   5.716  0.5824  2.0752  0.0400
 6782TIP3   OH241836   3.107   2.041  14.952 -0.4829 -0.0496  0.0289
 6782TIP3    H141837   3.164   2.036  14.875  2.6353 -2.6869  2.3617
 6782TIP3    H241838   3.144   2.113  15.004 -2.1912  1.3096 -0.5998
 6783TIP3   OH241839   0.280   1.284   0.816  0.3239  0.2163 -0.0793
 6783TIP3    H141840   0.253   1.306   0.905 -0.4675 -2.5727  0.4135
 6783TIP3    H241841   0.349   1.219   0.827 -0.3437 -0.7716 -1.4945
 6784TIP3   OH241842   6.281   4.949   1.262 -0.0410  0.1512 -0.3866
 6784TIP3    H141843   6.302   4.860   1.291  0.2353 -0.6195 -2.8543
 6784TIP3    H241844   6.299   5.004   1.338  1.0513 -1.7522  0.7658
 6785TIP3   OH241845   4.275   3.140   1.729 -0.1057  0.4624  0.8381
 6785TIP3    H141846   4.269   3.235   1.734 -3.0155  0.3392  0.5603
 6785TIP3    H241847   4.306   3.113   1.815  2.6315  1.7472  0.3012
 6786TIP3   OH241848   3.292   0.438  12.113 -0.4049  0.1639 -0.4623
 6786TIP3    H141849   3.211   0.401  12.078 -2.0693  2.2409  1.0985
 6786TIP3    H241850   3.280   0.438  12.208  1.9013 -0.5332 -0.1180
 6787TIP3   OH241851   2.005   2.181  11.202 -0.2619 -0.3718  0.1827
 6787TIP3    H141852   2.014   2.253  11.140  1.3955 -1.2654 -0.6454
 6787TIP3    H241853   1.994   2.103  11.147 -2.1299 -0.7850  1.0586
 6788TIP3   OH241854   4.602   1.123   3.927  0.0963  0.4192  0.1026
 6788TIP3    H141855   4.514   1.146   3.894  0.5774  0.8107 -0.9406
 6788TIP3    H241856   4.586   1.081   4.011 -1.0102  1.8157  0.6115
 6789TIP3   OH241857   6.440   5.701   5.141  0.6296 -0.4604 -0.2978
 6789TIP3    H141858   6.459   5.772   5.080  0.3576 -0.9195 -0.9276
 6789TIP3    H241859   6.522   5.686   5.187  0.6513  0.3567 -0.0598
 6790TIP3   OH241860   5.645   4.596   5.976 -0.1989  0.2796  0.3355
 6790TIP3    H141861   5.641   4.526   6.042  2.4425 -1.3553 -1.1156
 6790TIP3    H241862   5.601   4.559   5.900  0.3832  0.5400 -0.1323
 6791TIP3   OH241863   3.785   5.976  14.655 -0.2909  0.1928 -0.2872
 6791TIP3    H141864   3.876   5.946  14.656 -0.7036 -1.0700  0.8262
 6791TIP3    H241865   3.746   5.935  14.732 -1.0348  3.1776  1.0066
 6792TIP3   OH241866   2.475   0.450  16.749  0.2726 -0.2572  0.2971
 6792TIP3    H141867   2.480   0.476  16.841 -1.0819 -0.2416  0.3787
 6792TIP3    H241868   2.387   0.413  16.740 -0.1193  1.0156 -1.3159
 6793TIP3   OH241869   2.495   4.179  15.192 -0.1371  0.1943  0.0796
 6793TIP3    H141870   2.452   4.245  15.246  0.7836  1.3210 -0.5443
 6793TIP3    H241871   2.436   4.103  15.195 -0.3183  0.3872  2.2920
 6794TIP3   OH241872   4.525   3.041   4.913  0.2201 -0.1864  0.2364
 6794TIP3    H141873   4.551   2.982   4.984  0.0388 -1.5163 -0.7993
 6794TIP3    H241874   4.562   3.002   4.834 -0.0985  0.9614 -0.4897
 6795TIP3   OH241875   2.053   1.705   3.951 -0.1199 -0.3670  1.0543
 6795TIP3    H141876   2.146   1.724   3.937 -0.3079 -0.4748 -0.4751
 6795TIP3    H241877   2.018   1.692   3.863 -1.2566 -1.8985  1.7108
 6796TIP3   OH241878   0.071   2.143  11.987 -0.7996  0.0881 -0.0630
 6796TIP3    H141879   0.017   2.090  11.928 -1.1462  0.0411  0.2954
 6796TIP3    H241880   0.092   2.221  11.937 -1.7694  0.4195  0.0424
 6797TIP3   OH241881   1.434   4.268   4.353  0.1134  0.2756  0.4404
 6797TIP3    H141882   1.474   4.215   4.284  1.1388 -0.3268  1.4625
 6797TIP3    H241883   1.508   4.294   4.408 -0.7919 -0.0993  1.8716
 6798TIP3   OH241884   2.772   3.161   4.602 -0.3586 -0.1187  0.0686
 6798TIP3    H141885   2.718   3.206   4.537 -0.6739  0.9052  1.0265
 6798TIP3    H241886   2.801   3.231   4.661  0.0489 -1.0175  0.9395
 6799TIP3   OH241887   0.204   0.857   2.155  0.7805  0.0302 -0.3463
 6799TIP3    H141888   0.272   0.879   2.091  1.9337  0.1073  0.8825
 6799TIP3    H241889   0.249   0.803   2.220 -0.1631  0.6665  0.8569
 6800TIP3   OH241890   3.300   3.769  15.064  0.1913 -0.0046 -0.2434
 6800TIP3    H141891   3.293   3.858  15.031  0.3704  0.0356 -0.1736
 6800TIP3    H241892   3.362   3.725  15.005 -0.6944 -0.3758 -0.9011
 6801TIP3   OH241893   1.280   6.201   2.184  0.4854 -0.2689 -0.2118
 6801TIP3    H141894   1.309   6.113   2.210 -1.2983 -1.5936 -2.4537
 6801TIP3    H241895   1.353   6.236   2.133  1.3152 -0.3300  0.9213
 6802TIP3   OH241896   3.209   4.956  10.993 -0.0754  0.4131  0.6972
 6802TIP3    H141897   3.250   5.024  10.939 -0.2786  0.2495  0.3367
 6802TIP3    H241898   3.264   4.879  10.980 -0.5960  0.1485  0.0857
 6803TIP3   OH241899   6.291   5.040   3.824  0.2487  0.7291 -0.0132
 6803TIP3    H141900   6.227   5.112   3.820 -0.5363  0.0152 -0.3346
 6803TIP3    H241901   6.350   5.057   3.750  1.8616  2.7113  1.6554
 6804TIP3   OH241902   0.368   5.635   2.514  0.0071  0.4463 -0.5129
 6804TIP3    H141903   0.322   5.598   2.438 -1.2536  0.5034  0.2077
 6804TIP3    H241904   0.369   5.729   2.498 -0.2104  0.4538 -0.4802
 6805TIP3   OH241905   3.083   6.425   4.103  0.4553  0.3915 -0.3436
 6805TIP3    H141906   3.155   6.455   4.047 -1.1746  2.4213 -1.4210
 6805TIP3    H241907   3.083   6.487   4.176  1.3579 -1.1176  0.9867
 6806TIP3   OH241908   0.038   3.506   5.503  0.3435 -0.0154  0.2421
 6806TIP3    H141909   0.115   3.481   5.555  0.5593 -0.0188 -0.0800
 6806TIP3    H241910   0.009   3.588   5.543  1.9152  1.2303 -1.0999
 6807TIP3   OH241911   2.283   3.296  15.630 -0.3235 -0.0526  0.2904
 6807TIP3    H141912   2.239   3.339  15.557  0.8195 -0.4760 -0.6829
 6807TIP3    H241913   2.216   3.239  15.668 -1.3491  1.2810  0.5164
 6808TIP3   OH241914   0.756   3.283   2.858  0.3036  0.0856  0.1201
 6808TIP3    H141915   0.674   3.257   2.814  0.7921 -0.4827 -0.4722
 6808TIP3    H241916   0.787   3.357   2.807  0.2592  0.1740  0.2221
 6809TIP3   OH241917   2.502   5.448   0.998 -0.3134  0.0759  0.0920
 6809TIP3    H141918   2.578   5.494   0.961 -1.8212  2.6466  0.0330
 6809TIP3    H241919   2.442   5.436   0.925 -0.8222 -0.1120  0.5324
 6810TIP3   OH241920   0.096   3.446  13.406  0.1624 -0.2140 -0.1700
 6810TIP3    H141921   0.078   3.433  13.499 -0.4079  0.8448 -0.1385
 6810TIP3    H241922   0.010   3.448  13.364  0.4196 -0.8200 -0.7493
 6811TIP3   OH241923   3.376   4.944   4.458  0.2784 -0.7483  0.4031
 6811TIP3    H141924   3.448   4.902   4.505  0.9142 -0.2991 -0.1607
 6811TIP3    H241925   3.372   5.032   4.495 -1.2310 -1.3789  1.7785
 6812TIP3   OH241926   0.788   1.084  15.877  0.3315 -0.2816 -0.5983
 6812TIP3    H141927   0.693   1.099  15.884  0.4432  0.3190 -0.3618
 6812TIP3    H241928   0.810   1.038  15.958  0.2768 -0.2488 -0.5651
 6813TIP3   OH241929   2.952   1.863   2.204  0.1242 -0.1329 -0.3007
 6813TIP3    H141930   2.945   1.935   2.266  0.8787 -1.3296  1.2178
 6813TIP3    H241931   2.878   1.806   2.224  0.1238 -0.3096 -0.7927
 6814TIP3   OH241932   2.309   1.368  15.670  0.7239  0.1981  0.2911
 6814TIP3    H141933   2.387   1.344  15.620  0.6858  0.7169 -0.0165
 6814TIP3    H241934   2.294   1.460  15.650 -0.3260 -0.0494 -0.1449
 6815TIP3   OH241935   0.298   4.183   3.857 -0.3319 -0.2995  0.2331
 6815TIP3    H141936   0.363   4.115   3.840 -0.6915 -0.6409  0.2301
 6815TIP3    H241937   0.319   4.213   3.946 -0.3295 -0.5886  0.3315
 6816TIP3   OH241938   0.158   5.689   0.627  0.3561 -0.3707 -0.4391
 6816TIP3    H141939   0.148   5.646   0.712 -0.7892 -0.1174 -0.4405
 6816TIP3    H241940   0.251   5.712   0.623  0.6015 -1.1920  0.3557
 6817TIP3   OH241941   2.209   1.936   1.345 -0.2355  0.2266  0.2351
 6817TIP3    H141942   2.229   1.888   1.426 -2.8249  0.5433  1.0935
 6817TIP3    H241943   2.118   1.914   1.326  0.3316  0.1872 -2.6112
 6818TIP3   OH241944   0.435   4.306   2.429  0.0746  0.1580  0.0253
 6818TIP3    H141945   0.457   4.300   2.523 -2.3596  0.0835  0.6181
 6818TIP3    H241946   0.351   4.262   2.422 -0.2767  1.1271 -2.0275
 6819TIP3   OH241947   1.577   6.375  15.445 -0.4279  0.2141 -0.4237
 6819TIP3    H141948   1.547   6.427  15.520  1.2977  1.7100 -0.7278
 6819TIP3    H241949   1.590   6.440  15.375  0.7915 -0.7632 -1.1276
 6820TIP3   OH241950   1.633   1.315   1.889 -0.3695 -0.0663  0.1227
 6820TIP3    H141951   1.659   1.278   1.973  0.0612  0.4296  0.2037
 6820TIP3    H241952   1.669   1.254   1.824 -0.7475 -0.4772  0.2934
 6821TIP3   OH241953   0.226   0.706  12.485  0.5095  0.0482  0.0268
 6821TIP3    H141954   0.246   0.733  12.395 -0.9730 -0.2300 -0.4010
 6821TIP3    H241955   0.276   0.766  12.540  2.3401 -0.5028 -0.9833
 6822TIP3   OH241956   3.645   0.355   5.346 -0.1020 -0.6880  0.3454
 6822TIP3    H141957   3.734   0.321   5.331 -0.0393 -1.0076  1.4073
 6822TIP3    H241958   3.588   0.288   5.309  0.0894 -0.5691 -0.1762
 6823TIP3   OH241959   4.842   0.121   6.212 -0.5377 -0.6408  0.3165
 6823TIP3    H141960   4.854   0.216   6.219 -0.0392 -0.5738 -1.2354
 6823TIP3    H241961   4.842   0.090   6.303 -0.8564  0.8565  0.8402
 6824TIP3   OH241962   5.812   5.725  10.763 -0.4503 -0.8514  0.1319
 6824TIP3    H141963   5.891   5.736  10.817  0.5286  1.2126 -1.6457
 6824TIP3    H241964   5.770   5.811  10.765 -2.3211 -1.7553  0.5094
 6825TIP3   OH241965   2.974   6.657  14.792 -0.1890 -0.5820  0.1212
 6825TIP3    H141966   2.994   6.638  14.884  0.5461  1.3995  0.4013
 6825TIP3    H241967   3.047   6.712  14.763 -1.2473  0.1503 -1.1877
 6826TIP3   OH241968   2.605   4.152  12.920 -0.2553  0.0719  0.7111
 6826TIP3    H141969   2.700   4.147  12.930 -0.3021 -2.3637  0.2663
 6826TIP3    H241970   2.592   4.209  12.844  0.8613 -0.1243  0.3563
 6827TIP3   OH241971   5.529   2.019   0.656 -0.3939  0.0211  0.4364
 6827TIP3    H141972   5.454   2.021   0.716  0.1770 -0.0707  1.1739
 6827TIP3    H241973   5.578   2.099   0.676 -0.0485 -0.1517  0.2889
 6828TIP3   OH241974   6.544   6.326   3.679 -0.3432 -0.1420  0.2226
 6828TIP3    H141975   6.459   6.309   3.720 -0.4287  0.3860  0.2586
 6828TIP3    H241976   6.540   6.417   3.652  0.2184 -0.1164  0.2326
 6829TIP3   OH241977   1.164   3.382  17.084  0.1261  0.2666 -0.4048
 6829TIP3    H141978   1.259   3.387  17.094  0.0266  1.0446  0.2221
 6829TIP3    H241979   1.141   3.293  17.109  0.8589 -0.3825 -2.0067
 6830TIP3   OH241980   1.525   2.268   1.235 -0.3267  0.1322  0.1735
 6830TIP3    H141981   1.475   2.330   1.181 -0.0780  0.5758  0.4482
 6830TIP3    H241982   1.616   2.279   1.207 -0.2692 -0.0441  0.2913
 6831TIP3   OH241983   5.615   4.835  15.276  0.3610 -0.2550 -0.3210
 6831TIP3    H141984   5.584   4.894  15.346 -0.6605  1.1029 -1.8798
 6831TIP3    H241985   5.656   4.762  15.323  2.2134  1.9665  1.6843
 6832TIP3   OH241986   0.505   5.768   4.804 -0.0424  0.4942 -0.4438
 6832TIP3    H141987   0.542   5.719   4.730  2.9162  1.2927  0.4158
 6832TIP3    H241988   0.413   5.779   4.782  0.6028  0.0311 -3.6400
 6833TIP3   OH241989   1.170   5.010   1.576  0.6231  0.4764 -0.1516
 6833TIP3    H141990   1.252   5.046   1.611 -0.4716 -0.0642  3.1343
 6833TIP3    H241991   1.102   5.064   1.616 -0.7575 -1.0096 -0.4534
 6834TIP3   OH241992   3.548   0.365   4.998 -0.4667 -0.5005  0.4360
 6834TIP3    H141993   3.551   0.342   4.905  2.0036 -0.8747  0.5588
 6834TIP3    H241994   3.495   0.445   5.001  1.4587  0.9398 -1.6389
 6835TIP3   OH241995   0.021   1.388   1.618  0.3455 -0.1316 -0.0898
 6835TIP3    H141996   0.025   1.439   1.699  1.5456  0.1337 -0.3065
 6835TIP3    H241997  -0.072   1.385   1.596  0.1661  1.1317  0.4579
 6836TIP3   OH241998   3.019   6.339  15.304  0.0173  0.6440  0.6509
 6836TIP3    H141999   3.077   6.283  15.357  0.9414  0.6539 -0.3316
 6836TIP3    H242000   2.931   6.311  15.328  0.4714 -1.7344 -0.3227
 6837TIP3   OH242001   1.489   1.756  15.996 -0.3504  0.2925  0.2379
 6837TIP3    H142002   1.501   1.827  16.059 -0.2288 -0.6101  1.2454
 6837TIP3    H242003   1.518   1.677  16.042 -0.3478 -0.3997 -0.9132
 6838TIP3   OH242004   1.268   4.703  14.869 -0.0098  0.0318 -0.2740
 6838TIP3    H142005   1.303   4.615  14.856  0.8565  0.0872  1.5013
 6838TIP3    H242006   1.345   4.757  14.888 -0.7379  0.7637  0.6521
 6839TIP3   OH242007   2.894   3.310  17.196 -0.0579  0.6271  1.2048
 6839TIP3    H142008   2.825   3.264  17.148 -0.6056  2.6210  0.0035
 6839TIP3    H242009   2.939   3.242  17.246 -0.8851 -1.1608 -0.4492
 6840TIP3   OH242010   3.476   4.588  13.343  0.8004 -0.7480 -0.4174
 6840TIP3    H142011   3.562   4.581  13.301  0.7989 -1.3063 -0.3261
 6840TIP3    H242012   3.415   4.595  13.270  1.0266  0.8617 -0.4699
 6841TIP3   OH242013   0.834   3.931  15.366  0.4368  0.0481  0.0985
 6841TIP3    H142014   0.787   3.970  15.439 -0.8510 -0.9141 -0.1976
 6841TIP3    H242015   0.918   3.903  15.404  0.9446  2.1022  0.5424
 6842TIP3   OH242016   6.224   1.369  13.017 -0.1994 -0.2779 -0.4035
 6842TIP3    H142017   6.168   1.297  13.048 -0.0809 -0.6025 -0.9300
 6842TIP3    H242018   6.295   1.372  13.081 -0.7437  0.0445  0.1920
 6843TIP3   OH242019   0.589   4.583   5.166 -0.1220  0.2781 -0.6149
 6843TIP3    H142020   0.529   4.526   5.118  0.8137 -1.2583 -0.0108
 6843TIP3    H242021   0.629   4.638   5.099 -0.6993 -0.1015 -1.2726
 6844TIP3   OH242022   6.126   1.950   3.228  0.5985  0.2438  0.2483
 6844TIP3    H142023   6.106   2.032   3.183  1.2930  0.1863 -0.1728
 6844TIP3    H242024   6.044   1.926   3.273 -0.2189  0.0988 -1.2985
 6845TIP3   OH242025   1.694   6.531   2.362 -0.0927 -0.5624 -0.3639
 6845TIP3    H142026   1.734   6.618   2.359 -0.3329 -0.3888  1.4257
 6845TIP3    H242027   1.603   6.545   2.334  0.2005 -0.4500 -1.2876
 6846TIP3   OH242028   1.380   1.849   3.816  0.0070  0.0786  0.3824
 6846TIP3    H142029   1.452   1.796   3.783  0.7888 -0.3721  2.7062
 6846TIP3    H242030   1.422   1.915   3.870 -1.3661 -0.9913  2.8474
 6847TIP3   OH242031   2.283   1.622  14.848  0.1142 -0.1167  0.3040
 6847TIP3    H142032   2.358   1.582  14.893 -0.4281  0.3955  1.6889
 6847TIP3    H242033   2.209   1.604  14.905 -0.9534 -1.1652 -1.3583
 6848TIP3   OH242034   2.237   6.653  15.799 -0.4622  0.2560 -0.5321
 6848TIP3    H142035   2.275   6.736  15.771  0.3786 -0.7298 -2.4197
 6848TIP3    H242036   2.311   6.592  15.799 -1.3965 -0.9035 -0.9220
 6849TIP3   OH242037   5.485   1.638   2.185 -0.2905 -0.0488 -0.2798
 6849TIP3    H142038   5.523   1.560   2.224  0.7743  0.0549 -1.0727
 6849TIP3    H242039   5.488   1.705   2.254 -0.6819 -0.5453  0.2170
 6850TIP3   OH242040   1.568   3.600   4.117  0.1824 -0.4250 -0.0451
 6850TIP3    H142041   1.562   3.696   4.114  1.8449 -0.2589  1.2433
 6850TIP3    H242042   1.479   3.572   4.138  0.1669  0.9961  1.9875
 6851TIP3   OH242043   6.648   2.215  13.599 -0.4933 -0.0066 -0.1909
 6851TIP3    H142044   6.664   2.299  13.557  0.5015 -0.1987 -0.1890
 6851TIP3    H242045   6.572   2.179  13.553 -1.0218  0.9586 -0.0855
 6852TIP3   OH242046   1.148   1.359   1.035  0.6657 -0.1278 -0.1327
 6852TIP3    H142047   1.150   1.454   1.026  1.5448 -0.0707  0.5933
 6852TIP3    H242048   1.127   1.327   0.947  1.1326  0.6987 -0.5522
 6853TIP3   OH242049   1.073   5.722  12.793 -0.0795  0.3150  0.8477
 6853TIP3    H142050   1.073   5.785  12.721  1.5322  0.0364  0.5961
 6853TIP3    H242051   0.980   5.714  12.817 -0.8909 -0.9454 -2.3875
 6854TIP3   OH242052   3.213   1.108   4.217 -0.4360  0.1987  0.0904
 6854TIP3    H142053   3.266   1.041   4.173  0.1694  0.4781  0.3792
 6854TIP3    H242054   3.126   1.070   4.223 -1.0324  0.9550 -3.1348
 6855TIP3   OH242055   2.916   2.406  12.222  0.1967  0.4053 -0.1447
 6855TIP3    H142056   2.825   2.379  12.231  0.4973 -0.0567  1.7209
 6855TIP3    H242057   2.928   2.474  12.287  2.2857 -2.4955  2.6902
 6856TIP3   OH242058   6.033   5.969  11.800  0.1376  0.2969 -0.2496
 6856TIP3    H142059   5.939   5.965  11.781 -0.2416  3.8717  0.3858
 6856TIP3    H242060   6.043   5.927  11.885 -1.3035  1.8562  0.7315
 6857TIP3   OH242061   4.935   3.425  16.276 -0.1054 -0.3312 -0.4581
 6857TIP3    H142062   4.873   3.384  16.337  0.0920  2.8898  2.0671
 6857TIP3    H242063   4.893   3.507  16.251  2.3471  1.0653 -0.1068
 6858TIP3   OH242064   3.187   0.155  12.365  0.4691 -0.9776 -0.1492
 6858TIP3    H142065   3.249   0.137  12.295 -0.6468  2.8275 -2.2849
 6858TIP3    H242066   3.102   0.162  12.321 -0.2683  1.3932  1.5312
 6859TIP3   OH242067   5.557   1.299   4.139 -0.3247 -0.3800  0.5026
 6859TIP3    H142068   5.506   1.315   4.218 -1.7806  1.1073 -0.6802
 6859TIP3    H242069   5.577   1.387   4.105  0.2239 -0.9899 -0.8018
 6860TIP3   OH242070   4.304   4.802  10.977  0.0551 -1.0809  0.0425
 6860TIP3    H142071   4.319   4.895  10.991 -2.1152 -0.5500 -0.9675
 6860TIP3    H242072   4.211   4.795  10.956  0.2906 -3.4150 -0.3975
 6861TIP3   OH242073   1.883   5.243  11.708  0.4840  1.1471 -0.4895
 6861TIP3    H142074   1.937   5.318  11.733  1.5117  1.0494 -2.3450
 6861TIP3    H242075   1.807   5.282  11.664  0.7879  1.1285 -1.0345
 6862TIP3   OH242076   5.576   6.623   3.185 -0.2721  0.4188 -0.5382
 6862TIP3    H142077   5.623   6.544   3.158 -0.8525  0.4278 -1.6173
 6862TIP3    H242078   5.484   6.599   3.179 -0.4529  1.1950 -0.9358
 6863TIP3   OH242079   3.439   0.907   6.275 -0.1074  0.1784  0.0913
 6863TIP3    H142080   3.481   0.825   6.249 -0.2363 -0.1420  0.8890
 6863TIP3    H242081   3.414   0.894   6.366  0.2937  1.2751  0.3713
 6864TIP3   OH242082   2.656   3.221   5.533 -0.3822 -0.4246 -0.3394
 6864TIP3    H142083   2.586   3.199   5.472  0.0875 -0.6287 -0.8153
 6864TIP3    H242084   2.686   3.137   5.567  0.2602 -0.4127 -0.8549
 6865TIP3   OH242085   2.241   5.799  16.724 -0.7140  0.0110  0.1326
 6865TIP3    H142086   2.258   5.878  16.776 -1.2233  0.5963 -0.5768
 6865TIP3    H242087   2.286   5.815  16.642 -0.3845 -0.6702  0.1783
 6866TIP3   OH242088   3.365   3.953   5.194 -0.1987  0.0773 -0.1898
 6866TIP3    H142089   3.433   3.961   5.261 -1.5136 -1.1831  1.3002
 6866TIP3    H242090   3.374   3.864   5.160 -0.7321  0.0973 -0.3942
 6867TIP3   OH242091   1.319   1.062   5.583 -0.2438 -0.2121  0.1450
 6867TIP3    H142092   1.331   1.046   5.490 -2.3409 -1.2532  0.0111
 6867TIP3    H242093   1.312   0.975   5.622  1.0337  0.2060  1.3372
 6868TIP3   OH242094   1.384   4.323  13.500  0.2815  0.2932 -0.4779
 6868TIP3    H142095   1.463   4.376  13.497 -0.0677  0.8582  0.2321
 6868TIP3    H242096   1.409   4.246  13.551  0.1091  0.9132  0.5390
 6869TIP3   OH242097   0.203   3.925  11.641  0.0803 -0.0140 -0.3955
 6869TIP3    H142098   0.204   3.904  11.734 -1.9489 -1.0109 -0.5689
 6869TIP3    H242099   0.254   3.854  11.600 -0.8583 -0.7847 -0.2526
 6870TIP3   OH242100   5.409   2.360   2.407 -0.3259 -0.6130  0.3091
 6870TIP3    H142101   5.339   2.400   2.355  0.9444  0.8215 -0.3450
 6870TIP3    H242102   5.468   2.321   2.342 -0.6856 -2.1037  0.8708
 6871TIP3   OH242103   2.111   3.186   0.072 -0.4971 -0.4800  0.1599
 6871TIP3    H142104   2.124   3.259   0.012 -0.9727  0.7183  1.4510
 6871TIP3    H242105   2.169   3.117   0.041  0.8415  0.8774 -0.4001
 6872TIP3   OH242106   4.353   4.799   6.400  0.2659  0.3355 -0.6455
 6872TIP3    H142107   4.261   4.816   6.379  0.2043 -0.2429 -0.8633
 6872TIP3    H242108   4.383   4.879   6.442 -0.4411  0.4028 -0.2446
 6873TIP3   OH242109   4.059   6.254  13.515  0.2194  0.2863 -0.0100
 6873TIP3    H142110   4.146   6.215  13.518  0.1572  0.0795 -0.8674
 6873TIP3    H242111   4.001   6.185  13.547  0.4540  0.6975  1.3499
 6874TIP3   OH242112   2.590   3.111  12.578  0.5785 -0.0508  0.2162
 6874TIP3    H142113   2.545   3.112  12.663  1.8390 -1.5686  0.9295
 6874TIP3    H242114   2.629   3.198  12.570 -0.9933  0.6888  0.3948
 6875TIP3   OH242115   4.956   5.707  15.283 -0.0315 -0.0697 -0.2300
 6875TIP3    H142116   4.991   5.687  15.196 -1.7897 -2.4613 -0.4419
 6875TIP3    H242117   5.032   5.706  15.340  0.7441 -1.5049 -1.2605
 6876TIP3   OH242118   0.073   0.828   0.230 -0.2542 -0.1460 -0.0716
 6876TIP3    H142119   0.104   0.814   0.320 -0.4461  3.0611  0.5818
 6876TIP3    H242120   0.149   0.809   0.176 -0.2151 -2.4040  0.7245
 6877TIP3   OH242121   6.226   4.243   1.704  0.1049  0.7845  0.4173
 6877TIP3    H142122   6.247   4.315   1.645  2.5638 -0.5044 -0.3424
 6877TIP3    H242123   6.298   4.243   1.768  1.2005 -2.1669 -0.7347
 6878TIP3   OH242124   1.312   3.419   5.229 -0.4791  0.2534 -0.3148
 6878TIP3    H142125   1.338   3.422   5.321 -1.1637  1.4201 -0.1429
 6878TIP3    H242126   1.269   3.503   5.214 -0.8523 -0.1497 -1.5613
 6879TIP3   OH242127   6.376   0.253   0.426 -0.3371  0.1377 -0.6919
 6879TIP3    H142128   6.316   0.280   0.497 -1.2571  1.2938 -1.8692
 6879TIP3    H242129   6.340   0.170   0.395 -2.3404  1.6080 -2.4647
 6880TIP3   OH242130   3.348   5.076  15.633  0.0651  0.2992  0.6139
 6880TIP3    H142131   3.256   5.070  15.658 -0.1009 -0.7386 -0.1683
 6880TIP3    H242132   3.370   4.987  15.606  1.5802  0.3212  1.7413
 6881TIP3   OH242133   4.446   5.857  14.860 -0.2047 -0.1926  0.7156
 6881TIP3    H142134   4.469   5.903  14.779 -1.3544 -1.7474 -0.5268
 6881TIP3    H242135   4.362   5.895  14.885 -0.5365 -0.7034  0.3895
 6882TIP3   OH242136   1.387   3.857   5.502 -0.4432  0.0612 -0.5912
 6882TIP3    H142137   1.392   3.864   5.407  0.1465  0.6512 -0.5201
 6882TIP3    H242138   1.459   3.912   5.534 -0.5206 -0.2868  0.1881
 6883TIP3   OH242139   1.335   5.312  11.261  0.0543 -0.1588  0.3529
 6883TIP3    H142140   1.255   5.291  11.213  0.3242 -0.0809 -0.1369
 6883TIP3    H242141   1.305   5.337  11.348 -0.4760  0.1860  0.0733
 6884TIP3   OH242142   3.565   4.027   2.993 -0.0856  0.3271  0.0872
 6884TIP3    H142143   3.516   3.973   2.930  0.1260 -0.3757  0.5174
 6884TIP3    H242144   3.525   4.114   2.986 -0.8538 -0.0380 -0.1616
 6885TIP3   OH242145   1.750   0.176   0.884 -0.7305  0.1050  0.6817
 6885TIP3    H142146   1.768   0.082   0.885 -1.2275 -0.0197 -0.9380
 6885TIP3    H242147   1.823   0.214   0.932  0.2858 -0.9836  0.0487
 6886TIP3   OH242148   4.604   3.847  14.697 -0.0837 -0.2695 -0.1724
 6886TIP3    H142149   4.533   3.793  14.731 -0.2271  0.9857  1.5819
 6886TIP3    H242150   4.561   3.913  14.644 -0.1163 -0.3892 -0.2936
 6887TIP3   OH242151   4.050   6.060   1.531  0.2755 -0.4142  0.1264
 6887TIP3    H142152   3.995   5.983   1.517 -1.1734 -0.0240  3.2136
 6887TIP3    H242153   4.021   6.095   1.615  2.5612  2.1275 -0.0732
 6888TIP3   OH242154   4.548   0.316   1.004 -0.0290 -0.1025  0.3632
 6888TIP3    H142155   4.493   0.355   0.937 -1.9344 -0.0291  1.9362
 6888TIP3    H242156   4.541   0.222   0.990 -1.0380 -0.1165  0.9168
 6889TIP3   OH242157   0.848   1.247  12.818  0.0233  0.3112 -0.3357
 6889TIP3    H142158   0.894   1.327  12.841 -0.7676  0.5771  0.3175
 6889TIP3    H242159   0.758   1.260  12.848 -0.0033 -0.9969  0.2212
 6890TIP3   OH242160   0.202   5.100   2.613 -0.5329  0.0552 -0.1238
 6890TIP3    H142161   0.260   5.043   2.662 -0.3295 -0.3221 -0.8023
 6890TIP3    H242162   0.114   5.080   2.647 -0.4431 -0.5336 -0.2329
 6891TIP3   OH242163   5.338   2.523   0.051  0.3820 -0.0527 -0.1579
 6891TIP3    H142164   5.316   2.470   0.127 -0.6582 -0.1733 -0.5387
 6891TIP3    H242165   5.349   2.612   0.086  2.8229 -0.6064  0.5932
 6892TIP3   OH242166   2.416   0.900  14.815  0.2714  0.2760 -0.2539
 6892TIP3    H142167   2.439   0.991  14.796 -0.5417  0.3667 -0.8317
 6892TIP3    H242168   2.424   0.855  14.731  2.3556 -0.5566  0.3644
 6893TIP3   OH242169   5.269   1.807  13.717 -0.3033  0.1244  0.1465
 6893TIP3    H142170   5.360   1.778  13.730 -0.2165 -0.8244 -2.4441
 6893TIP3    H242171   5.278   1.895  13.679 -0.4661 -0.0576 -0.3119
 6894TIP3   OH242172   3.847   0.569  15.996 -0.4743 -0.2504  0.2875
 6894TIP3    H142173   3.863   0.481  16.030 -1.3436 -0.4460  0.2044
 6894TIP3    H242174   3.791   0.611  16.062 -0.1899  0.1908  0.2534
 6895TIP3   OH242175   3.946   1.515   3.376  0.2423  0.2122 -0.0000
 6895TIP3    H142176   3.870   1.571   3.390 -1.8355 -2.5062  0.1766
 6895TIP3    H242177   3.997   1.523   3.457 -0.6737  0.8748  0.5240
 6896TIP3   OH242178   6.043   3.517   4.474  0.4519 -0.1294 -0.0404
 6896TIP3    H142179   5.987   3.502   4.397  1.0879 -2.0212 -0.1657
 6896TIP3    H242180   6.132   3.500   4.443  0.9904  1.6979  0.4620
 6897TIP3   OH242181   4.382   1.528  12.438 -0.1176  0.1918 -0.4021
 6897TIP3    H142182   4.459   1.558  12.487 -1.2701  0.9934  0.9808
 6897TIP3    H242183   4.327   1.485  12.504 -1.6241  1.1438 -1.0045
 6898TIP3   OH242184   5.598   5.770  13.549  0.5102 -0.3200 -0.1011
 6898TIP3    H142185   5.550   5.802  13.625  0.3382  0.4443 -0.5295
 6898TIP3    H242186   5.631   5.684  13.575 -0.2664 -0.4199  0.5314
 6899TIP3   OH242187   1.950   2.783  12.240 -0.2184 -0.8827 -0.0831
 6899TIP3    H142188   1.892   2.713  12.271 -0.2133 -1.4175 -1.2739
 6899TIP3    H242189   1.923   2.799  12.150 -0.2862  0.7373  0.2097
 6900TIP3   OH242190   0.697   4.390   0.393 -0.5284 -0.0285  0.1541
 6900TIP3    H142191   0.654   4.353   0.470 -0.5772  0.3407  0.3016
 6900TIP3    H242192   0.639   4.460   0.363 -0.2110  0.2315  0.1419
 6901TIP3   OH242193   1.557   0.331  10.654  0.2164  0.2381  0.2832
 6901TIP3    H142194   1.556   0.403  10.592 -0.7061  0.7033  0.8251
 6901TIP3    H242195   1.585   0.255  10.603  0.5615  0.8424 -0.4340
 6902TIP3   OH242196   3.194   1.875   6.134 -0.0660  0.2731  0.1324
 6902TIP3    H142197   3.157   1.950   6.181 -0.8181 -0.0932  0.1384
 6902TIP3    H242198   3.256   1.836   6.196 -0.4300  0.2930  0.5125
 6903TIP3   OH242199   2.512   4.209   3.126  0.9002  0.5082  0.1076
 6903TIP3    H142200   2.565   4.257   3.190  2.9459 -2.4553  0.7349
 6903TIP3    H242201   2.573   4.187   3.056 -0.2929 -0.1333 -0.7538
 6904TIP3   OH242202   0.360   2.253  14.524 -0.8123 -0.4938  0.5164
 6904TIP3    H142203   0.427   2.220  14.583 -0.1152 -2.9392 -1.5177
 6904TIP3    H242204   0.381   2.345  14.513  0.8571 -0.7058  1.7088
 6905TIP3   OH242205   2.189   2.676  15.416 -0.1419  0.0253 -0.5021
 6905TIP3    H142206   2.187   2.771  15.406 -0.3132  0.1854  0.8965
 6905TIP3    H242207   2.240   2.645  15.342  1.4056  1.3553 -0.0137
 6906TIP3   OH242208   5.418   5.250  15.853 -0.1732 -0.9741  0.1638
 6906TIP3    H142209   5.507   5.283  15.868  0.5951 -2.3655 -1.1429
 6906TIP3    H242210   5.377   5.249  15.939  0.9578  0.0641  0.7182
 6907TIP3   OH242211   0.177   6.109  15.522 -0.0258 -0.0524  0.2115
 6907TIP3    H142212   0.189   6.085  15.430  1.8185 -5.5225  1.6806
 6907TIP3    H242213   0.245   6.173  15.540  1.6283 -1.3074 -1.4669
 6908TIP3   OH242214   5.696   3.344  17.234  0.0194 -0.1465 -0.2481
 6908TIP3    H142215   5.624   3.394  17.273 -0.5259 -0.4598 -0.8599
 6908TIP3    H242216   5.773   3.369  17.286 -0.4808  0.3733  0.2472
 6909TIP3   OH242217   3.099   3.246   1.314 -0.4827 -0.0826  0.0803
 6909TIP3    H142218   3.171   3.287   1.267 -0.4908 -0.6280 -0.4042
 6909TIP3    H242219   3.020   3.275   1.268 -0.6844  1.5595  1.3737
 6910TIP3   OH242220   0.938   3.960   2.347 -0.1434  0.1135  0.1141
 6910TIP3    H142221   0.900   3.932   2.264 -2.8459 -1.0472  1.6571
 6910TIP3    H242222   0.995   3.887   2.373  0.3438  0.2765 -0.5074
 6911TIP3   OH242223   0.554   6.544  14.384 -0.2401 -0.6517 -0.3067
 6911TIP3    H142224   0.600   6.465  14.411 -1.5390 -2.0270 -1.9906
 6911TIP3    H242225   0.510   6.575  14.464  2.7551  0.1677  1.0973
 6912TIP3   OH242226   1.482   4.842   3.972 -0.0771  0.1943 -0.3774
 6912TIP3    H142227   1.513   4.932   3.971  0.5227 -0.0130 -0.8956
 6912TIP3    H242228   1.557   4.791   4.004 -0.8069  0.0184  1.1420
 6913TIP3   OH242229   4.450   5.958   0.150 -0.7838  0.2531  0.4567
 6913TIP3    H142230   4.390   5.966   0.075 -2.8950 -2.7600  1.7254
 6913TIP3    H242231   4.536   5.948   0.111 -1.6084  0.6105 -1.5245
 6914TIP3   OH242232   1.743   4.253   3.959  0.4297  0.0925  0.6850
 6914TIP3    H142233   1.699   4.279   3.878  0.1798  1.6540  1.3118
 6914TIP3    H242234   1.805   4.324   3.976  1.4597 -0.8924  1.1408
 6915TIP3   OH242235   5.184   4.266  12.627  0.3053 -0.4044  0.5052
 6915TIP3    H142236   5.199   4.287  12.535  1.5751 -0.7897  0.6099
 6915TIP3    H242237   5.182   4.351  12.671 -0.6329 -0.2036  0.0847
 6916TIP3   OH242238   2.133   4.808  11.863  0.4756 -0.4691  0.1886
 6916TIP3    H142239   2.075   4.883  11.865  0.2681 -0.6470  1.5519
 6916TIP3    H242240   2.220   4.844  11.881  0.5800 -0.3848 -0.4774
 6917TIP3   OH242241   1.292   3.031  14.437 -0.0101 -0.6749  0.3348
 6917TIP3    H142242   1.231   2.959  14.455 -0.7793 -0.8220 -2.6153
 6917TIP3    H242243   1.245   3.110  14.462 -1.0216 -0.8681 -0.9396
 6918TIP3   OH242244   1.814   4.995   0.176 -0.5181 -0.4961  0.4069
 6918TIP3    H142245   1.900   5.027   0.204 -0.0947 -1.1758 -0.1081
 6918TIP3    H242246   1.788   4.934   0.244  0.8775 -2.7763 -1.0349
 6919TIP3   OH242247   3.294   6.537   2.236 -0.4514  0.0835 -0.5933
 6919TIP3    H142248   3.209   6.576   2.218 -0.4368  0.1499 -0.5182
 6919TIP3    H242249   3.295   6.524   2.331 -0.3062  0.2492 -0.5712
 6920TIP3   OH242250   2.637   5.224  13.657 -0.3922  0.1494  0.5005
 6920TIP3    H142251   2.546   5.252  13.641 -0.0329  2.8999  2.8284
 6920TIP3    H242252   2.646   5.143  13.608 -3.3789  1.0997 -1.7680
 6921TIP3   OH242253   2.719   4.165  15.054  0.2703 -0.3057 -0.6634
 6921TIP3    H142254   2.638   4.186  15.100  0.3313 -1.1050 -0.1832
 6921TIP3    H242255   2.693   4.158  14.962 -0.0673  0.1484 -0.6063
 6922TIP3   OH242256   6.228   3.525  16.312 -0.2209  0.5378 -0.3430
 6922TIP3    H142257   6.185   3.561  16.234 -1.3280  0.9331  0.4319
 6922TIP3    H242258   6.158   3.519  16.377  1.0281  1.8277  1.1760
 6923TIP3   OH242259   0.243   4.381  16.424  0.2109 -0.3542  0.4506
 6923TIP3    H142260   0.156   4.396  16.387 -0.3068 -0.8313  1.4539
 6923TIP3    H242261   0.303   4.425  16.364 -0.5440 -1.7126 -1.3436
 6924TIP3   OH242262   4.361   2.604   4.751  0.1481 -0.2665  0.4300
 6924TIP3    H142263   4.367   2.676   4.815 -1.2876  0.1877  0.0689
 6924TIP3    H242264   4.372   2.525   4.804 -0.5221  0.1254  1.1684
 6925TIP3   OH242265   3.756   6.052  17.120 -0.5954 -0.0162  0.0456
 6925TIP3    H142266   3.788   6.057  17.030  0.7796 -0.4326  0.4968
 6925TIP3    H242267   3.835   6.057  17.174 -1.3204 -0.7619  1.1951
 6926TIP3   OH242268   0.974   2.995  11.746 -0.7408  0.2589 -0.0345
 6926TIP3    H142269   0.963   2.933  11.673  0.1353  0.7163 -0.5618
 6926TIP3    H242270   0.885   3.025  11.765 -1.1286 -0.8351 -0.0605
 6927TIP3   OH242271   2.561   5.554   2.902  0.2205  0.7404 -0.2082
 6927TIP3    H142272   2.557   5.633   2.956  0.0610 -0.0142  0.9119
 6927TIP3    H242273   2.513   5.576   2.822 -1.0245  1.3264  0.6823
 6928TIP3   OH242274   1.455   2.643   3.591  0.3028 -0.0416 -0.3655
 6928TIP3    H142275   1.394   2.716   3.597 -3.8774 -3.2359 -1.1210
 6928TIP3    H242276   1.496   2.653   3.505  0.0330  1.5897 -0.3082
 6929TIP3   OH242277   2.958   5.601   6.262  0.1726  0.3260  0.0200
 6929TIP3    H142278   2.941   5.692   6.236 -0.8414  0.5628  1.4332
 6929TIP3    H242279   2.956   5.602   6.358  1.6597 -0.9241  0.0897
 6930TIP3   OH242280   4.229   1.519   4.967 -0.1684  0.5322  0.1183
 6930TIP3    H142281   4.217   1.564   5.050  1.1193 -1.4994  1.4247
 6930TIP3    H242282   4.139   1.501   4.937 -0.6331 -0.8400  2.2441
 6931TIP3   OH242283   3.394   1.432   4.374  0.0444 -0.2838  0.0405
 6931TIP3    H142284   3.356   1.400   4.292 -0.3298  1.6691 -0.5653
 6931TIP3    H242285   3.487   1.408   4.369  0.0527 -0.0426 -1.0204
 6932TIP3   OH242286   0.671   2.513  14.837 -0.1609 -0.2849  0.2697
 6932TIP3    H142287   0.650   2.478  14.750 -1.0260 -0.5265  0.5684
 6932TIP3    H242288   0.730   2.586  14.820  2.2373 -2.2820 -0.3466
 6933TIP3   OH242289   5.433   3.367  14.822  0.1865 -0.5067 -0.2121
 6933TIP3    H142290   5.522   3.343  14.799  0.8083  1.2578  0.2944
 6933TIP3    H242291   5.399   3.412  14.745  0.6048  1.0488  0.4949
 6934TIP3   OH242292   3.457   2.537   2.579 -0.3154  0.2635 -0.4958
 6934TIP3    H142293   3.463   2.624   2.538  0.1086  0.0353 -0.9107
 6934TIP3    H242294   3.546   2.504   2.579 -0.9741 -1.7163 -3.6918
 6935TIP3   OH242295   2.546   0.042   4.543  0.3885  0.3583  0.2093
 6935TIP3    H142296   2.461   0.081   4.521  0.0393 -0.7426 -0.4098
 6935TIP3    H242297   2.610   0.107   4.516  0.0317 -1.0923 -4.5292
 6936TIP3   OH242298   1.822   4.427  16.125  0.6102  0.3572  0.2926
 6936TIP3    H142299   1.752   4.477  16.083  0.3532 -0.6835 -0.5359
 6936TIP3    H242300   1.856   4.370  16.056  1.1160 -0.3743  1.1283
 6937TIP3   OH242301   2.510   3.935  12.078  0.3161 -0.0621 -0.0996
 6937TIP3    H142302   2.550   3.995  12.014  0.9100  2.1299  2.2345
 6937TIP3    H242303   2.416   3.950  12.069  0.3726 -0.1302 -0.8044
 6938TIP3   OH242304   2.715   0.608  12.342  0.0172 -0.1524 -0.0275
 6938TIP3    H142305   2.807   0.582  12.337  0.1312  0.2606 -0.1174
 6938TIP3    H242306   2.717   0.704  12.345 -0.4361 -0.1126 -0.7333
 6939TIP3   OH242307   0.788   0.074   2.052  0.1802  0.3585 -0.1100
 6939TIP3    H142308   0.745   0.154   2.022 -1.3413  0.4720  2.2258
 6939TIP3    H242309   0.881   0.097   2.058  0.1514  1.0877 -2.1188
 6940TIP3   OH242310   0.194   1.285  14.916 -0.1653  0.1038  0.2017
 6940TIP3    H142311   0.123   1.222  14.908  0.4199 -0.3801 -1.3466
 6940TIP3    H242312   0.215   1.310  14.826  0.8588  1.1015  0.6917
 6941TIP3   OH242313   0.129   6.614  15.724 -0.1170 -0.6314  0.0812
 6941TIP3    H142314   0.142   6.528  15.765 -1.3461 -1.5868 -1.4795
 6941TIP3    H242315   0.034   6.622  15.716  0.0308  0.5029 -0.5597
 6942TIP3   OH242316   6.143   2.669  11.923  0.0282 -0.3732 -0.4351
 6942TIP3    H142317   6.090   2.600  11.962  2.0660 -2.1961 -0.8113
 6942TIP3    H242318   6.127   2.661  11.829  1.1898 -1.1625 -0.5812
 6943TIP3   OH242319   2.640   6.773  13.405  0.0248  0.4169 -0.2826
 6943TIP3    H142320   2.552   6.745  13.381  0.4865 -2.3060  0.9474
 6943TIP3    H242321   2.697   6.723  13.346  0.7969  0.5262  0.3760
 6944TIP3   OH242322   5.451   3.855   2.980  0.4671  0.0143 -0.0348
 6944TIP3    H142323   5.356   3.859   2.986  0.4468 -0.2974 -0.1403
 6944TIP3    H242324   5.482   3.918   3.045  0.2150 -1.3647  1.4646
 6945TIP3   OH242325   3.563   6.533  12.206  0.3584 -0.3320  0.1183
 6945TIP3    H142326   3.594   6.527  12.115 -1.0176 -0.9375 -0.3170
 6945TIP3    H242327   3.531   6.622  12.215 -1.0132 -0.7507 -0.4918
 6946TIP3   OH242328   0.152   5.637   6.055 -0.2045 -0.0013  0.4241
 6946TIP3    H142329   0.146   5.620   5.960  1.3925 -0.1932  0.3389
 6946TIP3    H242330   0.150   5.550   6.095  0.6060 -0.0056  0.4638
 6947TIP3   OH242331   3.086   0.788  14.939 -0.1653  0.1204 -0.0662
 6947TIP3    H142332   3.151   0.844  14.896 -1.8181  3.3722  1.4824
 6947TIP3    H242333   3.129   0.757  15.019  0.4269 -0.0502 -0.4475
 6948TIP3   OH242334   4.312   1.994  17.289 -0.1573  0.1567 -0.6685
 6948TIP3    H142335   4.394   1.945  17.295  0.1982  0.7564 -0.6538
 6948TIP3    H242336   4.337   2.079  17.252 -0.7421  0.4117 -0.4784
 6949TIP3   OH242337   1.107   4.172  14.885 -0.6319 -0.4614  1.0039
 6949TIP3    H142338   1.152   4.235  14.829 -2.3735  0.5670  0.7385
 6949TIP3    H242339   1.169   4.156  14.957  0.8474 -0.3751 -0.2216
 6950TIP3   OH242340   2.203   5.675   3.844 -0.6418 -0.1081 -0.1924
 6950TIP3    H142341   2.124   5.698   3.794 -1.1781 -2.6657 -0.6250
 6950TIP3    H242342   2.171   5.620   3.915  0.5151  0.7542  1.0054
 6951TIP3   OH242343   3.646   2.174  12.906  0.2327  0.0143  0.7420
 6951TIP3    H142344   3.684   2.254  12.870  0.1766  0.0510  0.7640
 6951TIP3    H242345   3.719   2.113  12.913  0.3282  0.1542  0.9812
 6952TIP3   OH242346   0.553   3.434   3.924 -0.4371 -0.0358 -0.1477
 6952TIP3    H142347   0.580   3.510   3.872 -0.8129  2.0087  2.5091
 6952TIP3    H242348   0.632   3.381   3.933 -0.0312  0.3209 -1.5699
 6953TIP3   OH242349   2.118   3.018   4.472 -0.4260  0.1586 -0.3114
 6953TIP3    H142350   2.179   2.972   4.415 -0.3823  0.9953 -0.9564
 6953TIP3    H242351   2.033   2.977   4.453 -0.0024 -1.3002  0.9125
 6954TIP3   OH242352   4.660   2.598  14.070 -0.6321 -0.0643 -0.6101
 6954TIP3    H142353   4.648   2.532  14.001  0.4298  0.3400 -1.1826
 6954TIP3    H242354   4.722   2.558  14.130 -0.4954  0.1532 -0.6088
 6955TIP3   OH242355   3.609   5.666  15.670  0.6146 -0.2500  0.2791
 6955TIP3    H142356   3.631   5.587  15.721 -0.8278 -0.6076  0.3582
 6955TIP3    H242357   3.615   5.737  15.733  3.1171 -0.1165 -0.0640
 6956TIP3   OH242358   6.179   1.096   1.327  0.4827  0.2690  0.3561
 6956TIP3    H142359   6.096   1.051   1.315  0.9596 -0.5125 -0.0480
 6956TIP3    H242360   6.236   1.061   1.258  1.3892  0.2204  1.1141
 6957TIP3   OH242361   0.387   3.078   5.866  0.0435  0.3948 -0.0863
 6957TIP3    H142362   0.357   2.990   5.888 -1.2765  0.0803 -2.8971
 6957TIP3    H242363   0.347   3.134   5.932 -1.3182 -0.8135  0.1441
 6958TIP3   OH242364   6.703   0.214   2.898 -0.0126  0.4482  0.9316
 6958TIP3    H142365   6.716   0.119   2.893  0.6043  0.5867 -0.3594
 6958TIP3    H242366   6.746   0.240   2.979 -0.7033 -0.4508  1.6026
 6959TIP3   OH242367   0.181   3.661   3.155  0.1614 -0.5616  0.1402
 6959TIP3    H142368   0.246   3.671   3.225  0.3083 -0.4153 -0.0157
 6959TIP3    H242369   0.194   3.738   3.100 -1.1950  0.2669  0.9619
 6960TIP3   OH242370   3.840   6.444   3.069 -0.1208 -0.0815 -0.2979
 6960TIP3    H142371   3.764   6.471   3.018  0.6605  0.8549 -0.9889
 6960TIP3    H242372   3.874   6.367   3.023  0.0161  0.1829 -0.6425
 6961TIP3   OH242373   6.061   0.732   3.731 -0.0329  0.5840 -0.2167
 6961TIP3    H142374   6.063   0.672   3.806  0.3445  0.5501 -0.2547
 6961TIP3    H242375   6.152   0.758   3.718 -0.0416  0.3112 -0.8846
 6962TIP3   OH242376   6.418   4.312   4.011 -0.0033 -0.2332 -0.1294
 6962TIP3    H142377   6.394   4.223   4.037  1.0913 -0.1827  1.1158
 6962TIP3    H242378   6.342   4.344   3.962 -1.2485 -1.1366  1.1652
 6963TIP3   OH242379   4.223   4.426   4.739 -0.1132  0.4589 -0.2908
 6963TIP3    H142380   4.134   4.429   4.775 -0.1633 -0.1680 -0.3532
 6963TIP3    H242381   4.279   4.409   4.814  0.1564  2.7699  0.0466
 6964TIP3   OH242382   5.036   1.583   0.274 -0.0012 -0.3335  0.4459
 6964TIP3    H142383   5.113   1.591   0.217 -0.1763  0.5863  0.3352
 6964TIP3    H242384   5.055   1.642   0.347 -0.4869 -0.3031  0.5438
 6965TIP3   OH242385   2.715   1.723  10.942  0.7536  0.1661  0.1896
 6965TIP3    H142386   2.694   1.814  10.919  1.3075 -0.1495 -1.6953
 6965TIP3    H242387   2.665   1.706  11.021 -1.2019  1.3651 -0.7532
 6966TIP3   OH242388   0.956   1.849   0.798 -0.2755 -0.1793 -0.7217
 6966TIP3    H142389   0.933   1.757   0.790 -0.5760 -0.2337  0.5246
 6966TIP3    H242390   0.894   1.883   0.863  1.9801  0.0916  1.3799
 6967TIP3   OH242391   5.102   0.254   4.448  0.6415 -0.0735 -0.5738
 6967TIP3    H142392   5.119   0.342   4.483 -0.6887  0.4349 -1.1689
 6967TIP3    H242393   5.046   0.269   4.372 -1.5645 -1.5943  0.6861
 6968TIP3   OH242394   4.035   2.301   0.697 -0.3665  0.4244  0.0264
 6968TIP3    H142395   3.999   2.319   0.610 -0.7462 -0.3137  0.0346
 6968TIP3    H242396   4.083   2.381   0.720 -0.3431  0.6533 -0.8210
 6969TIP3   OH242397   0.955   4.813   5.901  0.0801 -0.0231 -0.1390
 6969TIP3    H142398   0.900   4.886   5.874  1.0879  1.0295  0.6081
 6969TIP3    H242399   1.036   4.854   5.931  0.1542 -1.3663  1.5417
 6970TIP3   OH242400   1.375   6.182  16.215  0.5818  0.3092 -0.4795
 6970TIP3    H142401   1.443   6.220  16.271  1.2202  1.0029 -1.6991
 6970TIP3    H242402   1.386   6.087  16.224 -0.5227  0.3897  1.9844
 6971TIP3   OH242403   1.130   3.739  13.688  0.5304 -0.5778 -0.5678
 6971TIP3    H142404   1.142   3.831  13.664  2.2353 -0.8714 -0.8677
 6971TIP3    H242405   1.058   3.740  13.751 -0.1278  0.8473 -1.3129
 6972TIP3   OH242406   3.404   5.306  14.600 -0.1712 -0.0539  0.4403
 6972TIP3    H142407   3.434   5.391  14.631  0.6214  0.6254 -2.0540
 6972TIP3    H242408   3.483   5.253  14.596 -0.5441 -0.6749  1.2571
 6973TIP3   OH242409   6.310   3.942  16.533 -1.6212  0.1757 -0.4432
 6973TIP3    H142410   6.344   4.028  16.559 -1.2936 -0.1590  0.2454
 6973TIP3    H242411   6.244   3.962  16.467  0.5204  0.7910 -2.4578
 6974TIP3   OH242412   2.569   4.662   2.962  0.2525  0.5686 -0.2408
 6974TIP3    H142413   2.588   4.607   2.886  0.5840  0.7826 -0.3130
 6974TIP3    H242414   2.498   4.617   3.007 -0.5117  0.8592 -1.1302
 6975TIP3   OH242415   3.430   2.638   1.631  0.1652  0.7051  0.1620
 6975TIP3    H142416   3.407   2.562   1.577  1.4589  0.3890  0.0589
 6975TIP3    H242417   3.365   2.637   1.702  0.6190 -0.9332  0.5708
 6976TIP3   OH242418   2.797   2.743   5.177  0.0183 -0.3272  0.3113
 6976TIP3    H142419   2.717   2.696   5.157  1.6901 -2.7932 -0.7777
 6976TIP3    H242420   2.861   2.675   5.200  2.6440  1.2859 -1.8089
 6977TIP3   OH242421   6.401   3.465   5.647 -0.4148 -0.4064  0.4494
 6977TIP3    H142422   6.432   3.493   5.733 -0.6608  0.2269  0.3335
 6977TIP3    H242423   6.393   3.546   5.596 -0.1418 -0.7901 -0.2107
 6978TIP3   OH242424   2.539   5.563   2.188 -0.2780 -0.3129 -0.5507
 6978TIP3    H142425   2.511   5.515   2.110  0.5304  1.0357 -1.7069
 6978TIP3    H242426   2.577   5.497   2.245 -1.3920 -1.4136 -1.0555
 6979TIP3   OH242427   2.919   0.057   3.054  0.4574  0.1721  0.0400
 6979TIP3    H142428   2.876   0.124   3.001  4.1659  2.7629  0.1579
 6979TIP3    H242429   2.914   0.091   3.144 -0.8576 -1.5177  0.6354
 6980TIP3   OH242430   6.682   1.601   5.020  0.5707 -0.0919 -0.3686
 6980TIP3    H142431   6.600   1.632   4.981  0.7833  0.4192 -0.4191
 6980TIP3    H242432   6.660   1.582   5.111  0.2579 -0.5274 -0.5325
 6981TIP3   OH242433   5.258   1.572  13.500  0.5611  0.0395  0.2764
 6981TIP3    H142434   5.231   1.642  13.560 -0.5991  0.0111 -0.1971
 6981TIP3    H242435   5.192   1.504  13.512  0.9809 -0.4455 -0.1901
 6982TIP3   OH242436   6.796   6.636   7.064  0.1158 -0.3004 -0.1932
 6982TIP3    H142437   6.773   6.584   6.986 -1.9312  0.9421 -0.4384
 6982TIP3    H242438   6.718   6.689   7.082  0.2473 -1.1586  3.2135
 6983TIP3   OH242439   4.321   5.265  12.442  0.2609 -0.1702  0.5290
 6983TIP3    H142440   4.396   5.257  12.383 -0.9992 -1.0900 -1.0332
 6983TIP3    H242441   4.278   5.179  12.437 -1.4164  0.6334  0.6176
 6984TIP3   OH242442   5.460   2.794   3.723  0.1065 -0.7395  0.8505
 6984TIP3    H142443   5.426   2.877   3.757  0.9515  0.8128 -1.9529
 6984TIP3    H242444   5.555   2.805   3.721  0.2039 -1.6317  0.0795
 6985TIP3   OH242445   2.446   6.740   1.719 -0.8390  0.1134  0.1027
 6985TIP3    H142446   2.404   6.810   1.770 -1.7385  0.2230 -0.7812
 6985TIP3    H242447   2.375   6.700   1.669 -0.6534 -2.6394  1.9457
 6986TIP3   OH242448   5.604   6.762  13.535  0.0446  0.4838  0.4393
 6986TIP3    H142449   5.612   6.674  13.497 -1.4776  0.7472 -0.5431
 6986TIP3    H242450   5.694   6.795  13.540  0.3695  0.0239 -1.9720
 6987TIP3   OH242451   0.780   3.632  15.230 -1.3538 -0.4608  0.3311
 6987TIP3    H142452   0.850   3.576  15.264 -2.2212 -0.8961  1.4132
 6987TIP3    H242453   0.813   3.721  15.242  0.1315 -0.7166 -1.6117
 6988TIP3   OH242454   2.555   6.521   4.211 -0.0744 -0.4584 -0.4280
 6988TIP3    H142455   2.531   6.445   4.157 -1.0050 -1.6369  1.5896
 6988TIP3    H242456   2.599   6.483   4.287  2.7059  1.3020 -1.0992
 6989TIP3   OH242457   0.571   2.378  15.053 -0.2123 -0.7454  0.6333
 6989TIP3    H142458   0.623   2.417  14.983 -0.4585 -1.0677  0.2704
 6989TIP3    H242459   0.559   2.449  15.116 -1.6890  0.1219 -0.5942
 6990TIP3   OH242460   3.407   5.809   0.131 -0.3547  0.2125 -0.0224
 6990TIP3    H142461   3.399   5.713   0.133  0.8575  0.0123 -2.5939
 6990TIP3    H242462   3.467   5.826   0.058  0.9640  2.8538  1.6319
 6991TIP3   OH242463   3.279   1.997  16.031 -0.0694  0.6442  0.1727
 6991TIP3    H142464   3.271   2.002  16.126  0.2538 -0.1328  0.2483
 6991TIP3    H242465   3.236   1.914  16.008 -0.2942  0.9068 -0.3800
 6992TIP3   OH242466   5.119   3.222   0.881  0.4492  0.0314 -0.3084
 6992TIP3    H142467   5.096   3.154   0.818 -1.0920  1.2559 -1.1297
 6992TIP3    H242468   5.093   3.304   0.838  0.0513  0.9505  1.6048
 6993TIP3   OH242469   3.577   5.853  12.109 -0.2880 -0.2526 -0.0682
 6993TIP3    H142470   3.614   5.800  12.179 -2.3869 -3.7223 -1.4540
 6993TIP3    H242471   3.491   5.814  12.092 -1.0942  2.3854 -2.5268
 6994TIP3   OH242472   2.295   4.841  13.978 -0.6556  0.3863 -0.4665
 6994TIP3    H142473   2.216   4.887  13.949 -0.1262  3.4328  2.6366
 6994TIP3    H242474   2.363   4.871  13.918 -1.2440 -0.0017 -1.3456
 6995TIP3   OH242475   3.113   5.506  11.418 -0.4089 -0.3850 -0.5986
 6995TIP3    H142476   3.043   5.502  11.484 -1.1593 -0.1973 -1.3747
 6995TIP3    H242477   3.087   5.577  11.360  0.6680 -0.0214 -0.6357
 6996TIP3   OH242478   5.718   5.732   3.214 -1.0732 -0.1398 -0.2683
 6996TIP3    H142479   5.676   5.784   3.145  1.5898  1.2095 -0.9149
 6996TIP3    H242480   5.800   5.702   3.175 -0.1346 -0.4371  1.8719
 6997TIP3   OH242481   0.558   3.653  12.872 -0.4598 -0.3613  0.2208
 6997TIP3    H142482   0.499   3.644  12.797 -1.8407 -1.3669  1.4225
 6997TIP3    H242483   0.507   3.624  12.947  0.9712  0.4893  1.5508
 6998TIP3   OH242484   0.713   5.235  14.887 -0.1058 -0.3117 -0.2484
 6998TIP3    H142485   0.695   5.317  14.841  0.0867  0.6373  1.3429
 6998TIP3    H242486   0.804   5.243  14.914 -0.7614 -0.0252  1.9408
 6999TIP3   OH242487   3.529   5.400  11.616 -0.3286  0.0343  0.2793
 6999TIP3    H142488   3.465   5.446  11.670  0.2979  0.5475  0.5839
 6999TIP3    H242489   3.562   5.330  11.672  0.4514  0.6753  0.6304
 7000TIP3   OH242490   0.903   1.577  14.616 -0.0591 -0.1220  0.1748
 7000TIP3    H142491   0.902   1.483  14.598  0.3400  0.1865 -1.5922
 7000TIP3    H242492   0.990   1.606  14.588 -0.3514  0.8393  0.2439
 7001TIP3   OH242493   5.568   1.672   3.934 -0.1727 -0.1749  0.6241
 7001TIP3    H142494   5.536   1.692   4.021 -1.5017 -2.1140  0.6219
 7001TIP3    H242495   5.576   1.577   3.932  1.3780 -0.0462 -0.8460
 7002TIP3   OH242496   5.491   4.363   1.660 -0.4915 -0.0681 -0.1024
 7002TIP3    H142497   5.579   4.395   1.637  0.0921 -0.7839  1.1030
 7002TIP3    H242498   5.443   4.363   1.577  0.5783  0.5382 -0.7333
 7003TIP3   OH242499   4.954   4.252   4.843 -0.3634  0.1979 -0.3388
 7003TIP3    H142500   4.949   4.184   4.910  2.9374  0.3734  0.1629
 7003TIP3    H242501   4.937   4.205   4.761  1.6508 -1.2187  0.0328
 7004TIP3   OH242502   2.908   1.157   1.374 -0.3498  0.3269 -0.3281
 7004TIP3    H142503   2.955   1.237   1.349 -0.5503  0.0113 -1.7681
 7004TIP3    H242504   2.898   1.163   1.469  1.9453  0.7550 -0.0848
 7005TIP3   OH242505   2.046   5.914  11.523  0.9210 -0.4005 -0.3284
 7005TIP3    H142506   2.027   5.934  11.615 -0.5882 -0.4602 -0.6098
 7005TIP3    H242507   2.128   5.961  11.505 -0.2175  1.9307  0.2766
 7006TIP3   OH242508   6.418   1.141  12.362 -0.1257 -0.5811  0.3941
 7006TIP3    H142509   6.494   1.129  12.419  0.6045 -0.4287 -0.5337
 7006TIP3    H242510   6.348   1.168  12.421  1.0755  1.3205  0.9931
 7007TIP3   OH242511   3.907   3.635  12.349 -0.1450  0.5596  0.4379
 7007TIP3    H142512   3.959   3.573  12.297 -0.6958  0.4023  0.0738
 7007TIP3    H242513   3.819   3.597  12.351 -0.2120  0.7346  1.2086
 7008TIP3   OH242514   4.655   4.837   1.066  0.7528 -0.1578 -0.1745
 7008TIP3    H142515   4.744   4.856   1.038  1.9977 -3.1507  1.5271
 7008TIP3    H242516   4.663   4.810   1.157 -1.8171 -0.9970 -0.1426
 7009TIP3   OH242517   2.384   6.464  12.426  0.3957  0.2353 -0.2322
 7009TIP3    H142518   2.401   6.523  12.500 -0.7321  0.6730 -0.3037
 7009TIP3    H242519   2.466   6.460  12.379  0.9955  0.3355  0.7846
 7010TIP3   OH242520   4.537   6.149   4.777 -0.1572 -0.6832  0.2841
 7010TIP3    H142521   4.457   6.096   4.784 -0.5989 -0.3609 -1.8921
 7010TIP3    H242522   4.608   6.086   4.787 -0.6801 -1.7993 -2.4170
 7011TIP3   OH242523   4.660   0.067   4.714 -0.3054  0.3415  0.4885
 7011TIP3    H142524   4.573   0.051   4.749 -0.9647  0.3935 -1.0562
 7011TIP3    H242525   4.652   0.047   4.620  1.3353  0.3521  0.3255
 7012TIP3   OH242526   4.715   0.653   4.452  0.4365  0.6473 -0.8392
 7012TIP3    H142527   4.780   0.599   4.496 -1.3670  0.3410  1.5120
 7012TIP3    H242528   4.734   0.742   4.481  0.4495  0.7026 -1.0124
 7013TIP3   OH242529   0.159   4.995   1.605 -0.0443 -0.3355 -0.3709
 7013TIP3    H142530   0.246   4.982   1.641  0.2477  4.3770  0.9682
 7013TIP3    H242531   0.172   4.994   1.510  1.3759 -0.3243 -0.1816
 7014TIP3   OH242532   3.280   3.831  12.480 -0.5866 -0.3337  0.2987
 7014TIP3    H142533   3.318   3.815  12.394  0.4754  1.4649  0.4157
 7014TIP3    H242534   3.287   3.926  12.493  0.6805 -0.7464  3.0116
 7015TIP3   OH242535   5.016   0.901  17.116 -0.0282  0.2773  0.1470
 7015TIP3    H142536   5.095   0.909  17.061 -0.0442 -1.6168 -0.1736
 7015TIP3    H242537   5.047   0.921  17.204  0.3880  1.5217 -0.2737
 7016TIP3   OH242538   1.455   5.068   5.216  0.3816  0.0856  0.0161
 7016TIP3    H142539   1.434   5.024   5.298  2.5225 -1.0922 -0.0333
 7016TIP3    H242540   1.528   5.125   5.238  0.5966  0.1825 -0.9503
 7017TIP3   OH242541   0.796   3.621   1.153 -0.2550  0.2495  0.1417
 7017TIP3    H142542   0.833   3.550   1.102 -1.5225 -1.0539  1.0096
 7017TIP3    H242543   0.802   3.698   1.096  0.1643 -0.7623 -1.1944
 7018TIP3   OH242544   2.456   2.935  15.505 -0.5387 -0.1135 -0.3736
 7018TIP3    H142545   2.493   2.904  15.422 -0.5309 -0.4906 -0.2295
 7018TIP3    H242546   2.365   2.906  15.503 -0.2365 -1.1424  0.2610
 7019TIP3   OH242547   5.682   3.695  14.088 -0.5903  0.3506 -0.1768
 7019TIP3    H142548   5.589   3.708  14.072 -0.6360 -0.7574 -0.8766
 7019TIP3    H242549   5.703   3.614  14.042  0.6400  0.3986  0.2795
 7020TIP3   OH242550   6.221   1.565  16.031  0.7359 -0.0102  0.2434
 7020TIP3    H142551   6.251   1.549  16.121  3.6411  2.7577 -0.1203
 7020TIP3    H242552   6.203   1.659  16.029 -1.1644 -0.3856 -1.5820
 7021TIP3   OH242553   1.948   0.278   1.012  0.4912 -0.2971 -0.3482
 7021TIP3    H142554   1.931   0.334   1.088  0.6904  0.7773 -1.0832
 7021TIP3    H242555   2.011   0.214   1.043  0.4977  0.0745  0.4227
 7022TIP3   OH242556   5.346   2.306   4.149 -0.1014  0.4009 -0.4413
 7022TIP3    H142557   5.437   2.314   4.121 -0.3444  1.1426 -1.0383
 7022TIP3    H242558   5.297   2.291   4.068 -0.3322 -1.6678  0.0517
 7023TIP3   OH242559   3.346   5.471  15.167 -0.3464  0.2379  0.8552
 7023TIP3    H142560   3.277   5.460  15.102  0.6219 -0.7382 -0.0386
 7023TIP3    H242561   3.373   5.562  15.159  0.5045 -0.1381 -0.9108
 7024TIP3   OH242562   6.211   2.959  12.627  0.1653  0.3056 -0.0710
 7024TIP3    H142563   6.163   2.877  12.616  2.8313 -1.3593  0.0943
 7024TIP3    H242564   6.204   3.002  12.541 -2.5395  0.6801  0.3004
 7025TIP3   OH242565   1.737   1.872   0.223 -0.1008  0.4383 -0.0611
 7025TIP3    H142566   1.662   1.931   0.235 -1.3165 -1.3077  1.0392
 7025TIP3    H242567   1.705   1.803   0.165  0.9570  0.2017 -0.3815
 7026TIP3   OH242568   5.539   5.388   6.756  0.0396 -0.2463  0.0784
 7026TIP3    H142569   5.527   5.478   6.786 -3.1913 -0.0574 -1.5770
 7026TIP3    H242570   5.475   5.338   6.807  1.8087 -1.6543  0.9829
 7027TIP3   OH242571   2.190   0.152  15.021 -0.1289  0.4502 -0.0334
 7027TIP3    H142572   2.272   0.192  15.052  0.4899  0.5133 -1.6900
 7027TIP3    H242573   2.171   0.084  15.086  0.3273  1.5595  1.2853
 7028TIP3   OH242574   2.164   3.915   1.874  0.6627  0.0283 -0.0710
 7028TIP3    H142575   2.080   3.907   1.830  0.7829  1.3930 -0.5596
 7028TIP3    H242576   2.146   3.889   1.965 -0.6178  1.6535  0.1758
 7029TIP3   OH242577   5.518   2.374  15.460 -0.6468 -0.8423 -0.1145
 7029TIP3    H142578   5.607   2.408  15.472 -0.3979 -2.0760  1.6982
 7029TIP3    H242579   5.474   2.440  15.406  0.2383  1.6907  2.1764
 7030TIP3   OH242580   5.590   6.418   6.558  0.4617  0.3148 -0.0435
 7030TIP3    H142581   5.545   6.406   6.474 -1.0684  1.2505  0.6161
 7030TIP3    H242582   5.590   6.331   6.598 -0.1075  0.1559 -0.3779
 7031TIP3   OH242583   1.003   0.772   4.511 -0.9383  0.2593 -0.2554
 7031TIP3    H142584   0.987   0.838   4.578 -0.2435  1.5470 -1.3263
 7031TIP3    H242585   1.094   0.746   4.524 -0.7679  0.5993 -0.7864
 7032TIP3   OH242586   0.375   4.607  16.971 -0.4971  0.2532 -0.4131
 7032TIP3    H142587   0.428   4.686  16.960 -0.4088  0.1798 -0.5173
 7032TIP3    H242588   0.437   4.535  16.961 -0.1687  0.1958  1.8889
 7033TIP3   OH242589   6.713   3.447   4.561  0.0273  0.3140 -0.2050
 7033TIP3    H142590   6.749   3.418   4.644 -1.2369  2.1314  1.0127
 7033TIP3    H242591   6.741   3.538   4.553 -0.9236  0.5385 -1.1582
 7034TIP3   OH242592   2.496   2.974  16.417 -0.1415 -0.4890 -0.3942
 7034TIP3    H142593   2.486   2.895  16.364 -1.0200  0.3292 -1.4708
 7034TIP3    H242594   2.562   3.026  16.372  0.5742 -0.6741  0.4208
 7035TIP3   OH242595   3.264   4.347   3.115  0.6197 -0.2009 -0.0779
 7035TIP3    H142596   3.296   4.274   3.168 -0.1983 -0.4013  0.1432
 7035TIP3    H242597   3.307   4.424   3.152  0.6183 -0.4339  0.4097
 7036TIP3   OH242598   1.538   2.077   0.576 -0.5050 -0.4654  0.6239
 7036TIP3    H142599   1.470   2.012   0.561 -0.9224  0.1838 -0.3688
 7036TIP3    H242600   1.593   2.039   0.645 -1.5276 -1.2497  1.0201
 7037TIP3   OH242601   1.193   2.481   4.246  0.0733  0.1996  0.2923
 7037TIP3    H142602   1.269   2.508   4.195  0.1071 -0.1365  0.1646
 7037TIP3    H242603   1.222   2.404   4.294 -0.3196 -0.1866 -0.0909
 7038TIP3   OH242604   4.129   4.640  16.505  0.3254  0.3170  0.2040
 7038TIP3    H142605   4.159   4.699  16.574  2.2167 -0.0689 -0.2686
 7038TIP3    H242606   4.084   4.569  16.552  0.2366  0.8481  0.9347
 7039TIP3   OH242607   4.941   2.942  15.250  0.4630  0.1883 -0.1486
 7039TIP3    H142608   5.013   2.893  15.211 -0.2084  0.0914 -1.2696
 7039TIP3    H242609   4.968   2.955  15.342  0.8958 -1.7752  0.0093
 7040TIP3   OH242610   4.577   4.269   4.625  0.3154 -0.3693 -0.8750
 7040TIP3    H142611   4.636   4.313   4.686 -0.5500  1.4354 -1.2971
 7040TIP3    H242612   4.522   4.340   4.590  0.4631 -1.4621 -3.3665
 7041TIP3   OH242613   1.734   4.807   3.115 -0.2344  0.2280 -0.2967
 7041TIP3    H142614   1.725   4.750   3.039  0.8503 -0.7170  0.2773
 7041TIP3    H242615   1.644   4.817   3.148 -0.4634 -0.9782 -0.5270
 7042TIP3   OH242616   1.148   6.102  10.617  0.6135 -0.1757  0.1754
 7042TIP3    H142617   1.084   6.031  10.628  0.5507 -0.0865  0.3915
 7042TIP3    H242618   1.225   6.059  10.581  0.5840 -0.3617  0.3302
 7043TIP3   OH242619   4.655   5.365   2.531 -0.4007 -0.1875  0.2187
 7043TIP3    H142620   4.720   5.308   2.572  0.1738  0.9389  0.9162
 7043TIP3    H242621   4.683   5.370   2.439 -0.4700 -1.0465  0.1537
 7044TIP3   OH242622   0.257   6.498  13.495  0.4512  0.4309 -0.1877
 7044TIP3    H142623   0.236   6.585  13.529  1.9638  0.8595 -0.3477
 7044TIP3    H242624   0.220   6.437  13.559 -3.2726  1.0973 -1.5495
 7045TIP3   OH242625   2.485   3.857   4.037 -0.0151  0.1459  0.6458
 7045TIP3    H142626   2.407   3.812   4.070 -0.0932  0.8769  1.4397
 7045TIP3    H242627   2.556   3.826   4.093  0.3895 -0.9686 -0.4383
 7046TIP3   OH242628   6.787   3.741   0.851  0.2684  0.1776 -0.0334
 7046TIP3    H142629   6.760   3.817   0.800  0.8043  0.8806  0.7186
 7046TIP3    H242630   6.844   3.691   0.792  0.4078  0.6734 -0.3187
 7047TIP3   OH242631   2.916   1.967  15.291 -0.8154  0.5564  0.0147
 7047TIP3    H142632   2.912   1.913  15.212  0.4990 -0.2041  0.4582
 7047TIP3    H242633   3.000   1.946  15.331 -2.2787 -0.6176  2.7063
 7048TIP3   OH242634   6.013   2.591  13.022 -0.5838 -0.0574  0.0406
 7048TIP3    H142635   5.948   2.646  13.065 -0.5272 -1.5802  2.1696
 7048TIP3    H242636   5.974   2.503  13.023 -0.6529 -0.1253 -3.2323
 7049TIP3   OH242637   1.358   4.037  11.555  0.1654 -0.1170  0.0386
 7049TIP3    H142638   1.332   4.107  11.495  0.1782 -0.3120 -0.1977
 7049TIP3    H242639   1.337   4.070  11.642 -0.0312  0.0901 -0.0896
 7050TIP3   OH242640   6.687   3.014   3.488  0.6469 -0.3524 -0.0089
 7050TIP3    H142641   6.634   2.935   3.498  0.3797 -0.0818  0.7407
 7050TIP3    H242642   6.638   3.082   3.533 -0.4564  0.8852 -2.9350
 7051TIP3   OH242643   2.249   6.532  16.498 -0.1274  0.3597  0.2068
 7051TIP3    H142644   2.241   6.541  16.593 -3.3958  1.2564 -0.0825
 7051TIP3    H242645   2.297   6.610  16.470 -0.3407  0.7638  0.9680
 7052TIP3   OH242646   2.658   5.730   4.183  0.1041  0.4979  0.4923
 7052TIP3    H142647   2.569   5.757   4.161 -0.0270  0.8532  1.4303
 7052TIP3    H242648   2.681   5.665   4.117 -1.1711 -0.2120  0.7399
 7053TIP3   OH242649   4.670   3.079   2.118 -0.1655  0.0242 -0.5428
 7053TIP3    H142650   4.668   2.996   2.166  0.5328  0.5258  0.3747
 7053TIP3    H242651   4.704   3.056   2.031  1.2575 -0.4496  0.1289
 7054TIP3   OH242652   0.272   4.167   6.116  0.3155 -0.3309 -0.4050
 7054TIP3    H142653   0.312   4.174   6.203 -0.9871 -1.3664  0.2978
 7054TIP3    H242654   0.321   4.097   6.073  1.7068  0.9505 -0.9331
 7055TIP3   OH242655   4.673   3.915  17.170 -0.6776 -0.1568 -0.0444
 7055TIP3    H142656   4.665   3.948  17.259 -1.7554 -2.4782  0.7610
 7055TIP3    H242657   4.751   3.958  17.135  0.6833 -0.4227  2.5424
 7056TIP3   OH242658   4.004   6.383  11.781 -0.3555  0.4175  0.1603
 7056TIP3    H142659   4.087   6.427  11.801 -0.0362 -0.3033  0.4545
 7056TIP3    H242660   3.969   6.358  11.867 -1.1488  1.2023  0.0693
 7057TIP3   OH242661   4.361   3.331   0.128 -0.8285 -0.2213  0.3172
 7057TIP3    H142662   4.427   3.331   0.058 -1.5852  2.3349 -0.4695
 7057TIP3    H242663   4.284   3.293   0.088 -1.1793  0.9948 -0.1990
 7058TIP3   OH242664   5.842   1.104   2.711 -0.2883  0.2906  0.0283
 7058TIP3    H142665   5.851   1.175   2.775 -0.3813 -1.1804  1.6839
 7058TIP3    H242666   5.755   1.116   2.674 -1.1951 -0.3156  1.9469
 7059TIP3   OH242667   4.506   6.063  13.868 -0.4230  0.3846 -0.6224
 7059TIP3    H142668   4.546   6.130  13.812  2.0540  0.3050  0.9653
 7059TIP3    H242669   4.508   5.984  13.815 -1.0330  0.9989 -1.5854
 7060TIP3   OH242670   2.547   5.203   5.031  0.1923  0.1462 -0.1190
 7060TIP3    H142671   2.629   5.252   5.044  0.2194 -0.1019  0.6895
 7060TIP3    H242672   2.529   5.164   5.117 -0.1458 -0.7696 -0.6023
 7061TIP3   OH242673   5.933   1.651   3.468  0.1498  0.3809  0.4531
 7061TIP3    H142674   5.889   1.680   3.548 -0.6075  1.8273 -0.4702
 7061TIP3    H242675   5.958   1.560   3.486 -0.5021  0.5152  2.1243
 7062TIP3   OH242676   5.290   6.463   5.971 -0.3569 -0.6587 -0.6199
 7062TIP3    H142677   5.235   6.409   6.028  0.1835 -1.0282 -0.4526
 7062TIP3    H242678   5.322   6.534   6.027  1.8981 -2.1949  0.0892
 7063TIP3   OH242679   1.120   2.557   0.560 -0.3499 -0.1869  0.4594
 7063TIP3    H142680   1.189   2.544   0.626  1.5386  0.6590 -1.3075
 7063TIP3    H242681   1.116   2.474   0.513  0.4241  0.1982 -0.3051
 7064TIP3   OH242682   5.230   5.161   6.222  0.3278 -0.4172 -0.5367
 7064TIP3    H142683   5.155   5.149   6.164 -0.4720 -0.1954  0.4255
 7064TIP3    H242684   5.271   5.242   6.192 -0.8912  0.4332  0.0794
 7065TIP3   OH242685   1.812   0.417  12.690 -0.1962 -0.3717 -0.1484
 7065TIP3    H142686   1.796   0.354  12.620  0.2367  0.1513 -0.7271
 7065TIP3    H242687   1.760   0.494  12.664  0.8082  0.2109 -0.4454
 7066TIP3   OH242688   5.288   0.643  14.626  0.2280  0.1280  0.0838
 7066TIP3    H142689   5.374   0.607  14.601  1.2470  1.5293  1.4684
 7066TIP3    H242690   5.309   0.721  14.677 -1.8852  0.2396  0.8193
 7067TIP3   OH242691   4.516   2.807   3.978  0.2315  0.1242 -0.2747
 7067TIP3    H142692   4.462   2.746   3.927 -1.1405  0.0669  1.2066
 7067TIP3    H242693   4.537   2.760   4.058 -0.2836  1.3345  0.5941
 7068TIP3   OH242694   0.648   6.456   0.372  0.3596  0.3883  0.5602
 7068TIP3    H142695   0.728   6.504   0.394 -0.3192  0.3159  3.4140
 7068TIP3    H242696   0.656   6.374   0.420 -0.3751 -0.6248 -1.0174
 7069TIP3   OH242697   2.719   5.644   2.541 -0.0779 -0.7590 -0.0123
 7069TIP3    H142698   2.769   5.628   2.461 -1.7916  0.3592 -1.3461
 7069TIP3    H242699   2.663   5.567   2.550 -0.4446 -0.5324 -0.3312
 7070TIP3   OH242700   6.551   5.325   4.763  0.1380  0.4396 -0.4970
 7070TIP3    H142701   6.529   5.234   4.744  1.0082 -0.3652  2.1301
 7070TIP3    H242702   6.481   5.355   4.821  1.6682  0.3228  1.4621
 7071TIP3   OH242703   5.666   1.316  11.481  0.3656 -0.1389  0.7030
 7071TIP3    H142704   5.580   1.275  11.469 -0.6307  1.5919  1.6244
 7071TIP3    H242705   5.728   1.243  11.476 -1.0382 -1.2471 -1.2392
 7072TIP3   OH242706   4.849   5.356   3.097  0.6001  0.3094 -0.1216
 7072TIP3    H142707   4.934   5.314   3.104 -0.3305 -1.4819  0.6683
 7072TIP3    H242708   4.808   5.342   3.182 -1.1038 -0.2247 -1.0063
 7073TIP3   OH242709   4.834   2.132  11.439  0.8191  0.1471  0.1507
 7073TIP3    H142710   4.914   2.094  11.402  0.6095 -0.6934  0.5501
 7073TIP3    H242711   4.844   2.123  11.533  0.4867  0.5083  0.2207
 7074TIP3   OH242712   2.408   6.473  11.267  0.3096  0.2809  0.1007
 7074TIP3    H142713   2.468   6.536  11.305 -0.1603  1.4304 -1.0094
 7074TIP3    H242714   2.464   6.415  11.214  0.7779 -0.4447  1.3679
 7075TIP3   OH242715   6.782   5.757   0.477  0.1397 -0.3780  0.2137
 7075TIP3    H142716   6.852   5.718   0.530 -0.8387 -0.9046  1.1326
 7075TIP3    H242717   6.825   5.827   0.428  1.6548 -1.7781 -0.4845
 7076TIP3   OH242718   5.584   3.372  11.168  0.1468  0.3171 -0.1218
 7076TIP3    H142719   5.500   3.353  11.127 -0.3201 -1.6289  1.6487
 7076TIP3    H242720   5.602   3.296  11.223  2.5046  1.2283  0.4373
 7077TIP3   OH242721   5.973   4.259  11.243 -0.2553  0.5894  0.5266
 7077TIP3    H142722   5.996   4.345  11.206  0.1242  0.6573  0.9176
 7077TIP3    H242723   5.901   4.279  11.304 -1.3164  0.3896 -0.6283
 7078TIP3   OH242724   1.681   2.973   4.105  0.3354 -0.6048 -0.1097
 7078TIP3    H142725   1.598   2.964   4.152 -0.1926  3.3985 -0.0959
 7078TIP3    H242726   1.745   2.927   4.160 -1.2265 -0.5302  1.8133
 7079TIP3   OH242727   0.606   0.815   3.269 -0.3024 -0.1558 -0.0822
 7079TIP3    H142728   0.554   0.845   3.343  0.4032 -0.5546  0.5876
 7079TIP3    H242729   0.695   0.808   3.304  0.2899  0.9420 -1.3114
 7080TIP3   OH242730   3.745   3.671   3.289 -0.0846  0.3931 -0.3409
 7080TIP3    H142731   3.691   3.644   3.364 -0.9714  2.7073 -0.1040
 7080TIP3    H242732   3.706   3.627   3.214 -1.0057  0.3886  0.1364
 7081TIP3   OH242733   0.692   0.675   6.985 -0.3081 -0.1578 -0.1107
 7081TIP3    H142734   0.671   0.597   6.934 -3.8517  1.4063 -1.2221
 7081TIP3    H242735   0.742   0.730   6.924  0.1786 -0.5721 -0.0887
 7082TIP3   OH242736   0.427   1.827   3.224 -0.4111 -0.4412 -0.1050
 7082TIP3    H142737   0.417   1.885   3.300  0.8568 -1.5678  0.9467
 7082TIP3    H242738   0.479   1.754   3.257 -0.7817 -1.4765 -1.7934
 7083TIP3   OH242739   3.554   3.700   5.388  0.2425  0.2222 -0.4612
 7083TIP3    H142740   3.557   3.618   5.339  0.8440 -0.6066  0.9640
 7083TIP3    H242741   3.486   3.686   5.454 -1.0536  1.5914 -1.4577
 7084TIP3   OH242742   6.130   4.314   4.242  0.2627  0.0386 -0.0948
 7084TIP3    H142743   6.155   4.254   4.311 -1.0363 -0.8951 -0.4089
 7084TIP3    H242744   6.146   4.266   4.161  0.9230  0.7875 -0.4159
 7085TIP3   OH242745   1.022   1.350   1.306  0.0223  0.2966 -0.2056
 7085TIP3    H142746   1.067   1.375   1.226  0.3545  0.7781  0.1265
 7085TIP3    H242747   1.088   1.360   1.375 -0.5919  1.0039  0.2853
 7086TIP3   OH242748   4.266   6.188  12.782 -0.3701 -0.8452 -0.0105
 7086TIP3    H142749   4.204   6.167  12.713 -3.2263 -0.8609  2.4415
 7086TIP3    H242750   4.275   6.283  12.778  0.6692 -0.9881 -1.3485
 7087TIP3   OH242751   0.063   4.286  15.204  0.0611 -0.2327 -0.2040
 7087TIP3    H142752   0.037   4.313  15.116  0.4049 -0.8092 -0.4882
 7087TIP3    H242753  -0.009   4.313  15.260 -1.1331 -1.7532 -0.9728
 7088TIP3   OH242754   4.236   1.178   2.947 -0.0033 -0.0972 -0.4516
 7088TIP3    H142755   4.266   1.256   2.902 -1.3551 -0.3728 -1.8488
 7088TIP3    H242756   4.292   1.108   2.913  2.0136  0.4056  1.6757
 7089TIP3   OH242757   1.060   4.582  13.967  0.0874 -0.2874  0.3946
 7089TIP3    H142758   1.135   4.627  13.928 -1.0257  0.5444 -0.8096
 7089TIP3    H242759   1.024   4.645  14.030  0.2059 -0.5694  0.7474
 7090TIP3   OH242760   3.304   1.625   2.139  0.1485  0.1077  0.2496
 7090TIP3    H142761   3.263   1.559   2.195  0.9826 -0.8625 -0.2751
 7090TIP3    H242762   3.257   1.618   2.056 -0.5986  1.0488  0.5761
 7091TIP3   OH242763   1.433   1.420   2.746  0.6493  0.3773 -0.1630
 7091TIP3    H142764   1.470   1.344   2.701  0.2538  1.7651 -2.9642
 7091TIP3    H242765   1.507   1.480   2.756  0.5620  0.4065  0.3149
 7092TIP3   OH242766   1.995   0.558  11.909  0.1270  0.0906 -0.2482
 7092TIP3    H142767   2.079   0.565  11.864 -0.1739  0.8277 -0.6985
 7092TIP3    H242768   1.935   0.610  11.857 -1.1030 -2.0678 -1.0679
 7093TIP3   OH242769   5.387   0.746   3.317  0.1287 -0.2391  0.3815
 7093TIP3    H142770   5.455   0.737   3.383 -0.0863  0.1449  0.6546
 7093TIP3    H242771   5.313   0.697   3.351  0.4203 -1.0346 -0.1246
 7094TIP3   OH242772   0.501   1.485  13.007  0.0250  0.1304  0.4094
 7094TIP3    H142773   0.432   1.549  13.027  0.3508  0.4662  0.4813
 7094TIP3    H242774   0.581   1.537  13.006  0.0055  0.2008 -2.0740
 7095TIP3   OH242775   4.860   5.343  13.968  0.2924 -0.0764  0.6439
 7095TIP3    H142776   4.852   5.291  13.887  0.2064 -1.0642  1.2797
 7095TIP3    H242777   4.773   5.341  14.006  0.5063 -0.2044  1.1281
 7096TIP3   OH242778   4.397   4.739   0.197  0.3286  0.0710 -0.1034
 7096TIP3    H142779   4.387   4.667   0.260  0.1224 -1.0500 -1.3937
 7096TIP3    H242780   4.308   4.756   0.166  0.1352  2.0317  1.4101
 7097TIP3   OH242781   1.452   4.028   3.838 -0.1049  0.0837  0.4107
 7097TIP3    H142782   1.435   4.108   3.887 -0.8015 -0.2352  0.6945
 7097TIP3    H242783   1.497   3.971   3.901 -1.5761 -0.5669  0.8811
 7098TIP3   OH242784   1.500   4.602  16.630 -0.2509 -0.0168 -0.1237
 7098TIP3    H142785   1.566   4.655  16.675 -1.9166  0.1478  2.2030
 7098TIP3    H242786   1.548   4.525  16.599  0.7816 -0.6340  2.8317
 7099TIP3   OH242787   5.387   4.985   2.995 -0.3396  0.4358  0.4579
 7099TIP3    H142788   5.386   4.920   3.065 -0.3618  1.5161  1.4788
 7099TIP3    H242789   5.301   5.027   3.001 -0.7587 -0.2090 -0.9290
 7100TIP3   OH242790   0.231   1.568  14.184 -0.2879  0.2526  0.3791
 7100TIP3    H142791   0.286   1.636  14.145  0.6606 -1.2959 -1.0312
 7100TIP3    H242792   0.291   1.496  14.203 -1.1447  0.0722  2.5758
 7101TIP3   OH242793   2.765   4.029  15.557  0.2132 -0.1633 -0.3311
 7101TIP3    H142794   2.671   4.045  15.569  0.5852  0.3292  2.3113
 7101TIP3    H242795   2.793   4.094  15.493 -1.3831 -0.8104 -1.7151
 7102TIP3   OH242796   5.279   0.026   1.719 -0.1159 -0.1663  0.1634
 7102TIP3    H142797   5.365   0.008   1.680 -0.1623  1.7228 -0.8598
 7102TIP3    H242798   5.243   0.097   1.667 -1.5211  0.3122  1.7363
 7103TIP3   OH242799   6.130   6.646   4.954  0.7048 -0.0181 -0.2343
 7103TIP3    H142800   6.060   6.666   4.892 -0.4036 -1.6633  0.4456
 7103TIP3    H242801   6.141   6.727   5.004 -0.7341  0.2706 -0.3548
 7104TIP3   OH242802   4.940   2.133  14.458  0.2252 -0.7351 -0.4355
 7104TIP3    H142803   4.994   2.081  14.398  0.4728 -1.2737  0.2362
 7104TIP3    H242804   4.865   2.160  14.405  0.8327 -0.5204 -1.2018
 7105TIP3   OH242805   3.857   1.605  13.171  0.1532  0.0515  0.2853
 7105TIP3    H142806   3.813   1.675  13.218  0.3304 -0.5232  1.3287
 7105TIP3    H242807   3.923   1.572  13.232  0.9552 -0.1606 -0.6737
 7106TIP3   OH242808   1.690   5.881   4.402 -0.4569 -0.8075 -0.0040
 7106TIP3    H142809   1.647   5.961   4.373  2.4724  0.0860 -2.1123
 7106TIP3    H242810   1.668   5.816   4.335  0.7809 -0.5446 -0.6863
 7107TIP3   OH242811   6.539   3.277  15.274  0.0875  0.4792  0.0418
 7107TIP3    H142812   6.626   3.244  15.254  0.5129  1.6490 -0.0700
 7107TIP3    H242813   6.484   3.247  15.201  0.4935  0.1771 -0.1385
 7108TIP3   OH242814   4.583   0.896   4.144 -0.1673 -0.3215 -0.2127
 7108TIP3    H142815   4.593   0.802   4.157 -0.1338 -0.1326  1.1663
 7108TIP3    H242816   4.627   0.936   4.219 -2.1877  0.7429  0.4449
 7109TIP3   OH242817   5.078   0.348   2.191  0.0372 -0.1163  0.2323
 7109TIP3    H142818   5.103   0.278   2.251  1.0578  0.3527  0.3695
 7109TIP3    H242819   5.066   0.304   2.107 -0.2196 -0.5928  0.5156
 7110TIP3   OH242820   3.301   5.534   0.110 -0.2481 -0.7724  0.6056
 7110TIP3    H142821   3.261   5.504   0.191 -1.1588 -2.2509 -0.3537
 7110TIP3    H242822   3.228   5.561   0.055  0.3685  0.3994  0.3404
 7111TIP3   OH242823   5.881   5.528   4.220  0.3582 -0.6190 -0.0363
 7111TIP3    H142824   5.855   5.487   4.302 -0.7880 -1.9901 -1.0513
 7111TIP3    H242825   5.805   5.582   4.196  0.8066  0.0091 -0.0518
 7112TIP3   OH242826   6.491   3.341  15.914 -0.1336 -0.2364 -0.0651
 7112TIP3    H142827   6.459   3.269  15.967  1.0471 -0.9605 -0.3139
 7112TIP3    H242828   6.556   3.385  15.970  0.2278 -0.2656 -0.4615
 7113TIP3   OH242829   4.992   5.011   5.083  0.0025 -0.1136  0.2351
 7113TIP3    H142830   4.921   5.072   5.065  0.1970 -0.4949 -1.9363
 7113TIP3    H242831   5.071   5.065   5.076  0.1494 -0.4960 -1.3126
 7114TIP3   OH242832   0.637   1.246  13.057  0.0088 -0.2423  0.5944
 7114TIP3    H142833   0.573   1.174  13.054  1.5990 -1.6247 -1.1345
 7114TIP3    H242834   0.587   1.323  13.031 -1.0026 -1.3006 -0.6915
 7115TIP3   OH242835   5.370   2.575  16.529  0.2568 -0.4592  0.4705
 7115TIP3    H142836   5.304   2.513  16.498  0.7409 -1.6646  1.7626
 7115TIP3    H242837   5.448   2.554  16.479  0.1403 -0.2002  0.1783
 7116TIP3   OH242838   1.882   3.398  11.188 -0.0671 -0.2347  0.0157
 7116TIP3    H142839   1.896   3.304  11.198  1.6024  0.0127  0.2831
 7116TIP3    H242840   1.808   3.417  11.245 -0.8659 -1.4927 -0.5789
 7117TIP3   OH242841   1.944   4.201  12.828 -0.6368  0.8517 -0.0843
 7117TIP3    H142842   1.943   4.106  12.840 -0.3347  0.9065  0.4164
 7117TIP3    H242843   1.863   4.231  12.871 -1.7265  0.6383 -1.9481
 7118TIP3   OH242844   4.809   5.413   6.207  0.4773  0.2143  0.0343
 7118TIP3    H142845   4.741   5.473   6.175  1.4493  0.6948 -1.1694
 7118TIP3    H242846   4.813   5.428   6.301 -1.3486 -0.0948  0.1798
 7119TIP3   OH242847   6.301   1.811   5.124  1.0252 -0.2950 -0.2188
 7119TIP3    H142848   6.270   1.720   5.124  2.6832 -0.8665 -0.3990
 7119TIP3    H242849   6.268   1.847   5.206 -0.9029 -0.6130 -0.8298
 7120TIP3   OH242850   4.723   1.607  15.383 -0.3411 -0.1766  0.6013
 7120TIP3    H142851   4.742   1.557  15.463 -0.8205 -0.6887  0.3926
 7120TIP3    H242852   4.790   1.579  15.321 -1.6166 -1.8398 -0.0673
 7121TIP3   OH242853   0.928   4.066  11.912 -0.4144  0.0207  0.2294
 7121TIP3    H142854   0.897   4.130  11.848  1.3884  1.5720  0.8392
 7121TIP3    H242855   0.868   4.074  11.986  1.6143  3.3704  1.6279
 7122TIP3   OH242856   1.256   2.201  13.673  0.3898 -0.2002 -0.1918
 7122TIP3    H142857   1.252   2.259  13.597  1.4140 -1.3799 -1.1703
 7122TIP3    H242858   1.340   2.156  13.664  0.5983 -0.2293  1.7417
 7123TIP3   OH242859   5.928   6.656   0.875 -0.1490  0.1948 -0.2490
 7123TIP3    H142860   5.885   6.576   0.906  1.3505 -0.3820  0.3936
 7123TIP3    H242861   5.922   6.717   0.948  0.4028  0.0018 -0.0409
 7124TIP3   OH242862   1.132   3.138   4.508  0.2524 -0.1855 -0.5231
 7124TIP3    H142863   1.208   3.104   4.556 -1.1749 -1.4173  0.9210
 7124TIP3    H242864   1.087   3.195   4.570 -0.7481 -0.5518 -0.8979
 7125TIP3   OH242865   6.236   1.479   3.582  0.1899  0.2375  1.2964
 7125TIP3    H142866   6.194   1.393   3.573 -1.2413  1.0403  0.0788
 7125TIP3    H242867   6.323   1.468   3.544 -0.2981 -0.4498  0.3717
 7126TIP3   OH242868   0.534   1.199  14.988 -0.5871 -0.4195  0.0755
 7126TIP3    H142869   0.592   1.131  15.022 -1.3032 -0.4898  1.1607
 7126TIP3    H242870   0.500   1.163  14.907  1.6412  0.0127 -1.1054
 7127TIP3   OH242871   4.648   0.417   0.204 -0.2570 -0.0159 -0.1929
 7127TIP3    H142872   4.679   0.369   0.127  2.5425  0.6792  0.4235
 7127TIP3    H242873   4.562   0.380   0.223 -0.7089 -0.6306 -3.2617
 7128TIP3   OH242874   5.749   6.047  13.473  0.0093  0.3181 -0.3711
 7128TIP3    H142875   5.703   6.000  13.542 -1.8544 -0.2282 -1.9371
 7128TIP3    H242876   5.835   6.004  13.468 -0.4011 -0.6340  0.5684
 7129TIP3   OH242877   1.602   1.130  11.442 -0.0797  0.1063 -0.2011
 7129TIP3    H142878   1.610   1.202  11.504 -1.6184  0.0551  0.0789
 7129TIP3    H242879   1.508   1.111  11.439  0.0875 -0.6043 -1.7237
 7130TIP3   OH242880   0.247   5.605  15.710  0.1807  0.3057 -0.3417
 7130TIP3    H142881   0.275   5.565  15.628 -1.3603  1.9385 -1.7035
 7130TIP3    H242882   0.252   5.699  15.694  0.3958  0.6541  1.6382
 7131TIP3   OH242883   3.065   1.117  12.473  0.7223  0.2884 -0.2065
 7131TIP3    H142884   3.071   1.189  12.535  0.4672  1.1845 -1.2048
 7131TIP3    H242885   2.971   1.101  12.463  0.7308  0.6999 -0.9860
 7132TIP3   OH242886   3.949   1.356  12.602  0.0515 -0.9362 -0.9234
 7132TIP3    H142887   3.983   1.384  12.516  3.2267 -1.6902  0.0107
 7132TIP3    H242888   3.944   1.437  12.653 -0.1468 -0.7221 -1.2816
 7133TIP3   OH242889   1.862   6.361   2.230  0.5065  0.2566 -0.0622
 7133TIP3    H142890   1.809   6.415   2.289  0.5300  0.5496 -0.3038
 7133TIP3    H242891   1.858   6.407   2.146  0.0562 -0.4232 -0.4225
 7134TIP3   OH242892   4.704   4.108   2.611  0.2861 -0.1718  0.2175
 7134TIP3    H142893   4.761   4.133   2.684  0.2488  0.0226  0.1776
 7134TIP3    H242894   4.616   4.129   2.640  0.4235  1.5627 -0.5869
 7135TIP3   OH242895   5.245   6.057   6.038 -0.0290 -0.0051  0.5417
 7135TIP3    H142896   5.301   6.106   5.978 -1.2738  0.1784 -0.4779
 7135TIP3    H242897   5.302   5.989   6.074  1.0712  0.7061  0.1602
 7136TIP3   OH242898   1.293   3.944   0.264  0.1420 -0.1592  0.3289
 7136TIP3    H142899   1.216   3.992   0.233  0.5982  0.7286  0.5266
 7136TIP3    H242900   1.306   3.975   0.354  2.5085  2.0133 -0.6990
 7137TIP3   OH242901   1.371   2.010   2.017 -0.0270 -0.0167 -0.3708
 7137TIP3    H142902   1.425   1.992   2.093 -1.3456  0.9394  0.8332
 7137TIP3    H242903   1.397   1.945   1.952  2.8872  0.7474 -0.0046
 7138TIP3   OH242904   0.699   3.891   3.705 -0.3410  0.0039 -0.2606
 7138TIP3    H142905   0.733   3.962   3.758  0.7927 -1.4629  1.0220
 7138TIP3    H242906   0.706   3.923   3.615 -0.2937  1.6831  0.3211
 7139TIP3   OH242907   2.221   0.306   3.508 -0.1815  0.3982 -0.7341
 7139TIP3    H142908   2.266   0.328   3.427  2.6366  3.2078  1.4667
 7139TIP3    H242909   2.218   0.388   3.557 -0.5995 -1.5003  2.5376
 7140TIP3   OH242910   0.026   4.715  13.733 -0.3403 -0.5969  0.5615
 7140TIP3    H142911   0.098   4.706  13.671  0.9360 -0.3862  1.9590
 7140TIP3    H242912  -0.053   4.704  13.681  0.7419 -2.3471 -0.7492
 7141TIP3   OH242913   4.363   1.330   2.754 -0.0179 -0.2245 -0.0342
 7141TIP3    H142914   4.375   1.260   2.690 -0.3677 -0.3810  0.0676
 7141TIP3    H242915   4.447   1.375   2.756  0.4750 -1.1510  0.5071
 7142TIP3   OH242916   6.606   2.790  11.714  0.4539 -0.5043 -0.0514
 7142TIP3    H142917   6.518   2.798  11.751  0.6009 -1.3599  0.5039
 7142TIP3    H242918   6.598   2.719  11.651  0.5217  0.0676 -0.7066
 7143TIP3   OH242919   0.617   2.228   3.886 -0.0951 -0.0526  0.3442
 7143TIP3    H142920   0.583   2.170   3.818  1.1992  0.7396 -1.0006
 7143TIP3    H242921   0.709   2.203   3.896 -0.1311  0.2010  1.4349
 7144TIP3   OH242922   4.182   0.719   3.175  0.2609 -0.0800 -0.6479
 7144TIP3    H142923   4.212   0.790   3.232  0.5899 -0.4020 -0.4219
 7144TIP3    H242924   4.124   0.666   3.230  0.4936 -0.3296 -0.6406
 7145TIP3   OH242925   6.507   5.804   0.424 -0.1425  0.3587  0.7611
 7145TIP3    H142926   6.601   5.786   0.431 -0.3927 -1.1849  0.3614
 7145TIP3    H242927   6.487   5.789   0.332 -0.6808  1.2313  0.7334
 7146TIP3   OH242928   4.790   2.509   1.859 -0.3167 -0.0597  0.7992
 7146TIP3    H142929   4.841   2.495   1.779 -0.3097 -0.4959  0.8782
 7146TIP3    H242930   4.699   2.498   1.831 -0.3416  0.2457  0.7573
 7147TIP3   OH242931   4.954   1.386   5.336  0.0938  0.1235  0.1113
 7147TIP3    H142932   4.873   1.379   5.286 -0.3521  0.3030  0.8090
 7147TIP3    H242933   5.023   1.386   5.270 -0.5203  0.9369 -0.5340
 7148TIP3   OH242934   1.848   0.329  13.627  0.1903 -0.3782 -0.5901
 7148TIP3    H142935   1.832   0.236  13.612  1.2314 -0.7835  0.7162
 7148TIP3    H242936   1.797   0.373  13.559 -0.7936 -1.8733 -0.8507
 7149TIP3   OH242937   2.815   5.208  14.428  0.0258 -0.2023  0.0431
 7149TIP3    H142938   2.830   5.300  14.408  0.5487 -0.3734 -0.3769
 7149TIP3    H242939   2.834   5.200  14.521 -3.8303  0.8919  1.0192
 7150TIP3   OH242940   3.436   6.653   0.358 -0.3998  0.2015 -0.3081
 7150TIP3    H142941   3.428   6.560   0.335  0.3433  0.4011 -1.4522
 7150TIP3    H242942   3.370   6.697   0.304 -1.0786  0.2864  0.5896
 7151TIP3   OH242943   0.871   4.792  17.108 -0.3430  0.4026  0.7052
 7151TIP3    H142944   0.909   4.706  17.125  0.2144  0.8529  1.7890
 7151TIP3    H242945   0.945   4.848  17.086 -0.5426  0.9375  1.3838
 7152TIP3   OH242946   1.141   6.739  11.128  0.2925  0.1131 -0.1418
 7152TIP3    H142947   1.190   6.783  11.058  0.5690  0.2350  0.1271
 7152TIP3    H242948   1.049   6.749  11.102  0.4681 -1.4415 -1.4243
 7153TIP3   OH242949   0.958   5.412   3.826 -0.0603 -0.1721 -0.0643
 7153TIP3    H142950   0.980   5.505   3.812 -1.1924  0.0570 -0.3189
 7153TIP3    H242951   0.871   5.414   3.866 -0.1835 -1.1382 -0.2882
 7154TIP3   OH242952   5.200   3.449   3.869  0.2311  0.6814 -0.3320
 7154TIP3    H142953   5.258   3.513   3.911 -1.4034  0.5860  2.1992
 7154TIP3    H242954   5.197   3.375   3.930 -1.5759  0.1824 -0.9731
 7155TIP3   OH242955   1.146   4.006  16.615  0.0911 -0.3434  0.0731
 7155TIP3    H142956   1.088   4.057  16.558 -1.0007 -2.2713 -0.5962
 7155TIP3    H242957   1.230   4.051  16.610 -1.3456  2.6707  1.2235
 7156TIP3   OH242958   2.459   1.453  14.989 -0.3117 -0.4249  0.5149
 7156TIP3    H142959   2.554   1.442  14.977 -0.5513  0.7385 -2.8389
 7156TIP3    H242960   2.423   1.367  14.969 -0.0779 -0.4928  0.3772
 7157TIP3   OH242961   0.789   5.446   1.745 -0.2868  0.5355  0.0008
 7157TIP3    H142962   0.841   5.441   1.825  2.0794 -0.0600 -1.5283
 7157TIP3    H242963   0.775   5.355   1.719 -0.3931  0.7461 -0.6921
 7158TIP3   OH242964   5.055   6.292  11.766  0.0967 -0.2881  0.3077
 7158TIP3    H142965   5.009   6.263  11.844 -1.4481 -2.6863 -1.4234
 7158TIP3    H242966   5.145   6.306  11.794 -0.8128  0.6402  2.8796
 7159TIP3   OH242967   0.341   5.069   1.996 -0.2713 -0.4304  0.2088
 7159TIP3    H142968   0.276   5.137   2.014 -0.8249 -0.7891 -0.3677
 7159TIP3    H242969   0.300   4.988   2.028 -0.3057 -0.7247 -0.5531
 7160TIP3   OH242970   1.064   1.756   1.788 -0.2757 -0.1757  0.2267
 7160TIP3    H142971   1.125   1.764   1.715 -2.0290 -1.9589 -1.5118
 7160TIP3    H242972   1.053   1.846   1.819  1.2183  0.5020 -1.0998
 7161TIP3   OH242973   1.135   3.820   0.997  0.2722 -0.9485 -0.0679
 7161TIP3    H142974   1.099   3.735   0.973  0.3926 -1.1257  0.3685
 7161TIP3    H242975   1.198   3.801   1.067 -0.8727 -0.3349  1.1488
 7162TIP3   OH242976   6.554   6.131   1.116  0.3069 -0.1569  0.0285
 7162TIP3    H142977   6.634   6.114   1.166  0.2279  1.7654  0.8313
 7162TIP3    H242978   6.554   6.064   1.047  2.6433 -0.1249 -0.0357
 7163TIP3   OH242979   0.608   6.272  13.812 -0.4228  0.3083  0.2672
 7163TIP3    H142980   0.590   6.361  13.844 -0.7881  0.3294  0.0063
 7163TIP3    H242981   0.618   6.282  13.717  3.0790  0.6473  0.5940
 7164TIP3   OH242982   1.568   4.763   1.629  0.0593 -0.3398 -0.5871
 7164TIP3    H142983   1.602   4.849   1.607 -0.1056 -0.3369 -0.8403
 7164TIP3    H242984   1.643   4.704   1.620 -0.0283 -0.3555 -1.2703
 7165TIP3   OH242985   3.054   5.636   4.949  0.4266 -0.2446  0.2118
 7165TIP3    H142986   3.081   5.592   5.030 -1.5124 -0.9944  0.4896
 7165TIP3    H242987   3.076   5.728   4.962 -0.8677 -0.1769  2.0479
 7166TIP3   OH242988   2.123   3.652  15.305 -0.4744 -0.2456 -0.3671
 7166TIP3    H142989   2.100   3.689  15.219  1.8298  3.6263  0.5770
 7166TIP3    H242990   2.218   3.647  15.304 -0.5555 -2.5683  1.0740
 7167TIP3   OH242991   6.037   0.006   6.532  0.2706 -0.6671 -0.2464
 7167TIP3    H142992   6.098  -0.051   6.579  1.3018  0.0261 -0.7241
 7167TIP3    H242993   6.066   0.095   6.553 -0.2424 -0.3388 -0.9135
 7168TIP3   OH242994   1.137   4.494   4.003  0.5892 -0.0077 -0.0478
 7168TIP3    H142995   1.091   4.420   3.962  3.5014 -2.5902  1.1440
 7168TIP3    H242996   1.139   4.473   4.096  0.7747  2.0120  0.4311
 7169TIP3   OH242997   5.965   3.998  11.522  0.1454 -0.1235 -0.2879
 7169TIP3    H142998   5.950   4.043  11.605  0.7739  2.0311 -1.3125
 7169TIP3    H242999   5.918   3.915  11.531  0.6944 -0.1968  2.4355
 7170TIP3   OH243000   6.166   2.966  13.693  0.5612  0.6910  0.4816
 7170TIP3    H143001   6.201   2.931  13.611 -0.3821 -1.0409  0.7774
 7170TIP3    H243002   6.240   3.008  13.735  1.7511 -0.9690  0.0874
 7171TIP3   OH243003   0.315   0.294   3.716 -0.2709  0.3773 -0.1889
 7171TIP3    H143004   0.270   0.248   3.645 -1.7593 -0.5676  1.3258
 7171TIP3    H243005   0.251   0.358   3.747  0.3062  0.6692  0.4112
 7172TIP3   OH243006   3.684   6.576   2.874  0.1811 -0.1767 -0.1662
 7172TIP3    H143007   3.714   6.539   2.791  0.1974 -1.0294  0.2156
 7172TIP3    H243008   3.601   6.619   2.853 -0.7069 -1.9002 -0.2909
 7173TIP3   OH243009   1.194   0.381  13.702 -0.3468  0.2138 -0.2984
 7173TIP3    H143010   1.252   0.341  13.767 -1.4896 -0.6082  0.2313
 7173TIP3    H243011   1.114   0.330  13.707 -1.0044  1.1329 -1.2673
 7174TIP3   OH243012   2.503   5.360  16.776 -0.4257 -0.0073  0.3411
 7174TIP3    H143013   2.470   5.280  16.735  1.3846  1.0364 -3.4459
 7174TIP3    H243014   2.450   5.430  16.738  0.7156  0.9202  0.4026
 7175TIP3   OH243015   1.260   1.292  11.930  0.0640 -0.4606  0.3317
 7175TIP3    H143016   1.342   1.338  11.950  0.0054 -0.6847  1.1115
 7175TIP3    H243017   1.196   1.329  11.990 -0.6403  0.3776 -0.9231
 7176TIP3   OH243018   4.608   1.854   5.439  0.4051 -0.1757 -0.4390
 7176TIP3    H143019   4.528   1.869   5.489  0.8559 -0.2878  0.3216
 7176TIP3    H243020   4.591   1.894   5.353  0.0275  0.9703  0.1630
 7177TIP3   OH243021   3.129   3.198  11.139  0.2679  0.1452 -0.0377
 7177TIP3    H143022   3.202   3.258  11.157  0.1946  0.2439 -0.0665
 7177TIP3    H243023   3.112   3.154  11.222 -0.6733  1.2640  0.3798
 7178TIP3   OH243024   1.657   0.769  12.393 -0.1370 -0.1267 -0.3916
 7178TIP3    H143025   1.638   0.696  12.452  0.2825 -0.3288 -0.5059
 7178TIP3    H243026   1.582   0.828  12.403 -0.6642 -0.7569 -0.5844
 7179TIP3   OH243027   2.518   4.744   0.277 -0.1197 -0.6327 -0.7597
 7179TIP3    H143028   2.570   4.754   0.198  0.9002  0.9094  0.0783
 7179TIP3    H243029   2.582   4.749   0.348 -1.6338  4.3821  0.4726
 7180TIP3   OH243030   2.854   5.973   2.789  0.0277  0.3282  0.1193
 7180TIP3    H143031   2.901   5.913   2.848 -0.9337  1.0694  1.6795
 7180TIP3    H243032   2.765   5.975   2.823 -0.5926  0.6365 -1.5042
 7181TIP3   OH243033   1.366   4.418  16.902  0.2885 -0.0665  0.0547
 7181TIP3    H143034   1.327   4.479  16.840  3.1940  0.4132 -1.4001
 7181TIP3    H243035   1.334   4.446  16.988 -0.7841  1.6190 -0.8847
 7182TIP3   OH243036   2.934   0.731  14.028  0.0565 -0.2102 -0.3622
 7182TIP3    H143037   2.876   0.655  14.018 -0.3575  0.2364 -1.4751
 7182TIP3    H243038   2.992   0.727  13.952 -0.5490  1.0747 -0.9046
 7183TIP3   OH243039   3.008   4.604  10.704  0.3164  0.2023 -0.2911
 7183TIP3    H143040   3.058   4.645  10.774 -0.6609  0.7543  0.0971
 7183TIP3    H243041   3.074   4.564  10.646  1.0750 -1.7098  1.8192
 7184TIP3   OH243042   0.591   3.164   3.153 -0.1799 -0.0485 -0.4651
 7184TIP3    H143043   0.674   3.183   3.111 -0.9424 -0.5376 -2.2120
 7184TIP3    H243044   0.611   3.095   3.216  1.1167  1.2454  0.5798
 7185TIP3   OH243045   4.863   6.083  12.470 -0.0506  0.2520 -0.2973
 7185TIP3    H143046   4.956   6.078  12.449 -0.0032  1.0956 -0.2911
 7185TIP3    H243047   4.830   6.158  12.421 -0.8394 -0.3337 -0.6854
 7186TIP3   OH243048   2.405   2.534   3.934  0.3149  0.1769 -0.0332
 7186TIP3    H143049   2.473   2.593   3.965  0.4640 -0.4284  0.8166
 7186TIP3    H243050   2.425   2.519   3.842 -0.6633  2.7522 -0.7159
 7187TIP3   OH243051   3.947   5.288   0.757  0.5896  0.5909  0.0217
 7187TIP3    H143052   3.879   5.220   0.759  1.1705 -0.0384 -1.0524
 7187TIP3    H243053   3.939   5.327   0.670  3.5870 -1.5656 -1.3057
 7188TIP3   OH243054   3.693   1.849   0.253 -0.3315 -0.1635  0.1088
 7188TIP3    H143055   3.660   1.779   0.309 -1.7440 -0.7156 -1.3890
 7188TIP3    H243056   3.618   1.908   0.242  0.6364  1.2098  0.7579
 7189TIP3   OH243057   0.086   2.687   1.417 -0.3113  0.2352  0.6076
 7189TIP3    H143058   0.182   2.691   1.422 -0.2254 -2.4800  2.5721
 7189TIP3    H243059   0.057   2.730   1.497 -0.6531 -0.4224  0.8410
 7190TIP3   OH243060   3.333   6.029  14.540 -0.4027  0.4908 -0.1150
 7190TIP3    H143061   3.423   6.002  14.527  0.1409  2.2972 -0.2857
 7190TIP3    H243062   3.302   6.052  14.452 -1.1518 -0.4834 -0.1102
 7191TIP3   OH243063   2.882   4.622   1.650 -0.1540  0.5074 -0.4024
 7191TIP3    H143064   2.794   4.584   1.658  0.3090 -0.3917  0.4073
 7191TIP3    H243065   2.876   4.706   1.695 -1.1129  1.3202 -1.9790
 7192TIP3   OH243066   1.702   5.504   4.481 -0.2538 -0.0230  0.4387
 7192TIP3    H143067   1.718   5.591   4.516  2.4797 -0.6518  0.8539
 7192TIP3    H243068   1.744   5.444   4.543 -1.7967 -1.6240 -0.0100
 7193TIP3   OH243069   0.507   3.654   1.257  0.1199  0.5716 -0.0784
 7193TIP3    H143070   0.579   3.592   1.244  0.6777  1.7678 -2.9871
 7193TIP3    H243071   0.529   3.698   1.340  0.7125 -1.7289  1.0233
 7194TIP3   OH243072   1.548   6.601  13.718 -0.0007 -0.3859 -0.1390
 7194TIP3    H143073   1.611   6.555  13.663  0.8819  0.7427 -0.0958
 7194TIP3    H243074   1.496   6.653  13.657  0.0213 -0.2558 -0.0481
 7195TIP3   OH243075   2.482   6.695  13.023  0.5056 -0.1277 -0.1292
 7195TIP3    H143076   2.467   6.602  13.041 -0.4768 -0.3832 -2.1805
 7195TIP3    H243077   2.425   6.740  13.085  0.2130 -0.8994  0.1760
 7196TIP3   OH243078   3.092   4.660   1.499 -0.2768 -0.3088 -0.0016
 7196TIP3    H143079   3.024   4.636   1.562 -0.6933 -0.9652 -0.6908
 7196TIP3    H243080   3.043   4.693   1.424  0.2412  1.2558  0.3307
 7197TIP3   OH243081   0.166   2.410   6.171 -0.2626  0.4275  0.2703
 7197TIP3    H143082   0.211   2.470   6.231  0.8103  0.4192 -0.5142
 7197TIP3    H243083   0.186   2.323   6.206  0.9068  0.3908 -0.4466
 7198TIP3   OH243084   5.445   3.055   1.203  0.6869 -0.0049 -0.2740
 7198TIP3    H143085   5.365   3.053   1.150  1.0321  1.8724 -0.9013
 7198TIP3    H243086   5.413   3.066   1.293  0.2367  1.0380 -0.5539
 7199TIP3   OH243087   5.962   0.089  14.300 -0.0180 -0.0501 -0.2860
 7199TIP3    H143088   5.877   0.098  14.257  0.4327 -0.6069 -1.3067
 7199TIP3    H243089   6.007   0.172  14.282 -0.9683  0.9355  1.6929
 7200TIP3   OH243090   6.549   3.789   4.397  0.0989 -0.1124  0.4544
 7200TIP3    H143091   6.540   3.772   4.490 -0.5405 -2.3134  0.0298
 7200TIP3    H243092   6.512   3.877   4.385  0.0701  0.1392  2.2293
 7201TIP3   OH243093   5.877   0.058  11.682  0.0201 -0.3155  0.0029
 7201TIP3    H143094   5.842   0.006  11.754  1.0814 -1.3751 -0.2403
 7201TIP3    H243095   5.904   0.140  11.723 -0.1461 -0.5940  0.6704
 7202TIP3   OH243096   5.504   0.919  16.034  0.6081  0.3544  0.4627
 7202TIP3    H143097   5.545   0.906  15.949 -2.0661  0.1303 -0.8547
 7202TIP3    H243098   5.459   1.003  16.027 -2.7516 -1.3700  0.2739
 7203TIP3   OH243099   4.818   0.296  15.739  0.0818  0.2985  0.0299
 7203TIP3    H143100   4.778   0.371  15.695  1.4047  1.3739  0.6111
 7203TIP3    H243101   4.890   0.333  15.789  2.0733 -1.6164 -1.2933
 7204TIP3   OH243102   6.070   1.517  16.839  0.3217 -0.1683  0.4043
 7204TIP3    H143103   6.092   1.561  16.757  1.3642 -0.6154  0.4491
 7204TIP3    H243104   6.154   1.495  16.879 -0.1697  0.2085  1.6839
 7205TIP3   OH243105   3.652   2.454   6.681  0.2605  0.5914  0.1268
 7205TIP3    H143106   3.723   2.438   6.619 -0.3105 -0.8665 -0.1695
 7205TIP3    H243107   3.683   2.413   6.763  0.4811  1.4265  0.4646
 7206TIP3   OH243108   2.646   2.635   4.477 -0.3752  0.1345 -0.1668
 7206TIP3    H143109   2.702   2.565   4.512  0.4636  0.7392 -0.2804
 7206TIP3    H243110   2.693   2.716   4.497 -1.5330  0.6993  0.3057
 7207TIP3   OH243111   1.793   2.290  12.470 -0.2992 -0.1700  0.2766
 7207TIP3    H143112   1.783   2.337  12.553  1.0535  2.2155 -0.8554
 7207TIP3    H243113   1.713   2.310  12.421  0.6056  1.6812 -0.5099
 7208TIP3   OH243114   0.144   2.909  12.266 -0.2420 -0.3106  0.7097
 7208TIP3    H143115   0.205   2.956  12.323 -0.3837  1.7732 -0.8040
 7208TIP3    H243116   0.070   2.968  12.255 -0.0405 -0.4670 -1.9202
 7209TIP3   OH243117   3.070   0.848   0.180  0.3023 -0.5237  0.1485
 7209TIP3    H143118   3.063   0.827   0.087  1.4522  0.0741 -0.0935
 7209TIP3    H243119   3.130   0.923   0.183 -0.0125 -0.3056  1.3415
 7210TIP3   OH243120   5.419   5.732  12.634  0.0669  0.5477  0.7661
 7210TIP3    H143121   5.378   5.693  12.556 -0.5077  1.9927  0.3378
 7210TIP3    H243122   5.392   5.675  12.706 -0.4586 -0.0629  0.0939
 7211TIP3   OH243123   0.268   3.093   0.346  0.2807  0.1618  0.1959
 7211TIP3    H143124   0.305   3.125   0.429  1.0192  1.3145 -0.5711
 7211TIP3    H243125   0.340   3.099   0.284 -0.3280 -0.5374 -0.5742
 7212TIP3   OH243126   4.596   3.902   2.467  0.0465  0.0340  0.0428
 7212TIP3    H143127   4.664   3.836   2.480  0.8670  0.7912 -0.3514
 7212TIP3    H243128   4.619   3.973   2.527 -0.2119  0.4264 -0.3099
 7213TIP3   OH243129   6.670   4.828   3.124 -0.2784 -0.2997 -0.2995
 7213TIP3    H143130   6.757   4.794   3.143 -0.2095 -0.5271 -1.0197
 7213TIP3    H243131   6.635   4.769   3.058 -0.7790  0.0942 -0.3906
 7214TIP3   OH243132   1.514   6.010  17.010  0.4409  0.3051  0.3291
 7214TIP3    H143133   1.571   6.034  16.937 -0.1836 -0.5263 -0.4399
 7214TIP3    H243134   1.491   6.093  17.052 -1.3808  1.0539 -2.0395
 7215TIP3   OH243135   1.022   4.621   1.434 -0.1732 -0.1769  0.1179
 7215TIP3    H143136   0.992   4.565   1.505 -1.8139  0.3185 -0.1778
 7215TIP3    H243137   0.945   4.671   1.407  0.9058  1.1332 -0.6344
 7216TIP3   OH243138   1.227   3.404   3.259 -0.1879  0.3290  0.5735
 7216TIP3    H143139   1.204   3.412   3.166 -1.4228  1.8009  0.9688
 7216TIP3    H243140   1.298   3.341   3.261 -2.0790 -1.9510 -1.0927
 7217TIP3   OH243141   1.931   6.646   6.626 -0.0992  0.2599 -0.3138
 7217TIP3    H143142   1.956   6.616   6.538 -0.1314 -0.9817  0.0839
 7217TIP3    H243143   1.837   6.627   6.632 -0.0675  0.2125  0.0394
 7218TIP3   OH243144   0.728   6.449  16.874  0.5848 -0.5402  0.3007
 7218TIP3    H143145   0.798   6.483  16.929  1.1842 -1.3623  0.0613
 7218TIP3    H243146   0.675   6.526  16.851  0.2147 -0.2175  2.1715
 7219TIP3   OH243147   1.098   1.372  13.782  0.7550  0.0807  0.0503
 7219TIP3    H143148   1.038   1.421  13.725  1.7028  0.4832 -0.6037
 7219TIP3    H243149   1.128   1.436  13.847 -0.0718 -0.2985  0.8182
 7220TIP3   OH243150   5.013   1.708  13.272  0.4762 -0.1520  0.2025
 7220TIP3    H143151   5.030   1.802  13.274  0.6883 -0.2068  2.2536
 7220TIP3    H243152   4.957   1.692  13.348  0.1935 -1.6464 -0.2937
 7221TIP3   OH243153   2.476   2.170  11.146 -0.4061  0.7911  0.0856
 7221TIP3    H143154   2.424   2.128  11.214  1.3857 -0.9188  0.4371
 7221TIP3    H243155   2.567   2.152  11.170  0.2573 -0.7799 -3.2907
 7222TIP3   OH243156   5.818   6.559   1.233  0.2379  0.5931 -0.2262
 7222TIP3    H143157   5.791   6.539   1.323  1.0858  0.4270  0.0043
 7222TIP3    H243158   5.848   6.650   1.237 -1.1270  1.0708 -0.6811
 7223TIP3   OH243159   4.685   6.278  13.904 -0.5549  0.3496 -0.0582
 7223TIP3    H143160   4.695   6.306  13.995 -0.8061 -2.3412  0.8242
 7223TIP3    H243161   4.775   6.265  13.873 -0.5287 -0.8193  0.4879
 7224TIP3   OH243162   0.576   0.642   1.236  0.0804  0.1778  0.7147
 7224TIP3    H143163   0.561   0.572   1.173 -1.3947  0.9226  0.2253
 7224TIP3    H243164   0.670   0.660   1.230  0.0223 -0.0056 -0.9880
 7225TIP3   OH243165   1.828   6.392   2.607  0.2359 -0.0618 -0.1950
 7225TIP3    H143166   1.805   6.465   2.550  0.6593 -0.2686 -0.6381
 7225TIP3    H243167   1.826   6.315   2.549  0.2306 -0.3349  0.1663
 7226TIP3   OH243168   0.760   6.563   3.263 -0.2855  0.1469 -0.5746
 7226TIP3    H143169   0.824   6.517   3.317  0.4850  0.4668 -1.2049
 7226TIP3    H243170   0.687   6.582   3.322  0.6073  0.6223  0.3842
 7227TIP3   OH243171   5.760   3.543   1.061  0.2502 -0.1612 -0.2420
 7227TIP3    H143172   5.680   3.491   1.063  0.3506 -0.3301 -0.6938
 7227TIP3    H243173   5.793   3.533   0.972  0.9550 -0.3682  0.0415
 7228TIP3   OH243174   6.797   3.236   5.065 -0.1227 -0.6978 -0.3370
 7228TIP3    H143175   6.814   3.323   5.029 -2.1703 -0.6765 -1.3085
 7228TIP3    H243176   6.813   3.246   5.159 -1.3183  1.0156 -0.2863
 7229TIP3   OH243177   1.679   2.905   1.127 -0.3354 -0.2077  0.4843
 7229TIP3    H143178   1.745   2.893   1.195  0.0563 -1.1089 -0.0478
 7229TIP3    H243179   1.726   2.948   1.056 -0.1625 -1.4691 -0.1601
 7230TIP3   OH243180   0.781   0.003  14.695 -0.6329 -0.4455  0.1501
 7230TIP3    H143181   0.751  -0.047  14.771 -1.7517 -1.3209 -0.8662
 7230TIP3    H243182   0.718   0.075  14.688 -1.8064 -1.5776 -1.2265
 7231TIP3   OH243183   0.242   6.291   3.373  0.2344 -0.0230 -0.3760
 7231TIP3    H143184   0.294   6.286   3.453 -0.2575  0.8731  0.0046
 7231TIP3    H243185   0.261   6.378   3.337  0.5839 -0.4841 -1.3260
 7232TIP3   OH243186   4.729   0.961  17.009 -0.4673 -0.3580  0.4369
 7232TIP3    H143187   4.812   0.995  17.042 -0.4636  1.3904 -1.2725
 7232TIP3    H243188   4.745   0.867  16.995  1.0623 -0.1232  0.5678
 7233TIP3   OH243189   2.540   5.552  12.871  0.0645  0.3286 -0.2898
 7233TIP3    H143190   2.506   5.640  12.891 -1.4761  0.0724 -1.6284
 7233TIP3    H243191   2.590   5.563  12.790  2.1050  0.4463  0.9609
 7234TIP3   OH243192   4.507   0.989   6.194 -0.2265  0.2446 -0.5378
 7234TIP3    H143193   4.485   0.928   6.265 -1.5718 -0.6380 -1.6927
 7234TIP3    H243194   4.525   1.072   6.238 -0.3023 -0.4857  0.8918
 7235TIP3   OH243195   4.264   5.935  11.537  0.2360 -0.0397 -0.5037
 7235TIP3    H143196   4.274   6.026  11.565  1.2502  0.0127 -0.9929
 7235TIP3    H243197   4.242   5.941  11.444 -1.8269 -0.2467 -0.0506
 7236TIP3   OH243198   0.451   2.760   0.346  1.1023  0.8356 -0.5194
 7236TIP3    H143199   0.362   2.766   0.312  1.1975 -0.1584 -0.9630
 7236TIP3    H243200   0.469   2.847   0.383 -0.5568  0.6209  0.8321
 7237TIP3   OH243201   4.438   1.056  13.562 -0.3137 -0.2061  0.5942
 7237TIP3    H143202   4.369   1.025  13.621  1.2000 -1.1408  1.9142
 7237TIP3    H243203   4.436   0.995  13.488 -0.6771 -0.4068  0.7661
 7238TIP3   OH243204   6.266   6.119  13.308  0.2951  0.4938  0.8136
 7238TIP3    H143205   6.297   6.029  13.315  0.3166  0.2257 -1.9625
 7238TIP3    H243206   6.336   6.163  13.259 -0.4925  1.6156  0.6977
 7239TIP3   OH243207   2.893   4.006  15.802 -0.4123  0.3974 -0.3314
 7239TIP3    H143208   2.809   4.017  15.847 -0.4168  1.2827 -0.5502
 7239TIP3    H243209   2.876   4.035  15.712 -0.9253 -3.1666 -1.4657
 7240TIP3   OH243210   6.391   5.859   3.953 -0.5866  0.4048 -0.1249
 7240TIP3    H143211   6.320   5.798   3.933  0.7598 -0.6078 -1.9182
 7240TIP3    H243212   6.469   5.803   3.959  0.1232  1.5418  1.5311
 7241TIP3   OH243213   2.243   3.042  12.943  0.0198  0.3053  0.1506
 7241TIP3    H143214   2.202   2.986  13.008 -0.1436  2.6329  2.1173
 7241TIP3    H243215   2.176   3.054  12.875 -0.0422 -1.5682 -0.1531
 7242TIP3   OH243216   2.704   6.579  12.017  0.0321  0.8679  0.0672
 7242TIP3    H143217   2.744   6.492  12.014  0.3254  0.9622  1.1503
 7242TIP3    H243218   2.610   6.563  12.006  0.1934  0.5143 -0.8491
 7243TIP3   OH243219   1.739   6.524  16.124 -0.0946 -0.1628 -0.4082
 7243TIP3    H143220   1.800   6.597  16.135  1.5080 -1.6159  0.8777
 7243TIP3    H243221   1.738   6.482  16.211 -1.9213 -0.9312 -0.7946
 7244TIP3   OH243222   4.586   6.342  16.014  0.2213  0.2366  0.0864
 7244TIP3    H143223   4.622   6.396  16.084 -1.8638  1.4124  0.2922
 7244TIP3    H243224   4.632   6.370  15.935  1.6731 -0.2030  0.7556
 7245TIP3   OH243225   5.996   1.790   1.947 -0.6706  0.1400 -0.3735
 7245TIP3    H143226   5.941   1.774   2.024 -2.0771  2.4369 -0.8700
 7245TIP3    H243227   5.942   1.844   1.889  1.9487  2.1188 -1.0775
 7246TIP3   OH243228   5.333   2.218   1.913  0.0340  0.1064  0.0284
 7246TIP3    H143229   5.423   2.227   1.881  0.2516  2.3154  1.1710
 7246TIP3    H243230   5.340   2.229   2.008 -1.5542  1.4966  0.0173
 7247TIP3   OH243231   4.218   4.012  12.429 -0.1436 -0.1656 -0.1962
 7247TIP3    H143232   4.313   4.020  12.439  0.3357 -1.3099 -3.4482
 7247TIP3    H243233   4.205   3.924  12.394 -2.4860 -0.2892  0.9004
 7248TIP3   OH243234   3.089   3.899   5.997 -1.2103  0.3221  0.2147
 7248TIP3    H143235   3.103   3.805   5.985 -1.2828  0.1380  1.4584
 7248TIP3    H243236   3.057   3.930   5.912 -0.3956 -0.6191 -0.4426
 7249TIP3   OH243237   1.187   2.754   6.415  0.8692 -0.3364  0.6168
 7249TIP3    H143238   1.131   2.723   6.344  1.3414 -0.1347  0.1559
 7249TIP3    H243239   1.264   2.790   6.371  0.8477  0.4329  1.1981
 7250TIP3   OH243240   3.070   4.196  16.686 -0.2455 -0.5247 -0.0325
 7250TIP3    H143241   3.070   4.107  16.650 -0.1221 -0.4462 -0.2252
 7250TIP3    H243242   2.982   4.229  16.667 -0.8379 -1.1647  1.4244
 7251TIP3   OH243243   2.634   6.201  15.663  0.1100  0.0780  0.0996
 7251TIP3    H143244   2.538   6.198  15.671  0.0533 -1.4029 -0.9051
 7251TIP3    H243245   2.665   6.192  15.754 -0.6857  3.4933  0.7922
 7252TIP3   OH243246   4.822   2.286  16.813 -0.5054 -0.3024  0.0575
 7252TIP3    H143247   4.865   2.360  16.855  1.2508 -0.6506 -1.0641
 7252TIP3    H243248   4.739   2.323  16.779 -0.4274  0.7327  0.9665
 7253TIP3   OH243249   0.604   5.190   3.924  0.8935 -0.4213  0.2201
 7253TIP3    H143250   0.560   5.275   3.930  1.9907  0.1074  0.7898
 7253TIP3    H243251   0.695   5.208   3.947  1.0838 -1.7905  0.5636
 7254TIP3   OH243252   0.088   2.558  15.899 -0.2862  0.2749  0.1535
 7254TIP3    H143253   0.115   2.481  15.849 -0.6187 -0.0767  0.5065
 7254TIP3    H243254  -0.006   2.549  15.908 -0.6745  1.9634 -1.8399
 7255TIP3   OH243255   6.364   2.435   5.292 -0.1952  0.0760 -0.2187
 7255TIP3    H143256   6.447   2.388   5.301  1.2886  2.6900  0.2972
 7255TIP3    H243257   6.298   2.367   5.289  1.9983 -2.0827 -0.9092
 7256TIP3   OH243258   3.138   6.069  16.055  0.5283  0.4268  0.1483
 7256TIP3    H143259   3.045   6.090  16.062  0.4021  0.8195 -2.1583
 7256TIP3    H243260   3.182   6.153  16.070  0.3830  0.7616 -1.2423
 7257TIP3   OH243261   3.788   1.531   1.244 -0.0969  0.3493  0.5219
 7257TIP3    H143262   3.842   1.610   1.248  0.8321 -0.2055 -0.5397
 7257TIP3    H243263   3.845   1.463   1.280 -0.0879 -0.2345 -0.5707
 7258TIP3   OH243264   5.647   0.424   6.009  0.3189  0.3816 -0.1814
 7258TIP3    H143265   5.720   0.378   5.968 -0.3359 -0.7343 -0.1179
 7258TIP3    H243266   5.607   0.474   5.937  0.6149  0.3111 -0.3945
 7259TIP3   OH243267   6.204   3.634  14.625 -0.5611  0.5770  0.6243
 7259TIP3    H143268   6.179   3.725  14.610 -0.4960  0.2800 -1.3343
 7259TIP3    H243269   6.122   3.591  14.652 -0.6845  1.1104  1.1083
 7260TIP3   OH243270   4.342   4.084   1.931 -0.0060  0.3768 -1.0759
 7260TIP3    H143271   4.394   4.005   1.948 -0.1715  0.4702 -0.1377
 7260TIP3    H243272   4.402   4.157   1.948 -0.5338  0.4885  0.2979
 7261TIP3   OH243273   1.939   3.170   6.079  0.2066 -0.3653  0.0985
 7261TIP3    H143274   2.017   3.224   6.090  0.6028 -1.1269  1.2153
 7261TIP3    H243275   1.933   3.121   6.161 -1.1339 -0.7218 -0.2026
 7262TIP3   OH243276   2.037   4.407  13.081 -0.2140  0.2327  0.8577
 7262TIP3    H143277   2.073   4.492  13.054 -0.9736  0.1426 -0.5005
 7262TIP3    H243278   2.102   4.343  13.052 -2.1204 -0.0620 -3.0557
 7263TIP3   OH243279   6.585   2.800  14.999  0.1971 -0.0010  0.0613
 7263TIP3    H143280   6.656   2.818  14.938  1.2217  0.7684  1.4433
 7263TIP3    H243281   6.511   2.850  14.965  0.1888 -1.1142 -1.5997
 7264TIP3   OH243282   5.679   5.928   5.568  0.1552  0.1343  0.5688
 7264TIP3    H143283   5.707   5.862   5.504  2.6128  0.9769  0.7128
 7264TIP3    H243284   5.708   6.011   5.530 -3.7043  1.2715 -0.0321
 7265TIP3   OH243285   4.340   5.839  13.058 -0.3653 -0.1922  0.2021
 7265TIP3    H143286   4.267   5.783  13.034 -0.4519 -0.3899  0.9075
 7265TIP3    H243287   4.410   5.815  12.998 -0.2704 -1.3519  0.7721
 7266TIP3   OH243288   2.836   1.341  14.018 -0.8474 -0.1746  0.0404
 7266TIP3    H143289   2.799   1.424  13.987 -0.2670 -0.1507 -0.5880
 7266TIP3    H243290   2.919   1.333  13.972 -0.0852 -0.2601  1.4121
 7267TIP3   OH243291   3.664   1.629   4.176  0.5763 -0.2685  0.9489
 7267TIP3    H143292   3.592   1.608   4.117  0.4665  1.4056  0.4744
 7267TIP3    H243293   3.681   1.547   4.223 -2.1460 -0.4913  1.6441
 7268TIP3   OH243294   3.469   5.782   2.360  0.0357  0.1130  0.3013
 7268TIP3    H143295   3.535   5.762   2.294  1.4215 -2.1783  2.2876
 7268TIP3    H243296   3.519   5.802   2.439 -1.6021  1.7437  0.9600
 7269TIP3   OH243297   6.272   6.051  13.581  0.1443 -0.4145 -0.2650
 7269TIP3    H143298   6.205   5.983  13.594  0.2673 -0.7052 -1.1364
 7269TIP3    H243299   6.235   6.110  13.516  0.6224 -0.4315 -0.5608
 7270TIP3   OH243300   3.234   2.754   5.280  0.4130  0.4138  0.1697
 7270TIP3    H143301   3.322   2.785   5.258  1.2279 -2.4109 -0.6958
 7270TIP3    H243302   3.246   2.662   5.302 -2.6566 -0.6515 -2.2968
 7271TIP3   OH243303   4.929   3.343  16.716 -0.3373 -0.6809  0.2304
 7271TIP3    H143304   5.015   3.308  16.739 -0.0475  0.4104  0.8194
 7271TIP3    H243305   4.867   3.280  16.751  0.2168 -1.5946 -0.3976
 7272TIP3   OH243306   6.286   1.113  10.948  0.1168  0.6146 -0.3355
 7272TIP3    H143307   6.272   1.046  10.882 -1.0508  0.1326  0.3933
 7272TIP3    H243308   6.381   1.115  10.960  0.1966 -0.5703 -0.7050
 7273TIP3   OH243309   3.503   6.439   4.243  0.0392 -0.0408 -0.0994
 7273TIP3    H143310   3.447   6.476   4.175 -1.3657 -2.3608 -0.2420
 7273TIP3    H243311   3.456   6.362   4.274  1.8035 -0.3915  1.8225
 7274TIP3   OH243312   6.770   4.791  16.419  0.1911 -0.0705 -0.0233
 7274TIP3    H143313   6.752   4.874  16.375 -0.0881  0.0722  0.3577
 7274TIP3    H243314   6.686   4.767  16.459 -0.0966 -1.2279 -1.2883
 7275TIP3   OH243315   3.859   3.061  12.762 -0.2706  0.1658 -0.2114
 7275TIP3    H143316   3.897   2.980  12.729 -0.3469  0.1222 -0.1935
 7275TIP3    H243317   3.931   3.105  12.806 -0.6313 -0.7201  1.3291
 7276TIP3   OH243318   4.491   1.743  16.170 -0.0104 -0.0824 -0.6805
 7276TIP3    H143319   4.478   1.661  16.217  1.4017 -0.7843 -1.4652
 7276TIP3    H243320   4.479   1.812  16.236 -1.3818 -0.8898 -0.0565
 7277TIP3   OH243321   4.456   0.206  12.723 -0.6726 -0.0105 -0.1991
 7277TIP3    H143322   4.541   0.183  12.761 -0.5355  0.6183 -0.1196
 7277TIP3    H243323   4.474   0.219  12.630 -1.1061 -2.0587 -0.5980
 7278TIP3   OH243324   6.340   1.241   5.279  0.5144 -0.2228  0.0921
 7278TIP3    H143325   6.362   1.188   5.355 -0.0561  0.8161  0.9867
 7278TIP3    H243326   6.244   1.242   5.276  0.5120  0.8600  0.1684
 7279TIP3   OH243327   2.289   5.978  11.449  0.0826 -0.8053 -0.2920
 7279TIP3    H143328   2.358   5.924  11.410  1.4984 -0.8235  2.1555
 7279TIP3    H243329   2.332   6.059  11.475 -1.7607  1.0178 -2.7047
 7280TIP3   OH243330   0.057   5.529  12.039  0.2531  0.1570 -0.5046
 7280TIP3    H143331   0.072   5.437  12.015 -0.8664  0.0612 -0.8945
 7280TIP3    H243332  -0.034   5.531  12.068  1.1723  0.5383  2.5253
 7281TIP3   OH243333   5.425   0.703  12.944  0.0557 -0.6190  0.6089
 7281TIP3    H143334   5.381   0.630  12.988 -1.5141 -1.2536 -1.9212
 7281TIP3    H243335   5.412   0.778  13.001 -0.2053 -1.8401  2.1789
 7282TIP3   OH243336   6.078   1.833   5.738  0.5052 -0.0447  0.0111
 7282TIP3    H143337   6.036   1.747   5.731  1.4573 -0.5218  0.0293
 7282TIP3    H243338   6.064   1.858   5.830  0.6031 -0.3888  0.1239
 7283TIP3   OH243339   3.383   0.516  12.873  0.0356 -0.5587 -0.6008
 7283TIP3    H143340   3.342   0.602  12.888 -0.1409 -1.0544  1.8940
 7283TIP3    H243341   3.451   0.510  12.939  1.3185 -1.5721 -1.9806
 7284TIP3   OH243342   5.299   3.258  14.027  0.0960 -0.6428  0.8726
 7284TIP3    H143343   5.381   3.255  13.977  0.1625 -0.5416  0.9791
 7284TIP3    H243344   5.283   3.351  14.041  0.3509 -0.6918  1.4998
 7285TIP3   OH243345   4.109   1.213  14.225 -0.0618  0.4894  0.4436
 7285TIP3    H143346   4.065   1.204  14.310  0.8163  0.0942  0.8647
 7285TIP3    H243347   4.143   1.303  14.226 -0.1264  0.5139  0.4795
 7286TIP3   OH243348   4.320   4.227  15.791  0.0914 -0.2019 -0.0236
 7286TIP3    H143349   4.266   4.252  15.866 -0.6607 -0.5669 -0.4375
 7286TIP3    H243350   4.263   4.171  15.738  0.6824 -0.1069 -0.7675
 7287TIP3   OH243351   4.470   5.393   4.017 -0.6049 -0.3644 -0.0409
 7287TIP3    H143352   4.519   5.460   3.970 -0.8609 -0.5072 -0.5126
 7287TIP3    H243353   4.537   5.335   4.054 -0.3736  0.4094  0.7524
 7288TIP3   OH243354   4.067   3.158   5.558 -0.2267  0.6232 -0.4096
 7288TIP3    H143355   4.010   3.218   5.509 -0.3745  0.1820 -0.7772
 7288TIP3    H243356   4.107   3.103   5.491  1.3157  1.4944 -0.2489
 7289TIP3   OH243357   1.644   1.876  16.738 -0.2565 -0.2619 -0.0564
 7289TIP3    H143358   1.558   1.867  16.698  0.7845 -0.3745 -2.3645
 7289TIP3    H243359   1.668   1.786  16.761 -1.8477  0.0574  3.0724
 7290TIP3   OH243360   2.924   0.456  16.763 -0.0833  0.2382 -0.1347
 7290TIP3    H143361   2.996   0.404  16.726  0.1074 -0.0054  0.5689
 7290TIP3    H243362   2.967   0.533  16.800 -0.4067  1.1267 -1.5455
 7291TIP3   OH243363   4.507   5.159  17.056 -0.2989 -0.7839 -0.0307
 7291TIP3    H143364   4.590   5.129  17.093  0.7499  0.1002 -1.6260
 7291TIP3    H243365   4.441   5.102  17.097  1.1479 -1.9495  0.7336
 7292TIP3   OH243366   5.937   6.024  16.601  0.4063  0.2927 -0.3759
 7292TIP3    H143367   5.847   6.035  16.632  0.7146  1.2046  0.2265
 7292TIP3    H243368   5.960   5.934  16.625  0.0617  0.4445  0.5336
 7293TIP3   OH243369   4.481   2.731   4.984 -0.0076 -0.3371 -0.2554
 7293TIP3    H143370   4.575   2.744   4.995 -0.1434  1.9131 -1.4307
 7293TIP3    H243371   4.449   2.710   5.072  1.4725 -0.2650  0.3082
 7294TIP3   OH243372   0.936   1.926   5.921  0.2140 -0.0233 -0.3261
 7294TIP3    H143373   1.027   1.941   5.944 -0.1740  0.4232  0.9871
 7294TIP3    H243374   0.892   2.008   5.942 -0.7875 -0.7993  0.6953
 7295TIP3   OH243375   6.403   1.962   0.801 -0.4517  0.3701  0.5857
 7295TIP3    H143376   6.405   1.975   0.706 -0.3662  0.3567  0.5856
 7295TIP3    H243377   6.486   1.996   0.832 -0.3615  0.1162  0.6238
 7296TIP3   OH243378   2.230   3.993  12.045  0.0599 -0.3737  0.2763
 7296TIP3    H143379   2.229   4.083  12.078 -1.0634  0.2648 -1.4536
 7296TIP3    H243380   2.224   3.939  12.124 -1.8876  1.1228  1.2009
 7297TIP3   OH243381   6.656   2.461   5.163 -0.4570 -0.1598  0.2320
 7297TIP3    H143382   6.736   2.506   5.190 -0.9772  1.0978 -0.3033
 7297TIP3    H243383   6.639   2.398   5.234  0.1347  0.6496  1.1010
 7298TIP3   OH243384   0.044   4.132   4.004 -0.0133  0.0675  0.0158
 7298TIP3    H143385   0.043   4.138   3.909 -3.7751  0.7471  0.0168
 7298TIP3    H243386   0.071   4.219   4.033  1.3070 -0.1911 -0.3987
 7299TIP3   OH243387   0.708   5.025  14.059 -0.1027  0.1471  0.5927
 7299TIP3    H143388   0.633   5.079  14.084 -0.9408 -1.4525  1.6018
 7299TIP3    H243389   0.721   4.966  14.134  1.8626  0.0981  0.2219
 7300TIP3   OH243390   2.892   2.977  14.549 -0.4371  0.2734 -0.2873
 7300TIP3    H143391   2.934   3.053  14.509  0.9346 -0.5428 -0.4092
 7300TIP3    H243392   2.880   3.002  14.641  1.4483  0.0571  0.0389
 7301TIP3   OH243393   3.318   3.572   3.712 -0.1414  0.1906 -0.0492
 7301TIP3    H143394   3.372   3.601   3.639 -1.1632 -1.6195 -1.5548
 7301TIP3    H243395   3.244   3.633   3.713 -0.3370 -0.0415 -0.7602
 7302TIP3   OH243396   4.980   3.437  13.059 -0.1619  0.2340  0.7942
 7302TIP3    H143397   5.021   3.426  12.973  1.1719 -1.2836  1.5979
 7302TIP3    H243398   5.006   3.524  13.087  0.4584  0.2469  0.1971
 7303TIP3   OH243399   4.523   2.803   0.983  0.0104 -0.1052 -0.2975
 7303TIP3    H143400   4.553   2.882   0.938  1.1066  1.9490  3.7875
 7303TIP3    H243401   4.429   2.816   0.993 -0.2833 -0.6771 -2.0556
 7304TIP3   OH243402   2.626   4.132   0.587  0.3770 -0.0218  0.2221
 7304TIP3    H143403   2.631   4.078   0.508  2.4141  1.3676 -0.6410
 7304TIP3    H243404   2.616   4.069   0.658  0.8675 -1.4316 -0.9248
 7305TIP3   OH243405   1.262   2.441   3.334  0.0771  0.4982 -0.0136
 7305TIP3    H143406   1.242   2.518   3.387  0.9555  0.3675  0.5149
 7305TIP3    H243407   1.245   2.367   3.393 -0.2598  0.3029 -0.3549
 7306TIP3   OH243408   0.854   5.753   1.711 -0.0417  0.0453  1.0902
 7306TIP3    H143409   0.908   5.747   1.632  1.3535  2.4171  1.8149
 7306TIP3    H243410   0.815   5.666   1.720  1.4651 -0.8911 -1.0092
 7307TIP3   OH243411   5.069   3.940  11.600 -0.0111 -0.0421  0.3270
 7307TIP3    H143412   5.156   3.949  11.637 -0.2947  0.4713  0.8650
 7307TIP3    H243413   5.055   4.021  11.550 -0.3496  0.0643  0.5939
 7308TIP3   OH243414   1.101   5.248  11.122  0.3423 -0.1115 -0.4163
 7308TIP3    H143415   1.047   5.282  11.050  2.0615  0.2891 -1.5489
 7308TIP3    H243416   1.047   5.181  11.163 -0.8130 -0.0842 -1.8547
 7309TIP3   OH243417   3.771   6.140  15.034  0.3747  0.1224  0.5034
 7309TIP3    H143418   3.729   6.215  14.992  0.4454  0.0964  0.3901
 7309TIP3    H243419   3.698   6.089  15.070  0.2449 -0.4828 -0.6156
 7310TIP3   OH243420   6.565   5.394   1.234  0.2947 -0.1131 -0.1324
 7310TIP3    H143421   6.588   5.368   1.323  0.5199 -2.2533 -0.7675
 7310TIP3    H243422   6.518   5.318   1.199 -2.3973  1.8508 -0.8741
 7311TIP3   OH243423   5.135   5.219  12.190  0.4097  0.2249 -0.9434
 7311TIP3    H143424   5.087   5.260  12.118  1.1396 -1.3596 -2.3620
 7311TIP3    H243425   5.150   5.129  12.161  0.9012 -0.3899  1.1121
 7312TIP3   OH243426   3.609   0.745   1.872 -0.4432 -0.9695  0.4507
 7312TIP3    H143427   3.633   0.835   1.895  1.4307 -1.3619  0.0274
 7312TIP3    H243428   3.636   0.735   1.781  0.6217 -2.4151  0.9268
 7313TIP3   OH243429   3.053   1.269  13.837  0.3015 -0.1626 -0.0405
 7313TIP3    H143430   2.994   1.253  13.763 -1.3636  1.6325  0.8650
 7313TIP3    H243431   3.078   1.361  13.829  2.5859 -0.7562 -0.0989
 7314TIP3   OH243432   2.866   3.718  13.749  0.4446 -0.1711  0.1810
 7314TIP3    H143433   2.906   3.729  13.662 -1.3606 -1.4590 -0.8464
 7314TIP3    H243434   2.889   3.629  13.775  0.0116 -0.1951  0.4910
 7315TIP3   OH243435   3.009   4.543  15.323 -0.4751 -0.2027  0.2765
 7315TIP3    H143436   3.051   4.519  15.240 -1.1762  0.3084 -0.2205
 7315TIP3    H243437   3.077   4.526  15.389 -0.3340 -1.8222 -0.2526
 7316TIP3   OH243438   5.552   5.875  12.078  0.1213 -0.3732 -0.0207
 7316TIP3    H143439   5.527   5.876  11.986  0.5973  0.4068 -0.1391
 7316TIP3    H243440   5.473   5.846  12.124 -0.2682 -0.2693 -0.6218
 7317TIP3   OH243441   2.200   0.568   4.083  0.6036 -0.4985  0.1694
 7317TIP3    H143442   2.248   0.650   4.091 -0.9171  0.5570 -1.1666
 7317TIP3    H243443   2.254   0.515   4.024  1.5857 -0.4800  1.0341
 7318TIP3   OH243444   5.722   0.645  12.550  0.2690 -0.0118 -0.2264
 7318TIP3    H143445   5.683   0.563  12.579  0.6494 -0.2495 -0.3822
 7318TIP3    H243446   5.658   0.712  12.574  0.9890 -0.0939  2.0625
 7319TIP3   OH243447   6.372   3.157   0.373  0.2785  0.6551 -0.0658
 7319TIP3    H143448   6.391   3.249   0.355  0.9299  0.7372  0.9979
 7319TIP3    H243449   6.340   3.156   0.463  1.4633 -0.3114  0.3580
 7320TIP3   OH243450   1.500   2.266  16.007 -0.0212 -0.3433  0.3432
 7320TIP3    H143451   1.523   2.351  16.044 -1.5382 -0.1029  0.7731
 7320TIP3    H243452   1.551   2.261  15.926 -0.9989  1.6127 -0.4301
 7321TIP3   OH243453   4.720   5.040  12.920 -0.1443  0.0531 -0.0472
 7321TIP3    H143454   4.648   5.040  12.857 -0.0253  1.2180 -0.2038
 7321TIP3    H243455   4.678   5.060  13.004 -0.0851  0.1956 -0.0498
 7322TIP3   OH243456   2.129   4.058   5.378  0.1322  0.3818 -0.3831
 7322TIP3    H143457   2.218   4.023   5.377  0.4564  1.0856  2.1130
 7322TIP3    H243458   2.128   4.124   5.308  1.5316  0.3126 -0.4726
 7323TIP3   OH243459   4.972   3.140  16.426 -0.0515 -0.0508  0.1218
 7323TIP3    H143460   5.015   3.076  16.371  1.2306  0.8738  0.0251
 7323TIP3    H243461   5.042   3.179  16.479 -1.0316  0.1266  1.3431
 7324TIP3   OH243462   4.437   6.441  15.652 -0.0910 -0.0539  0.1940
 7324TIP3    H143463   4.366   6.377  15.648 -0.9216  0.8558  0.2296
 7324TIP3    H243464   4.514   6.393  15.620 -0.8605 -0.8354 -0.5251
 7325TIP3   OH243465   3.131   2.763  16.853  0.2990 -0.1241  0.5763
 7325TIP3    H143466   3.087   2.841  16.820 -0.4177 -1.2138 -1.1022
 7325TIP3    H243467   3.071   2.726  16.918 -0.8891 -1.0980 -1.0367
 7326TIP3   OH243468   3.782   0.837   3.613 -0.3345  0.2141 -0.0165
 7326TIP3    H143469   3.753   0.917   3.569 -1.1347  0.1004  0.3028
 7326TIP3    H243470   3.707   0.809   3.666 -0.5323 -1.4525 -1.1159
 7327TIP3   OH243471   1.469   2.851  13.380  0.3039 -0.1599 -0.4161
 7327TIP3    H143472   1.495   2.781  13.439  1.8120  0.7278 -0.0144
 7327TIP3    H243473   1.534   2.850  13.310  1.5714  2.1689  0.6779
 7328TIP3   OH243474   6.257   5.212  14.444 -0.0878 -0.3065 -0.9698
 7328TIP3    H143475   6.346   5.175  14.439  0.0710  0.0195 -0.5834
 7328TIP3    H243476   6.255   5.279  14.376  0.0492 -0.1336 -0.8047
 7329TIP3   OH243477   3.719   3.709   0.534 -0.0397 -0.1010  0.9434
 7329TIP3    H143478   3.726   3.615   0.516 -0.6085  0.3638 -2.0113
 7329TIP3    H243479   3.629   3.731   0.511  1.1656  1.8678 -2.2834
 7330TIP3   OH243480   1.767   4.793   3.769  0.4529  0.4107  0.3318
 7330TIP3    H143481   1.784   4.847   3.846  0.3095  0.7662  0.1144
 7330TIP3    H243482   1.850   4.749   3.751  0.2359 -0.3653  1.2294
 7331TIP3   OH243483   3.287   3.119   3.249 -0.8353 -0.1254 -0.2841
 7331TIP3    H143484   3.313   3.202   3.288 -0.6355  0.4616 -1.6424
 7331TIP3    H243485   3.274   3.060   3.324  3.5683 -0.2166  0.5511
 7332TIP3   OH243486   3.350   3.374  11.172  0.0018  0.1297 -0.2019
 7332TIP3    H143487   3.415   3.411  11.112  0.9852  0.8966  1.2965
 7332TIP3    H243488   3.311   3.450  11.215 -0.0946 -0.4488  0.7353
 7333TIP3   OH243489   1.341   3.183   1.274  0.8044  0.6779  0.0670
 7333TIP3    H143490   1.370   3.092   1.276 -2.0558 -0.3124 -0.3973
 7333TIP3    H243491   1.306   3.199   1.362 -0.2651  0.7464 -0.3609
 7334TIP3   OH243492   3.638   5.779  14.282  0.5610  0.5343 -0.3910
 7334TIP3    H143493   3.633   5.800  14.189  1.3397 -0.2351 -0.6210
 7334TIP3    H243494   3.549   5.754  14.306  0.0055  2.3090 -0.5298
 7335TIP3   OH243495   2.868   4.165  12.621  0.0895 -0.0297  0.4236
 7335TIP3    H143496   2.823   4.204  12.697  0.4429 -1.1511  1.2255
 7335TIP3    H243497   2.798   4.124  12.571  0.0567 -0.6897  1.0066
 7336TIP3   OH243498   5.600   1.083  14.781  0.2779  0.2431 -0.6317
 7336TIP3    H143499   5.641   1.131  14.853  2.1604 -0.8356 -0.9514
 7336TIP3    H243500   5.507   1.077  14.805  0.7304  0.6623  1.2478
 7337TIP3   OH243501   2.550   3.255   2.711 -0.1305 -0.0463 -0.1019
 7337TIP3    H143502   2.456   3.275   2.716 -0.2648 -0.7356  0.1194
 7337TIP3    H243503   2.558   3.200   2.633 -0.0838 -0.9939  0.5729
 7338TIP3   OH243504   2.000   5.500  12.911 -0.0718 -0.3361  0.3603
 7338TIP3    H143505   2.002   5.436  12.840  0.7615  0.9792 -0.8438
 7338TIP3    H243506   1.911   5.534  12.911  0.1754  0.3080 -0.6500
 7339TIP3   OH243507   4.733   6.575  12.301 -0.7898 -0.4954 -0.3555
 7339TIP3    H143508   4.777   6.609  12.378 -1.4820 -0.4752  0.0387
 7339TIP3    H243509   4.778   6.616  12.227 -1.1729  0.7411  0.0881
 7340TIP3   OH243510   6.324   1.972   6.161  0.5484  0.0239  0.3672
 7340TIP3    H143511   6.247   2.026   6.145  0.6318 -0.0046 -0.1274
 7340TIP3    H243512   6.294   1.905   6.223 -0.3216 -1.1059 -1.2396
 7341TIP3   OH243513   5.302   4.135   3.756 -0.3006  0.5281 -0.0909
 7341TIP3    H143514   5.247   4.194   3.706  0.2547  0.5938 -0.6362
 7341TIP3    H243515   5.265   4.048   3.740  0.3919  0.4477 -1.3355
 7342TIP3   OH243516   2.119   0.010   6.582  0.3334 -0.0838 -0.1520
 7342TIP3    H143517   2.064  -0.057   6.623  1.1779 -0.2131  0.7578
 7342TIP3    H243518   2.106   0.088   6.635  0.3134  0.1472 -0.4916
 7343TIP3   OH243519   6.428   2.708  13.073 -0.0807  0.2198 -0.1967
 7343TIP3    H143520   6.382   2.784  13.038 -0.0442  1.0612  1.5846
 7343TIP3    H243521   6.409   2.708  13.166 -1.1874 -2.7205 -0.3422
 7344TIP3   OH243522   5.451   3.855  16.486 -0.1062 -0.0628  0.0446
 7344TIP3    H143523   5.392   3.862  16.561 -0.7282  1.7889 -0.5929
 7344TIP3    H243524   5.428   3.773  16.445 -0.3723 -0.6627  1.3603
 7345TIP3   OH243525   2.120   2.287  14.369 -0.2580 -0.3345  0.4151
 7345TIP3    H143526   2.131   2.372  14.327  0.0314  0.9516  3.0528
 7345TIP3    H243527   2.031   2.290  14.405  0.1207 -0.7725  1.3810
 7346TIP3   OH243528   2.818   2.348   5.731 -0.0600  0.0978 -0.0993
 7346TIP3    H143529   2.864   2.414   5.782  1.3473 -0.2676 -0.8432
 7346TIP3    H243530   2.888   2.297   5.689 -1.1403 -0.7583 -0.9179
 7347TIP3   OH243531   3.972   0.065   6.376  0.7132  0.5414 -0.6956
 7347TIP3    H143532   3.887   0.105   6.359 -0.2100 -0.4858  1.3074
 7347TIP3    H243533   3.958  -0.028   6.360  0.8781  0.0909  1.6825
 7348TIP3   OH243534   5.595   3.114   3.583 -0.3961 -0.1755  0.4830
 7348TIP3    H143535   5.532   3.183   3.561 -0.1126  0.0599  0.4097
 7348TIP3    H243536   5.548   3.057   3.644 -0.5412  0.2327  0.7582
 7349TIP3   OH243537   5.567   2.448   4.620 -0.6800 -0.1670  0.5952
 7349TIP3    H143538   5.568   2.472   4.527 -0.1150  0.0883  0.6621
 7349TIP3    H243539   5.615   2.519   4.663  1.2009 -1.5005  0.7826
 7350TIP3   OH243540   4.932   6.392   4.189 -0.2379 -0.6883  0.5408
 7350TIP3    H143541   4.890   6.447   4.122 -1.2754 -1.3961  0.5900
 7350TIP3    H243542   4.959   6.454   4.257 -0.5974 -0.1374  0.1917
 7351TIP3   OH243543   4.967   1.218   1.321  0.6066  0.9727 -0.2977
 7351TIP3    H143544   4.887   1.264   1.296  1.1250  2.9840  1.5587
 7351TIP3    H243545   5.036   1.261   1.270  0.7911  0.7757 -0.2127
 7352TIP3   OH243546   1.012   3.046   0.495  0.6230  0.7692 -0.3561
 7352TIP3    H143547   0.946   3.005   0.438 -0.1629  2.1139 -0.4384
 7352TIP3    H243548   1.068   2.973   0.523 -1.0762 -0.4746 -0.0408
 7353TIP3   OH243549   6.819   4.106   3.718  0.5450 -0.2841 -0.0052
 7353TIP3    H143550   6.729   4.133   3.736 -0.2891 -0.9686 -2.8253
 7353TIP3    H243551   6.847   4.163   3.646  1.8323 -1.0866 -0.1605
 7354TIP3   OH243552   6.633   0.411  12.460  0.2948 -0.0728  0.0332
 7354TIP3    H143553   6.618   0.369  12.375 -0.3882 -0.5207  0.3665
 7354TIP3    H243554   6.545   0.422  12.496  0.5794  0.2312  0.6277
 7355TIP3   OH243555   6.133   0.337  11.881 -0.2993 -0.1437 -0.0474
 7355TIP3    H143556   6.184   0.268  11.923  1.1967 -0.1337 -1.8128
 7355TIP3    H243557   6.196   0.386  11.828 -1.9331  0.5328 -1.4353
 7356TIP3   OH243558   1.246   5.028  13.577 -0.4471  0.4707  0.1704
 7356TIP3    H143559   1.254   4.933  13.574  1.3689  0.6734 -2.9294
 7356TIP3    H243560   1.308   5.055  13.645  0.2624 -0.4243 -0.1176
 7357TIP3   OH243561   6.248   1.571   4.478  0.7034  0.1653  0.6177
 7357TIP3    H143562   6.157   1.542   4.476  0.0541  2.1924 -0.6644
 7357TIP3    H243563   6.296   1.501   4.435 -0.1838 -1.0495  1.5344
 7358TIP3   OH243564   3.607   1.284   1.860 -0.3026 -0.0313  0.2323
 7358TIP3    H143565   3.649   1.227   1.797 -2.0864 -0.7535 -0.3381
 7358TIP3    H243566   3.581   1.226   1.932  0.8081  0.6172  1.1853
 7359TIP3   OH243567   5.713   0.296   4.362 -0.2085  0.8468  0.2599
 7359TIP3    H143568   5.644   0.231   4.378  2.3021 -1.5379  1.9507
 7359TIP3    H243569   5.699   0.325   4.272 -2.0358 -1.3120 -0.1992
 7360TIP3   OH243570   1.611   1.956   1.149 -0.1805  0.4156  0.1824
 7360TIP3    H143571   1.610   1.991   1.238 -3.1081  1.2754 -0.1392
 7360TIP3    H243572   1.522   1.971   1.116  0.6043 -0.6706 -2.5839
 7361TIP3   OH243573   6.019   6.542  16.040 -0.3469 -0.0483 -0.4962
 7361TIP3    H143574   5.997   6.533  16.132  1.2085 -0.4256 -0.1439
 7361TIP3    H243575   5.948   6.497  15.994 -0.6055 -0.7532  0.5696
 7362TIP3   OH243576   3.303   2.406   1.564  0.4000 -0.2321 -0.1613
 7362TIP3    H143577   3.329   2.406   1.656 -0.5100 -1.1633  0.0990
 7362TIP3    H243578   3.285   2.315   1.544 -1.6619  0.2436 -0.6108
 7363TIP3   OH243579   2.777   0.799  13.397  0.2628 -0.1433  0.0253
 7363TIP3    H143580   2.872   0.811  13.396  0.1690  0.5763 -1.3666
 7363TIP3    H243581   2.749   0.825  13.309 -1.0770 -1.5913  0.0094
 7364TIP3   OH243582   3.832   5.267   2.084  0.3605  0.2398  0.7885
 7364TIP3    H143583   3.813   5.212   2.008  1.6375  0.2552  0.4559
 7364TIP3    H243584   3.854   5.204   2.153 -0.3013  0.2495  1.0178
 7365TIP3   OH243585   0.633   0.620  15.152 -0.2533  0.0878  0.3244
 7365TIP3    H143586   0.541   0.594  15.153 -0.0191 -0.8464 -1.0500
 7365TIP3    H243587   0.632   0.712  15.125 -0.7921  0.1112  0.4310
 7366TIP3   OH243588   0.846   2.830   0.605 -0.2629 -0.4154  0.2993
 7366TIP3    H143589   0.897   2.778   0.667  0.4420  0.8093  0.7629
 7366TIP3    H243590   0.872   2.798   0.519  0.0274 -0.9577  0.5892
 7367TIP3   OH243591   1.438   0.619  16.355 -0.4309 -0.6976 -0.0553
 7367TIP3    H143592   1.381   0.687  16.318  0.1356 -0.0793  0.2080
 7367TIP3    H243593   1.498   0.598  16.284  0.1825 -0.0437  0.2749
 7368TIP3   OH243594   3.961   2.243   2.218  0.0321 -0.3459  0.2164
 7368TIP3    H143595   3.909   2.312   2.258 -1.3938 -1.7017  0.7590
 7368TIP3    H243596   3.897   2.191   2.168  1.0979 -1.1784 -0.3020
 7369TIP3   OH243597   6.708   4.059  12.358  0.0368 -0.0121  0.3135
 7369TIP3    H143598   6.726   3.974  12.399 -1.4665  0.6178  2.3580
 7369TIP3    H243599   6.792   4.085  12.320  1.5020 -0.6772  2.9512
 7370TIP3   OH243600   2.052   6.231  11.530 -0.0197  1.0918 -0.2428
 7370TIP3    H143601   2.039   6.321  11.498 -0.1899  1.8982  1.9806
 7370TIP3    H243602   1.993   6.225  11.605 -0.0785 -0.9380 -0.4391
 7371TIP3   OH243603   5.836   1.560   0.448 -0.0242 -0.5536 -0.2699
 7371TIP3    H143604   5.746   1.537   0.424 -0.0179 -1.5282  0.6189
 7371TIP3    H243605   5.829   1.591   0.539  0.0813  2.2917 -1.1864
 7372TIP3   OH243606   3.374   3.633   4.713 -0.2072  0.2170 -0.7494
 7372TIP3    H143607   3.318   3.677   4.650  0.1481  1.3548 -0.2707
 7372TIP3    H243608   3.457   3.680   4.710  0.2543 -0.5508 -0.3932
 7373TIP3   OH243609   5.806   5.940  12.131 -0.0636 -0.0071 -0.2531
 7373TIP3    H143610   5.820   5.982  12.046  0.2479  0.1759 -0.1142
 7373TIP3    H243611   5.716   5.907  12.127 -0.1550  0.2711 -0.5368
 7374TIP3   OH243612   4.602   1.466  14.177  0.3209  0.1686 -0.6613
 7374TIP3    H143613   4.508   1.449  14.174  0.8514 -3.4174  0.7033
 7374TIP3    H243614   4.621   1.513  14.096 -2.7878  1.8870 -0.4594
 7375TIP3   OH243615   3.084   3.494  10.317  0.0040 -0.2276  0.2299
 7375TIP3    H143616   3.038   3.573  10.286  1.6057  1.1049  1.1807
 7375TIP3    H243617   3.173   3.503  10.283  0.0010 -2.0495 -0.3308
 7376TIP3   OH243618   5.778   4.654  13.585  0.1468  0.4633 -0.1162
 7376TIP3    H143619   5.695   4.662  13.631  0.7657 -1.8767  1.4923
 7376TIP3    H243620   5.758   4.602  13.507  0.0809 -0.1062  0.2745
 7377TIP3   OH243621   3.041   2.320   2.086  0.1891 -0.0166 -0.6581
 7377TIP3    H143622   3.024   2.371   2.006  0.3132 -0.9188 -1.2689
 7377TIP3    H243623   3.116   2.264   2.063  2.6582  2.3646  1.3038
 7378TIP3   OH243624   3.916   5.127  10.443  0.5131  0.0424  0.4023
 7378TIP3    H143625   3.830   5.092  10.423  0.8848 -0.5655 -0.1508
 7378TIP3    H243626   3.919   5.131  10.539 -1.5646  3.6871  0.3963
 7379TIP3   OH243627   5.686   0.276  15.226 -0.3442 -0.4238 -0.1131
 7379TIP3    H143628   5.744   0.214  15.184 -0.2789 -0.3500 -0.1326
 7379TIP3    H243629   5.627   0.222  15.279  0.2409 -0.4482  0.5180
 7380TIP3   OH243630   4.311   6.258   5.422  0.2424  0.0507  0.3030
 7380TIP3    H143631   4.297   6.237   5.330  0.2489 -1.6552  0.6784
 7380TIP3    H243632   4.247   6.205   5.469  0.6298  0.4669  1.3264
 7381TIP3   OH243633   5.221   5.242  11.885 -0.0976 -0.2443 -0.3697
 7381TIP3    H143634   5.137   5.284  11.865 -0.0440  0.4997  0.8949
 7381TIP3    H243635   5.274   5.256  11.806 -0.2347  1.7064 -0.1555
 7382TIP3   OH243636   3.070   4.099  14.832  0.3804 -0.0953 -0.6441
 7382TIP3    H143637   3.008   4.139  14.770 -0.5432  0.1080  0.3805
 7382TIP3    H243638   3.092   4.015  14.793 -2.5037 -1.2731  0.1559
 7383TIP3   OH243639   2.454   6.176  16.258  0.5574 -0.7652  0.0075
 7383TIP3    H143640   2.373   6.216  16.289  0.3879 -1.2485  0.1940
 7383TIP3    H243641   2.425   6.112  16.192  0.6366 -2.2707  1.4164
 7384TIP3   OH243642   0.779   5.033   1.407 -0.0852  0.2091  0.1043
 7384TIP3    H143643   0.855   4.976   1.394 -0.0011  0.2650  0.3518
 7384TIP3    H243644   0.789   5.101   1.340 -0.7271 -0.6276 -0.8719
 7385TIP3   OH243645   0.240   3.282  12.846  0.2806 -0.1112  0.0173
 7385TIP3    H143646   0.296   3.240  12.912 -0.7460 -1.6739 -0.0693
 7385TIP3    H243647   0.151   3.256  12.871 -0.1900  0.1611 -1.3679
 7386TIP3   OH243648   6.682   4.043   1.570 -0.1428  0.1813 -0.3821
 7386TIP3    H143649   6.597   4.004   1.591 -0.2142 -0.0531 -1.0979
 7386TIP3    H243650   6.662   4.128   1.531 -0.0684 -0.1298 -1.0994
 7387TIP3   OH243651   0.984   2.927  16.564  0.4700  0.5702 -0.1089
 7387TIP3    H143652   0.956   2.938  16.474 -0.4278 -0.2338  0.0743
 7387TIP3    H243653   1.066   2.977  16.569 -0.1341  1.6865 -1.0214
 7388TIP3   OH243654   1.150   5.675   1.178 -0.4902  0.1897  0.0486
 7388TIP3    H143655   1.120   5.591   1.213  1.0685 -1.1659 -1.7543
 7388TIP3    H243656   1.075   5.710   1.130 -0.8655 -0.6107  0.0509
 7389TIP3   OH243657   5.193   1.423  15.849  0.3565 -0.1674 -0.0130
 7389TIP3    H143658   5.110   1.398  15.810 -0.9826  0.7535  2.1613
 7389TIP3    H243659   5.212   1.354  15.912 -0.7313  1.4894  2.2297
 7390TIP3   OH243660   6.269   6.608  15.083  0.3260 -0.1720 -0.5823
 7390TIP3    H143661   6.253   6.698  15.110  0.3247 -0.4008  0.1822
 7390TIP3    H243662   6.219   6.598  15.001 -2.9460 -0.6737  1.4009
 7391TIP3   OH243663   6.343   3.597   1.518 -0.4018  0.0960 -0.2914
 7391TIP3    H143664   6.332   3.590   1.423 -0.9916 -1.9324 -0.0875
 7391TIP3    H243665   6.256   3.619   1.551 -0.6089 -1.0490 -0.0577
 7392TIP3   OH243666   3.162   5.036  16.791  0.1693  0.8889 -0.2256
 7392TIP3    H143667   3.098   5.095  16.752 -1.2110 -0.0535  0.5505
 7392TIP3    H243668   3.217   5.092  16.845  1.3135  2.0238 -2.4939
 7393TIP3   OH243669   6.011   5.393  11.884  0.3277 -0.7543 -0.2289
 7393TIP3    H143670   6.037   5.353  11.801 -1.5519 -0.4923 -0.9845
 7393TIP3    H243671   5.930   5.440  11.863  0.7210  0.6911  1.3897
 7394TIP3   OH243672   6.233   1.163   3.106 -0.0561  0.4784 -0.5874
 7394TIP3    H143673   6.303   1.225   3.087  0.3549  0.5534  1.0920
 7394TIP3    H243674   6.226   1.163   3.202 -0.5760 -1.4968 -0.6069
 7395TIP3   OH243675   6.342   4.670  14.280 -0.2955  0.3713 -0.3366
 7395TIP3    H143676   6.346   4.628  14.194 -0.6713  1.7799 -1.0527
 7395TIP3    H243677   6.413   4.629  14.331  0.7841  0.4742 -1.7410
 7396TIP3   OH243678   5.520   3.834   1.365  0.1257  0.2669  0.6070
 7396TIP3    H143679   5.453   3.898   1.342  0.2433  0.1103 -0.1696
 7396TIP3    H243680   5.531   3.845   1.460 -0.5749  0.6938  0.6464
 7397TIP3   OH243681   5.561   2.623   4.032 -1.0169 -0.1460  0.4335
 7397TIP3    H143682   5.556   2.589   3.943 -2.5552  1.3288 -0.0706
 7397TIP3    H243683   5.651   2.656   4.040 -1.0593  0.2655 -0.7621
 7398TIP3   OH243684   4.284   5.011  16.366 -0.2319 -0.6227  0.3711
 7398TIP3    H143685   4.366   5.051  16.337 -0.0673 -0.7025  0.7277
 7398TIP3    H243686   4.281   4.926  16.321 -0.6307 -0.1779 -0.4601
 7399TIP3   OH243687   6.584   0.935  15.439 -0.2900 -0.2382 -0.4102
 7399TIP3    H143688   6.576   1.005  15.504  1.5240  0.5434 -1.0109
 7399TIP3    H243689   6.612   0.980  15.359 -0.4702 -1.4725 -1.1716
 7400TIP3   OH243690   5.740   6.778   6.761 -0.2367 -0.0891  0.2496
 7400TIP3    H143691   5.762   6.852   6.818  0.1148  0.3342 -0.4201
 7400TIP3    H243692   5.662   6.739   6.799 -0.6122  0.8339  0.4232
 7401TIP3   OH243693   3.499   6.804  15.810 -0.0246 -0.0665 -0.1211
 7401TIP3    H143694   3.447   6.724  15.813 -2.2950  1.3498 -0.4649
 7401TIP3    H243695   3.503   6.826  15.717  0.2683  0.4020  0.0014
 7402TIP3   OH243696   1.143   6.341  15.509 -0.3400 -0.7861  0.2478
 7402TIP3    H143697   1.165   6.249  15.523 -0.7547 -1.1769 -1.5843
 7402TIP3    H243698   1.047   6.345  15.514 -0.3009 -0.3752  0.7546
 7403TIP3   OH243699   0.310   4.188  15.093 -0.0058  0.1732 -0.3602
 7403TIP3    H143700   0.223   4.178  15.132 -0.3217  0.1210 -1.0645
 7403TIP3    H243701   0.293   4.199  15.000  0.5843  2.9593 -0.1842
 7404TIP3   OH243702   4.741   5.972  10.768  0.2278  0.6490 -0.0208
 7404TIP3    H143703   4.812   5.956  10.830  1.5268 -0.6646 -1.7857
 7404TIP3    H243704   4.756   5.908  10.698 -0.9395  2.3809 -1.9016
 7405TIP3   OH243705   3.386   0.815   0.746  0.1584 -0.2261  0.0350
 7405TIP3    H143706   3.398   0.907   0.721  1.4554 -0.1711  0.8308
 7405TIP3    H243707   3.398   0.814   0.841  2.2416 -1.5332 -0.2190
 7406TIP3   OH243708   0.909   3.088  15.106 -0.0590 -0.7662 -0.3240
 7406TIP3    H143709   0.848   3.160  15.122  1.1401  0.1384  0.2369
 7406TIP3    H243710   0.878   3.017  15.163  0.0066  0.0284  0.7078
 7407TIP3   OH243711   4.894   0.631  14.150 -0.1857  0.1768  0.5077
 7407TIP3    H143712   4.975   0.586  14.129 -0.8410 -1.0344  0.5269
 7407TIP3    H243713   4.921   0.720  14.173  0.8048  0.9282 -3.2117
 7408TIP3   OH243714   1.315   1.442   2.326 -0.5115 -0.0991  0.1020
 7408TIP3    H143715   1.248   1.378   2.348 -0.7924 -0.0588 -0.6472
 7408TIP3    H243716   1.292   1.474   2.239  0.2981  0.1464 -0.0319
 7409TIP3   OH243717   4.677   6.505  14.594 -0.1607  0.9319 -0.1730
 7409TIP3    H143718   4.622   6.555  14.654 -0.1728  0.8007 -0.0737
 7409TIP3    H243719   4.618   6.438  14.559 -0.1607  1.0254 -0.3514
 7410TIP3   OH243720   3.597   2.940  16.821 -0.0990  0.5548  0.0952
 7410TIP3    H143721   3.688   2.916  16.838  0.7538  1.1014 -3.4483
 7410TIP3    H243722   3.579   3.012  16.882  1.1651 -0.7952  2.1514
 7411TIP3   OH243723   1.138   5.019  12.475 -0.8509 -0.1541 -0.4377
 7411TIP3    H143724   1.103   5.076  12.406 -0.0505  0.2371 -0.5342
 7411TIP3    H243725   1.213   4.976  12.434 -0.6708 -0.2897  0.0387
 7412TIP3   OH243726   2.430   4.690  11.961  0.1415 -0.4559 -0.7648
 7412TIP3    H143727   2.359   4.627  11.948  1.4343 -1.9201 -0.8583
 7412TIP3    H243728   2.487   4.679  11.885 -0.8388  2.5334 -2.0112
 7413TIP3   OH243729   2.274   1.352   1.366 -0.1919 -0.3142 -0.5064
 7413TIP3    H143730   2.208   1.406   1.323 -1.3308 -2.0095 -0.9487
 7413TIP3    H243731   2.326   1.413   1.417 -1.1669  1.2480 -1.3563
 7414TIP3   OH243732   4.412   4.147  11.372 -0.3033  0.3080 -0.0249
 7414TIP3    H143733   4.472   4.073  11.371  0.0027  0.5427  0.5973
 7414TIP3    H243734   4.371   4.146  11.285  0.2174 -0.1561 -0.2680
 7415TIP3   OH243735   6.807   6.742   1.732 -0.1868  0.6123 -0.2766
 7415TIP3    H143736   6.759   6.778   1.806  0.8317  1.0684  0.1803
 7415TIP3    H243737   6.882   6.801   1.722  0.7691 -0.6031 -0.3774
 7416TIP3   OH243738   0.141   5.629  14.986  0.5592 -0.7289 -0.1200
 7416TIP3    H143739   0.071   5.690  14.961  0.0545  0.1180  3.1944
 7416TIP3    H243740   0.144   5.566  14.914 -1.3626  1.1168 -1.8982
 7417TIP3   OH243741   0.688   6.234   3.003 -0.3165  0.3833  0.4918
 7417TIP3    H143742   0.727   6.320   2.987  0.3408 -0.3557 -2.1365
 7417TIP3    H243743   0.609   6.233   2.949 -1.8720  0.3550  2.7002
 7418TIP3   OH243744   3.023   4.137  16.040 -0.1223 -0.9774 -0.4690
 7418TIP3    H143745   2.983   4.074  16.100  0.0929 -2.2138 -1.5855
 7418TIP3    H243746   3.036   4.087  15.959  1.0933  0.2010 -1.0154
 7419TIP3   OH243747   1.594   0.257  14.156 -0.2429  0.4395 -0.1202
 7419TIP3    H143748   1.634   0.221  14.235  0.4193  1.1043 -0.1488
 7419TIP3    H243749   1.502   0.232  14.163  0.1768 -1.1042 -0.0608
 7420TIP3   OH243750   3.122   5.267   1.444  0.7641 -0.1750  0.5168
 7420TIP3    H143751   3.155   5.235   1.360 -1.2924  0.3276 -0.5151
 7420TIP3    H243752   3.194   5.254   1.505  1.6540 -2.2642 -0.9366
 7421TIP3   OH243753   3.175   2.031  12.316 -0.1907  0.2557 -0.3296
 7421TIP3    H143754   3.199   2.049  12.407 -1.1446  0.2812 -0.0848
 7421TIP3    H243755   3.102   1.970  12.322  0.2911 -0.4206 -1.0950
 7422TIP3   OH243756   0.126   5.726  16.905 -0.1039  0.1103  0.4173
 7422TIP3    H143757   0.167   5.641  16.885  0.0947  0.2434  0.2486
 7422TIP3    H243758   0.122   5.729  17.000 -0.5217 -0.2840  0.4187
 7423TIP3   OH243759   4.428   1.948  13.677  0.7024  0.0335  0.0947
 7423TIP3    H143760   4.421   1.856  13.703 -1.5514  0.2167  0.2251
 7423TIP3    H243761   4.521   1.968  13.688  1.0154 -1.8643  1.2961
 7424TIP3   OH243762   4.132   1.751  16.151 -0.1396  0.1162  0.3262
 7424TIP3    H143763   4.070   1.806  16.200  1.0517  1.0430  0.8217
 7424TIP3    H243764   4.120   1.663  16.187 -2.2200 -0.0124 -0.6101
 7425TIP3   OH243765   5.625   4.030   2.551  0.4608 -0.4160 -0.6852
 7425TIP3    H143766   5.660   3.941   2.560 -2.3196 -1.6029 -1.1578
 7425TIP3    H243767   5.580   4.046   2.634 -0.9429 -0.3149 -1.4637
 7426TIP3   OH243768   3.314   0.706  11.022  0.5136  0.2722 -0.0792
 7426TIP3    H143769   3.239   0.655  10.988  1.5526 -1.1297 -0.3265
 7426TIP3    H243770   3.351   0.748  10.944 -0.3247  1.4030  0.1203
 7427TIP3   OH243771   3.298   0.944  12.540 -0.3821 -0.1019  0.6178
 7427TIP3    H143772   3.378   0.982  12.505 -1.4127 -0.5245 -2.3664
 7427TIP3    H243773   3.229   1.006  12.516 -1.3238 -1.1731  0.5125
 7428TIP3   OH243774   4.779   6.620  13.750  0.3045  0.6340  0.4735
 7428TIP3    H143775   4.766   6.715  13.746 -1.8860  0.3694  0.6125
 7428TIP3    H243776   4.751   6.596  13.838 -1.5890 -0.4519 -0.3924
 7429TIP3   OH243777   1.429   5.029  16.826 -0.5271  0.2179 -0.4053
 7429TIP3    H143778   1.466   5.039  16.913 -0.3646  0.4885 -0.5075
 7429TIP3    H243779   1.505   5.019  16.768 -0.6680 -2.0471 -0.2525
 7430TIP3   OH243780   4.892   5.737   4.620 -0.3301  0.1774 -0.0552
 7430TIP3    H143781   4.880   5.643   4.636  1.1686  0.1151  0.8394
 7430TIP3    H243782   4.959   5.763   4.683  1.7632  1.1366 -2.6198
 7431TIP3   OH243783   2.154   2.108  16.902 -0.1239  0.4218  0.1368
 7431TIP3    H143784   2.206   2.146  16.973 -1.6634  2.2540  0.3285
 7431TIP3    H243785   2.063   2.120  16.931 -0.6947 -2.2193 -0.4334
 7432TIP3   OH243786   2.918   6.218   4.118  0.5452  0.0277  0.8243
 7432TIP3    H143787   2.979   6.288   4.097 -0.5862  0.2875 -1.8455
 7432TIP3    H243788   2.907   6.170   4.036 -0.2441 -2.0602  2.1070
 7433TIP3   OH243789   1.951   1.918  13.643  0.1111  0.2717 -0.2642
 7433TIP3    H143790   1.914   1.862  13.574  1.1386 -0.3330 -0.3328
 7433TIP3    H243791   1.877   1.937  13.700 -0.6228  0.2635 -1.1970
 7434TIP3   OH243792   4.214   3.353   1.039 -0.2921  0.2328 -0.0030
 7434TIP3    H143793   4.149   3.392   1.097 -0.9678  1.0143 -1.2666
 7434TIP3    H243794   4.175   3.358   0.952  1.3004  0.3763 -0.7297
 7435TIP3   OH243795   5.482   1.563  12.708 -0.5503  0.2165  0.0940
 7435TIP3    H143796   5.481   1.632  12.641  0.1452  0.3049  0.1704
 7435TIP3    H243797   5.472   1.482  12.658 -1.8376  0.3951  0.0398
 7436TIP3   OH243798   2.051   1.979  12.179 -0.3012 -0.1357 -0.3471
 7436TIP3    H143799   1.978   2.023  12.222  0.5319 -0.5445  1.5470
 7436TIP3    H243800   2.049   1.890  12.215 -0.4764 -0.9434 -2.2848
 7437TIP3   OH243801   6.783   6.020  15.053  0.1271  0.3548  0.3001
 7437TIP3    H143802   6.795   5.995  14.962 -0.8190 -3.0136  1.0165
 7437TIP3    H243803   6.694   5.992  15.074  0.9953 -0.7439  2.7589
 7438TIP3   OH243804   5.681   2.907  14.436  0.2449 -0.9911 -0.1836
 7438TIP3    H143805   5.710   2.881  14.524 -0.5311  0.0877  0.3944
 7438TIP3    H243806   5.741   2.978  14.412 -1.7985  1.1744  0.9679
 7439TIP3   OH243807   1.940   4.457   3.998 -0.0006 -0.1216  0.1120
 7439TIP3    H143808   1.954   4.478   3.905  1.0229  1.4159  0.6052
 7439TIP3    H243809   1.887   4.530   4.031 -0.3686 -0.6744  0.7385
 7440TIP3   OH243810   2.869   0.397   2.064 -0.0209 -0.1756 -0.2820
 7440TIP3    H143811   2.881   0.368   2.154  0.8729  1.4271  0.1440
 7440TIP3    H243812   2.857   0.492   2.071 -2.7933 -0.3819 -1.6208
 7441TIP3   OH243813   2.507   0.639  14.800 -0.3235 -0.0351 -0.2214
 7441TIP3    H143814   2.526   0.579  14.728  1.9101 -0.9385  1.0847
 7441TIP3    H243815   2.572   0.708  14.792 -0.6373  0.3379  0.3954
 7442TIP3   OH243816   6.331   4.799   2.154  0.3053  0.3311 -0.3016
 7442TIP3    H143817   6.237   4.779   2.148  0.6116 -1.7428  1.2351
 7442TIP3    H243818   6.335   4.894   2.163 -1.6533  0.4142 -0.1221
 7443TIP3   OH243819   3.498   6.111   0.382  0.0835 -0.0760  0.1015
 7443TIP3    H143820   3.496   6.018   0.402  0.2407 -0.0598  0.1934
 7443TIP3    H243821   3.470   6.155   0.462 -1.8441 -0.1194 -0.5331
 7444TIP3   OH243822   1.222   0.913   1.106 -0.4085 -0.6938 -0.1207
 7444TIP3    H143823   1.225   0.852   1.032 -0.3588 -0.6824 -0.1278
 7444TIP3    H243824   1.176   0.864   1.174 -0.3693 -0.7393 -0.1266
 7445TIP3   OH243825   5.702   5.785  14.493 -0.5606 -0.1043 -0.3504
 7445TIP3    H143826   5.755   5.745  14.562  1.9978  1.5933 -1.2805
 7445TIP3    H243827   5.740   5.754  14.411 -0.6254  1.5843 -1.0519
 7446TIP3   OH243828   0.412   6.273   3.567  0.1593  0.1645 -0.1395
 7446TIP3    H143829   0.411   6.206   3.635 -1.7437  1.1833  0.8831
 7446TIP3    H243830   0.488   6.327   3.586  2.3397 -2.2430 -1.5781
 7447TIP3   OH243831   3.131   0.518  15.109  0.1654 -0.2831  0.1028
 7447TIP3    H143832   3.100   0.584  15.171  0.8251 -0.6213  0.8079
 7447TIP3    H243833   3.206   0.477  15.153 -1.3609 -2.7617  0.4465
 7448TIP3   OH243834   3.738   6.288   4.868 -0.0208 -0.5168  0.4756
 7448TIP3    H143835   3.831   6.312   4.872  0.4714 -2.1475 -0.8390
 7448TIP3    H243836   3.714   6.270   4.959  0.1242  2.8288  1.2421
 7449TIP3   OH243837   2.234   0.663  14.661 -0.3136 -0.1752  0.4327
 7449TIP3    H143838   2.142   0.641  14.674  0.2100 -2.0534  1.0736
 7449TIP3    H243839   2.281   0.610  14.726  1.1144  1.7968  1.0557
 7450TIP3   OH243840   3.170   2.836  13.703 -0.0229 -0.6975  0.0766
 7450TIP3    H143841   3.243   2.773  13.694  0.0221 -0.6416  0.0487
 7450TIP3    H243842   3.203   2.916  13.662 -0.2156 -0.7676 -0.2174
 7451TIP3   OH243843   3.636   0.670   5.476  0.0887 -0.2608 -0.1722
 7451TIP3    H143844   3.541   0.685   5.472  0.1728  0.5943  0.8320
 7451TIP3    H243845   3.647   0.607   5.548  0.4496  1.1600  1.0251
 7452TIP3   OH243846   4.592   1.642  12.124 -0.1074 -0.3847  0.2334
 7452TIP3    H143847   4.623   1.733  12.125 -0.9833 -0.0816  1.0105
 7452TIP3    H243848   4.632   1.602  12.201  0.7020 -0.8104 -0.4027
 7453TIP3   OH243849   6.072   1.928  14.347  0.2957 -0.4773 -0.2850
 7453TIP3    H143850   6.138   1.873  14.390  0.1275 -0.5596 -0.1314
 7453TIP3    H243851   5.989   1.897  14.382  0.2846  0.8150  0.8938
 7454TIP3   OH243852   2.254   2.162  16.296  0.1328  0.4021  0.1650
 7454TIP3    H143853   2.214   2.078  16.315 -1.1676  1.0342  0.2507
 7454TIP3    H243854   2.347   2.142  16.286 -0.2775 -1.2007 -0.7650
 7455TIP3   OH243855   4.783   2.213   6.340 -0.3972 -0.1491 -1.0213
 7455TIP3    H143856   4.750   2.194   6.428  0.6736 -0.4730 -0.6768
 7455TIP3    H243857   4.715   2.181   6.281 -0.7400 -0.7063 -0.3306
 7456TIP3   OH243858   1.630   1.434  16.285  0.2252 -0.7205  0.2560
 7456TIP3    H143859   1.703   1.371  16.283  0.1946 -0.7795  1.1337
 7456TIP3    H243860   1.638   1.481  16.202  1.3736 -0.6093  0.4196
 7457TIP3   OH243861   5.644   6.786  11.989 -0.5908  0.0422  0.2401
 7457TIP3    H143862   5.702   6.711  11.978  0.1102  0.4714  0.9312
 7457TIP3    H243863   5.687   6.840  12.056 -1.6672  0.4833  0.5896
 7458TIP3   OH243864   1.780   4.469  11.059  0.5107  0.0470  0.4109
 7458TIP3    H143865   1.747   4.486  10.971  1.3483 -2.2620 -0.3877
 7458TIP3    H243866   1.872   4.444  11.047  0.3947 -1.1888  1.8101
 7459TIP3   OH243867   6.246   1.674   6.065 -0.2091 -0.1975 -0.6580
 7459TIP3    H143868   6.341   1.686   6.068 -0.1388 -0.8745  0.0105
 7459TIP3    H243869   6.229   1.602   6.126 -1.2878  0.7505  0.1724
 7460TIP3   OH243870   1.919   2.375  12.983 -0.1065  0.4637  0.0825
 7460TIP3    H143871   1.944   2.383  12.891 -1.3870  1.7571 -0.1871
 7460TIP3    H243872   2.001   2.356  13.029  0.6881  0.6581 -1.2230
 7461TIP3   OH243873   4.910   0.929   4.063 -0.7110 -0.2401  0.1133
 7461TIP3    H143874   4.923   0.861   4.129 -0.9107 -0.5185 -0.1307
 7461TIP3    H243875   4.881   1.006   4.112  1.2725  0.2289  0.6030
 7462TIP3   OH243876   2.969   2.970  13.552  0.0511  0.2739  0.6719
 7462TIP3    H143877   2.951   3.045  13.609 -0.2445 -0.5128  1.6377
 7462TIP3    H243878   3.032   2.917  13.602  0.3330 -0.0695 -0.0427
 7463TIP3   OH243879   4.475   3.542  15.807  0.6071 -0.3516  0.3259
 7463TIP3    H143880   4.441   3.479  15.870 -0.1689  0.9293  1.1955
 7463TIP3    H243881   4.398   3.588  15.775  1.4152  2.2267  1.9249
 7464TIP3   OH243882   6.631   6.601   3.671  0.4605 -0.6641  0.2747
 7464TIP3    H143883   6.724   6.604   3.648  0.1786  3.7478 -0.7646
 7464TIP3    H243884   6.630   6.589   3.766  2.0030 -2.8753  0.0484
 7465TIP3   OH243885   0.380   1.017   2.013 -0.1465 -0.1392  0.1935
 7465TIP3    H143886   0.451   1.076   2.038  0.2649  0.0534 -1.3386
 7465TIP3    H243887   0.301   1.071   2.021 -0.0105 -0.0309  0.8610
 7466TIP3   OH243888   1.538   2.349  11.074  0.1394  0.0952  0.1243
 7466TIP3    H143889   1.443   2.333  11.075  0.4518 -2.0375 -0.9424
 7466TIP3    H243890   1.560   2.356  10.982  0.8482  1.9369  0.4111
 7467TIP3   OH243891   4.764   6.482  15.071 -0.5957  0.1721 -0.1287
 7467TIP3    H143892   4.719   6.563  15.096  0.3174  0.5542  0.3046
 7467TIP3    H243893   4.814   6.505  14.993 -0.1823  0.0773  0.1089
 7468TIP3   OH243894   4.319   0.462   0.870 -0.1924 -0.3063  0.3110
 7468TIP3    H143895   4.371   0.525   0.820 -2.3721  1.8916  0.7211
 7468TIP3    H243896   4.246   0.441   0.812 -2.4884  1.9123  2.2622
 7469TIP3   OH243897   6.387   3.391  15.643  0.1789 -0.3404 -0.4122
 7469TIP3    H143898   6.401   3.395  15.738  0.3412  0.0169 -0.4500
 7469TIP3    H243899   6.297   3.419  15.630  0.6355  1.1067 -0.4912
 7470TIP3   OH243900   0.087   6.817   0.340  0.4042  0.2359  0.2226
 7470TIP3    H143901   0.118   6.745   0.286 -1.5245 -0.2093 -0.3233
 7470TIP3    H243902   0.142   6.891   0.315  0.4874 -0.3332 -1.3105
 7471TIP3   OH243903   1.522   2.689   5.817 -0.0698 -0.0569  0.4650
 7471TIP3    H143904   1.463   2.682   5.893 -0.7818 -1.5427 -0.2029
 7471TIP3    H243905   1.471   2.654   5.744  0.8933  0.6283 -0.5486
 7472TIP3   OH243906   2.927   6.063   3.162  0.7500 -0.0372  0.1614
 7472TIP3    H143907   2.916   6.147   3.117 -1.1394 -0.5778 -0.4474
 7472TIP3    H243908   2.838   6.040   3.189  0.8854 -2.8932 -1.6195
 7473TIP3   OH243909   0.443   5.126  17.030 -0.9046 -0.0309  0.1393
 7473TIP3    H143910   0.458   5.220  17.026  1.2420 -0.4064 -0.9859
 7473TIP3    H243911   0.360   5.113  16.984 -2.2431  1.5061  2.0436
 7474TIP3   OH243912   2.157   4.891   5.610  0.0307 -0.2629 -0.5859
 7474TIP3    H143913   2.091   4.873   5.543 -0.6031  0.3347 -0.1292
 7474TIP3    H243914   2.173   4.805   5.651  2.6975 -1.2653 -3.5013
 7475TIP3   OH243915   0.290   0.353   2.817 -0.1039 -0.7114 -0.3568
 7475TIP3    H143916   0.242   0.273   2.796  1.3961 -1.7258  0.0276
 7475TIP3    H243917   0.382   0.332   2.800  0.4014  0.6578  0.5484
 7476TIP3   OH243918   6.123   2.778   5.402 -0.2378 -0.3457  0.0564
 7476TIP3    H143919   6.212   2.788   5.436  0.2624 -0.5025 -1.2004
 7476TIP3    H243920   6.084   2.865   5.410 -0.5294 -0.6449  2.1328
 7477TIP3   OH243921   3.643   0.184   1.923  0.0874 -0.1081  0.4879
 7477TIP3    H143922   3.710   0.138   1.873 -0.2693 -0.8306  0.6647
 7477TIP3    H243923   3.593   0.114   1.966 -1.7925  0.3345 -0.9035
 7478TIP3   OH243924   2.410   0.617  11.278  0.0259  0.3032 -0.7515
 7478TIP3    H143925   2.420   0.688  11.341  1.8828  0.0315 -0.7049
 7478TIP3    H243926   2.398   0.538  11.331 -1.1910  0.4504 -0.7916
 7479TIP3   OH243927   0.383   6.108   3.143  0.0466  0.2263  0.7333
 7479TIP3    H143928   0.391   6.167   3.068 -0.9559 -1.5077 -0.8074
 7479TIP3    H243929   0.334   6.158   3.208  0.6248  1.6460  0.1029
 7480TIP3   OH243930   2.987   5.768  14.130 -0.6365 -0.6949  0.4281
 7480TIP3    H143931   3.054   5.700  14.140 -0.8949 -1.2107 -1.1702
 7480TIP3    H243932   2.997   5.823  14.207  1.1472 -1.1916  0.5739
 7481TIP3   OH243933   6.398   6.560  16.820  0.2655 -0.0181 -0.6176
 7481TIP3    H143934   6.489   6.548  16.845 -0.2363 -0.9112  0.8166
 7481TIP3    H243935   6.350   6.559  16.902 -0.9342  1.5915 -1.2525
 7482TIP3   OH243936   3.149   3.868  13.871 -0.2075  0.1881  0.4723
 7482TIP3    H143937   3.242   3.892  13.863 -0.6999  1.9084 -0.1248
 7482TIP3    H243938   3.151   3.774  13.888  1.6325  0.0573 -0.2967
 7483TIP3   OH243939   4.013   1.416   0.077 -0.3452  0.0868 -0.0234
 7483TIP3    H143940   3.946   1.480   0.104 -3.0989 -1.4843 -2.8551
 7483TIP3    H243941   3.982   1.333   0.113 -0.1484 -0.7155 -1.6637
 7484TIP3   OH243942   1.266   3.733   4.918  0.6050 -0.2385 -0.1696
 7484TIP3    H143943   1.327   3.662   4.933  0.3819 -0.2209  0.8291
 7484TIP3    H243944   1.229   3.715   4.831  0.4294 -1.4275  0.1448
 7485TIP3   OH243945   3.146   1.484   5.098 -0.1159  0.0711  0.2110
 7485TIP3    H143946   3.158   1.567   5.053  0.4099  0.3867  0.9164
 7485TIP3    H243947   3.064   1.494   5.146 -1.3281 -0.7280 -1.6671
 7486TIP3   OH243948   6.735   6.464  11.432 -0.0844  0.5079 -0.1412
 7486TIP3    H143949   6.792   6.537  11.408 -0.9932  2.0306  2.1182
 7486TIP3    H243950   6.777   6.424  11.509 -0.1376 -0.6909 -0.7256
 7487TIP3   OH243951   0.666   0.097   6.328 -0.9542 -0.4975 -0.2996
 7487TIP3    H143952   0.698   0.078   6.416  0.4366 -3.2470 -1.3596
 7487TIP3    H243953   0.703   0.183   6.307 -0.6207 -0.1997  1.4529
 7488TIP3   OH243954   0.437   5.419  17.255 -0.3380  0.3475 -0.1019
 7488TIP3    H143955   0.442   5.365  17.333  1.7767  0.4893 -0.1076
 7488TIP3    H243956   0.365   5.382  17.204 -1.9881  0.4862  2.0582
 7489TIP3   OH243957   4.959   4.313  11.105  0.5851  0.2212  0.1609
 7489TIP3    H143958   4.962   4.230  11.152 -0.8226  0.9976  1.6691
 7489TIP3    H243959   4.967   4.288  11.013  1.9576 -1.4258  0.6790
 7490TIP3   OH243960   0.445   4.408   4.966  0.1715  0.2137  0.1354
 7490TIP3    H143961   0.490   4.339   4.915  0.8960  0.6225  0.2113
 7490TIP3    H243962   0.383   4.446   4.904  0.8817  0.5481 -0.3874
 7491TIP3   OH243963   2.261   4.386  14.991 -0.1562 -0.5793 -0.5926
 7491TIP3    H143964   2.218   4.471  15.004 -0.4071 -0.8154  0.1676
 7491TIP3    H243965   2.309   4.371  15.072 -1.3254 -1.8542 -0.1112
 7492TIP3   OH243966   6.643   2.037   3.536 -0.5280 -0.1768  0.1371
 7492TIP3    H143967   6.682   2.100   3.475 -0.1500 -0.3876  0.1588
 7492TIP3    H243968   6.582   1.987   3.482 -0.1057 -0.4405 -0.0941
 7493TIP3   OH243969   3.829   0.544  15.476 -0.0451  0.4522 -0.3699
 7493TIP3    H143970   3.735   0.526  15.484 -0.5547  2.4617 -1.5363
 7493TIP3    H243971   3.861   0.549  15.566 -1.0522 -0.2561  0.0344
 7494TIP3   OH243972   1.732   1.644  10.788 -0.3005  0.2249  0.0798
 7494TIP3    H143973   1.771   1.724  10.824  1.6357  0.0873 -1.6058
 7494TIP3    H243974   1.638   1.662  10.786 -0.0026  1.9780  0.8657
 7495TIP3   OH243975   4.898   4.601   6.017  0.0706 -0.2150  0.4543
 7495TIP3    H143976   4.875   4.644   5.935  1.2654  0.3199  0.3817
 7495TIP3    H243977   4.951   4.526   5.991  1.1635  0.4382  0.7683
 7496TIP3   OH243978   3.634   2.358   3.590  0.6234  0.1375 -1.0980
 7496TIP3    H143979   3.553   2.306   3.592  0.4479  0.4280 -0.4516
 7496TIP3    H243980   3.671   2.346   3.678 -0.1842  2.3040 -0.4356
 7497TIP3   OH243981   4.933   4.060   1.881 -0.2647  0.9404  0.1208
 7497TIP3    H143982   5.025   4.035   1.894 -0.6006 -0.4852 -0.1635
 7497TIP3    H243983   4.891   3.980   1.850 -1.2709  2.0051 -1.3501
 7498TIP3   OH243984   4.650   2.045  15.359 -0.3933  0.2606  0.3708
 7498TIP3    H143985   4.695   1.997  15.428 -0.2252 -0.4761 -0.2463
 7498TIP3    H243986   4.610   1.977  15.304 -0.0777  0.8183 -0.5562
 7499TIP3   OH243987   6.767   1.825   3.677  0.1422  0.4412 -0.0264
 7499TIP3    H143988   6.750   1.910   3.636 -2.1100  0.7796  1.4758
 7499TIP3    H243989   6.701   1.767   3.640  0.2717 -0.0990  0.5809
 7500TIP3   OH243990   4.043   3.200   3.227 -0.4155  0.0831  0.0327
 7500TIP3    H143991   4.044   3.106   3.243 -1.9012  0.2907  1.4730
 7500TIP3    H243992   4.074   3.210   3.137 -0.4341 -1.7894 -0.1918
 7501TIP3   OH243993   3.502   1.412  16.104  0.2101 -0.3260 -0.1620
 7501TIP3    H143994   3.523   1.503  16.125  0.9334  0.0480 -2.3535
 7501TIP3    H243995   3.585   1.374  16.076  0.3354 -2.2694  2.6840
 7502TIP3   OH243996   3.149   3.576  13.891 -0.1088  0.2930 -0.4171
 7502TIP3    H143997   3.236   3.554  13.924 -0.0556  0.5826 -0.3628
 7502TIP3    H243998   3.149   3.546  13.800  0.1460  0.5532 -0.5053
 7503TIP3   OH243999   4.558   6.025  12.317  0.4210  0.5841  0.3425
 7503TIP3    H144000   4.601   6.057  12.396 -0.5133  1.4516  0.5048
 7503TIP3    H244001   4.578   5.931  12.316  3.2750  1.1526 -0.2092
 7504TIP3   OH244002   4.735   1.921  14.470  0.0667  0.0961 -0.1828
 7504TIP3    H144003   4.726   1.847  14.410 -0.4215 -0.3226  0.3981
 7504TIP3    H244004   4.730   1.999  14.414  1.5165 -0.3222 -0.9054
 7505TIP3   OH244005   2.528   5.272   2.349  0.3619 -0.3299  0.6431
 7505TIP3    H144006   2.475   5.251   2.272 -0.4945 -0.8353  1.3580
 7505TIP3    H244007   2.547   5.187   2.388  0.2626 -0.0320  1.3340
 7506TIP3   OH244008   0.068   6.575  13.752 -0.0917  0.1067 -0.0279
 7506TIP3    H144009   0.082   6.599  13.844  1.6954  0.2603 -0.3297
 7506TIP3    H244010   0.089   6.482  13.748  0.2897  0.2101 -0.3837
 7507TIP3   OH244011   0.370   6.747  15.801  0.4970 -0.1592 -0.6339
 7507TIP3    H144012   0.394   6.793  15.721 -0.9858 -1.3136 -1.7766
 7507TIP3    H244013   0.282   6.713  15.783 -0.6814  1.2610  2.2222
 7508TIP3   OH244014   5.935   3.976   2.501 -0.3458  0.7955  0.1606
 7508TIP3    H144015   5.898   3.973   2.412 -1.1251  2.0553  0.4339
 7508TIP3    H244016   5.942   3.884   2.527 -0.2667  0.4242 -1.1405
 7509TIP3   OH244017   4.230   0.916  14.527  0.2209  0.1824  0.3683
 7509TIP3    H144018   4.231   0.998  14.578 -0.7653 -0.1320  0.9050
 7509TIP3    H244019   4.299   0.863  14.566 -2.1124 -1.0246  3.0429
 7510TIP3   OH244020   0.703   2.769   2.080 -0.1492  0.9352 -0.7965
 7510TIP3    H144021   0.665   2.802   1.999  1.0313  2.7972 -0.6203
 7510TIP3    H244022   0.632   2.718   2.120 -1.9927  3.0964 -1.1888
 7511TIP3   OH244023   5.226   0.087   2.662  0.1888 -0.2504  0.1104
 7511TIP3    H144024   5.198   0.112   2.574 -0.3090 -1.0999  0.0216
 7511TIP3    H244025   5.212  -0.008   2.665  0.7756 -0.3122  0.8967
 7512TIP3   OH244026   6.460   4.942   0.706  0.4994 -0.5061 -0.1681
 7512TIP3    H144027   6.382   4.924   0.759  0.9412 -2.7711 -0.2299
 7512TIP3    H244028   6.522   4.981   0.767 -0.8567  1.8243 -0.2425
 7513TIP3   OH244029   4.267   1.530   3.760 -0.5314 -0.1305 -0.2283
 7513TIP3    H144030   4.299   1.599   3.819 -3.0376 -0.3951  1.5144
 7513TIP3    H244031   4.304   1.449   3.796  0.6555  0.0568 -1.0062
 7514TIP3   OH244032   2.479   3.176  15.342  0.2422  0.5714  0.5943
 7514TIP3    H144033   2.515   3.249  15.392 -1.5545  0.5157  2.0599
 7514TIP3    H244034   2.448   3.115  15.410  0.4290 -0.8825 -0.6067
 7515TIP3   OH244035   3.726   5.912  13.381 -0.2969 -0.0013 -0.3484
 7515TIP3    H144036   3.715   5.835  13.437 -2.9843 -1.1810 -2.4000
 7515TIP3    H244037   3.694   5.985  13.435  0.8682 -0.5052  1.0683
 7516TIP3   OH244038   6.119   1.833  11.981  0.0711  0.0811 -0.3892
 7516TIP3    H144039   6.128   1.811  11.889 -0.5913 -2.0925  0.0417
 7516TIP3    H244040   6.029   1.808  12.003  1.0068 -1.7632  1.4553
 7517TIP3   OH244041   3.318   1.385  11.633 -0.3264 -0.0419 -0.1831
 7517TIP3    H144042   3.382   1.456  11.626 -0.9829  0.5972  0.2025
 7517TIP3    H244043   3.233   1.429  11.632 -0.8012 -0.9702 -1.8106
 7518TIP3   OH244044   4.296   2.062   2.310  0.1297  0.6772 -0.2916
 7518TIP3    H144045   4.238   2.027   2.243  0.5785 -0.1725 -0.2403
 7518TIP3    H244046   4.256   2.035   2.393  0.5532  0.1398 -0.2550
 7519TIP3   OH244047   6.332   5.638  12.889 -0.1216 -0.5867  0.0362
 7519TIP3    H144048   6.267   5.678  12.946 -0.4085  0.6498 -1.1080
 7519TIP3    H244049   6.330   5.692  12.809  3.6959  0.7560  0.7219
 7520TIP3   OH244050   2.097   2.526   4.486  0.1330  0.4374  0.0138
 7520TIP3    H144051   2.122   2.617   4.472  1.6299  0.2221  1.1210
 7520TIP3    H244052   2.133   2.479   4.411 -0.2824  0.6853 -0.3448
 7521TIP3   OH244053   4.371   3.739  10.641 -0.0465 -0.5804  0.3816
 7521TIP3    H144054   4.400   3.813  10.695  0.6646 -0.9391  0.4964
 7521TIP3    H244055   4.440   3.729  10.576 -0.5066 -0.6756 -0.0983
 7522TIP3   OH244056   3.584   5.111   1.435 -0.1107  0.4969 -1.0196
 7522TIP3    H144057   3.544   5.191   1.470  0.8437 -0.3430  2.1619
 7522TIP3    H244058   3.519   5.043   1.451 -0.2408  0.3215 -2.2251
 7523TIP3   OH244059   2.049   2.792   5.012 -0.3432 -0.8784  0.3163
 7523TIP3    H144060   2.106   2.859   4.974  1.4091 -1.9861  0.9901
 7523TIP3    H244061   2.020   2.740   4.938 -1.8343  0.6870 -0.2360
 7524TIP3   OH244062   5.437   4.385   0.753 -0.1555  0.2906  0.2603
 7524TIP3    H144063   5.360   4.418   0.799 -1.3606 -3.6017  1.1928
 7524TIP3    H244064   5.403   4.354   0.669  0.4845 -0.7639  0.3794
 7525TIP3   OH244065   4.626   5.029  15.738  0.2528 -0.3398  0.5204
 7525TIP3    H144066   4.601   5.041  15.646 -0.1860 -0.8687  0.5669
 7525TIP3    H244067   4.588   5.105  15.783 -0.6087 -0.7291  0.4607
 7526TIP3   OH244068   3.788   5.877  16.481 -0.4684  0.6430 -0.2075
 7526TIP3    H144069   3.872   5.843  16.512 -0.0134  1.0931 -0.9146
 7526TIP3    H244070   3.809   5.915  16.395 -1.4736  0.4006 -0.5587
 7527TIP3   OH244071   4.843   3.338  15.726 -0.2772 -0.4013 -0.1991
 7527TIP3    H144072   4.919   3.316  15.673  0.0268 -1.5354  0.6989
 7527TIP3    H244073   4.771   3.346  15.663  0.3600 -0.4090 -0.9257
 7528TIP3   OH244074   0.796   3.716  15.677  1.2723  0.0571  0.3772
 7528TIP3    H144075   0.836   3.732  15.592 -1.2720  0.9755 -0.7124
 7528TIP3    H244076   0.869   3.718  15.739  2.6929  3.8058 -1.2382
 7529TIP3   OH244077   4.008   0.825  14.729  0.5815  1.0314  0.1124
 7529TIP3    H144078   3.917   0.802  14.709  0.6298 -0.6390  1.7381
 7529TIP3    H244079   4.028   0.895  14.667 -1.4816  0.7308 -0.9603
 7530TIP3   OH244080   1.810   3.255  17.134  0.1757  0.4081 -0.5934
 7530TIP3    H144081   1.716   3.255  17.120  0.2125  0.5464 -0.8358
 7530TIP3    H244082   1.821   3.268  17.228 -0.1000 -1.5846 -0.2578
 7531TIP3   OH244083   2.995   0.471  11.176  0.1643 -0.1904 -0.5864
 7531TIP3    H144084   2.938   0.396  11.194 -1.5346  1.5125  1.3615
 7531TIP3    H244085   2.961   0.506  11.093 -0.7146 -0.0354 -0.1706
 7532TIP3   OH244086   1.328   2.324  16.238  0.1470 -0.2568  0.0413
 7532TIP3    H144087   1.417   2.296  16.217  0.2262 -0.5667  0.7632
 7532TIP3    H244088   1.337   2.379  16.315 -0.1151  1.0635 -0.8610
 7533TIP3   OH244089   2.175   6.298   0.707  0.5887  0.0475 -0.3021
 7533TIP3    H144090   2.200   6.365   0.644 -2.2601  1.0433 -0.4461
 7533TIP3    H244091   2.084   6.276   0.685  0.5995 -1.9155  1.4275
 7534TIP3   OH244092   5.384   4.711   0.828 -0.1395 -0.8204 -0.3922
 7534TIP3    H144093   5.434   4.755   0.897  1.8439  0.7098 -2.7179
 7534TIP3    H244094   5.345   4.635   0.871  0.7546  0.2918  2.4785
 7535TIP3   OH244095   4.191   4.425   6.426  0.3967 -0.3532  0.3847
 7535TIP3    H144096   4.201   4.415   6.332 -2.7264  0.5288 -0.1008
 7535TIP3    H244097   4.099   4.406   6.443  1.0755 -1.2894  3.3883
 7536TIP3   OH244098   2.600   5.417  15.389 -0.1951 -0.3537  0.3566
 7536TIP3    H144099   2.505   5.421  15.400 -0.0540  0.1529  1.4633
 7536TIP3    H244100   2.635   5.469  15.461  0.8936  0.6150 -0.8635
 7537TIP3   OH244101   4.337   0.035   1.370 -0.7339  0.2705  0.1310
 7537TIP3    H144102   4.430   0.053   1.377 -0.7657  0.3042  0.4752
 7537TIP3    H244103   4.323   0.016   1.278 -0.3409  0.0113  0.1249
 7538TIP3   OH244104   5.796   3.587  13.658  0.5291  0.1326 -0.1039
 7538TIP3    H144105   5.763   3.506  13.621  0.4396  0.8108 -1.5248
 7538TIP3    H244106   5.795   3.649  13.586  1.9876  1.0072  0.6097
 7539TIP3   OH244107   0.975   0.285   1.063  0.2913  0.2683  0.5755
 7539TIP3    H144108   1.058   0.247   1.034 -0.2623  0.4034 -1.2877
 7539TIP3    H244109   1.000   0.357   1.121  1.3820 -1.7350  2.6776
 7540TIP3   OH244110   3.453   1.454  12.472  0.1043 -0.0231 -0.1827
 7540TIP3    H144111   3.502   1.409  12.540  2.0299  0.6128 -1.1140
 7540TIP3    H244112   3.516   1.464  12.400 -1.2632  1.1991 -1.2354
 7541TIP3   OH244113   1.130   4.737   4.591  0.4618 -0.3448 -0.5630
 7541TIP3    H144114   1.205   4.724   4.533  2.0884 -1.5284  1.7150
 7541TIP3    H244115   1.053   4.718   4.537  1.8639 -0.5011 -2.5415
 7542TIP3   OH244116   2.934   2.718   1.814  0.1156 -0.1938 -0.7932
 7542TIP3    H144117   2.885   2.707   1.895 -0.5780  0.5337 -1.1145
 7542TIP3    H244118   2.900   2.798   1.775 -1.8907 -2.2228 -3.4286
 7543TIP3   OH244119   6.700   6.400  13.491  0.2390 -0.1996 -0.1211
 7543TIP3    H144120   6.775   6.362  13.536 -0.2121 -0.4057  0.4622
 7543TIP3    H244121   6.627   6.341  13.511  0.2462 -0.8815 -1.9847
 7544TIP3   OH244122   4.821   0.734  11.957  0.6478 -0.0554  0.1095
 7544TIP3    H144123   4.758   0.743  11.886  0.0256  0.1141  0.6813
 7544TIP3    H244124   4.886   0.802  11.940  0.5853 -0.1128 -0.3759
 7545TIP3   OH244125   0.456   1.999   0.544 -0.1050 -0.9634 -0.1911
 7545TIP3    H144126   0.412   2.038   0.620  2.2033 -0.7490  1.0885
 7545TIP3    H244127   0.448   2.065   0.476 -0.2586 -0.2102  0.5407
 7546TIP3   OH244128   5.961   3.950   1.285  0.1444 -0.5793  0.1301
 7546TIP3    H144129   5.880   3.907   1.257 -0.2429  0.8951 -1.0857
 7546TIP3    H244130   5.933   4.021   1.342  0.7168 -1.2873  1.3039
 7547TIP3   OH244131   1.861   6.340   0.065 -0.0274  0.2627  0.2696
 7547TIP3    H144132   1.908   6.257   0.049 -0.5933 -0.0557  0.2477
 7547TIP3    H244133   1.851   6.378  -0.022 -1.2368 -0.4520  0.0818
 7548TIP3   OH244134   5.017   5.513  14.245  0.3100  0.2797  0.8969
 7548TIP3    H144135   4.948   5.579  14.245  2.0238  2.0968  0.2357
 7548TIP3    H244136   5.074   5.537  14.318 -0.2316 -1.7656  2.0416
 7549TIP3   OH244137   3.512   3.423   1.004 -0.2885 -0.0269  0.1993
 7549TIP3    H144138   3.595   3.414   0.957 -0.7492  1.0427 -0.8628
 7549TIP3    H244139   3.510   3.515   1.031  0.0558 -0.6788  2.5229
 7550TIP3   OH244140   2.100   4.756  14.692  0.0962 -0.3100 -0.1218
 7550TIP3    H144141   2.165   4.723  14.630  0.2308 -0.5043  0.1206
 7550TIP3    H244142   2.048   4.819  14.642  1.3965  0.9496  0.0635
 7551TIP3   OH244143   1.314   1.199   3.799  0.1079  0.2018  0.0080
 7551TIP3    H144144   1.264   1.120   3.783 -1.8759  1.0780  1.6569
 7551TIP3    H244145   1.394   1.169   3.843  0.2024 -1.0326 -1.0063
 7552TIP3   OH244146   3.802   2.748  12.689 -0.0046  0.8301 -0.0327
 7552TIP3    H144147   3.776   2.677  12.630  0.5062  0.9084 -0.3494
 7552TIP3    H244148   3.727   2.808  12.688  0.2259  1.1069 -1.0234
 7553TIP3   OH244149   6.641   4.125   5.596  0.1093  0.6916 -1.0604
 7553TIP3    H144150   6.647   4.208   5.548  0.4059  1.1554 -0.2466
 7553TIP3    H244151   6.682   4.144   5.681  1.0127 -0.5486 -1.2056
 7554TIP3   OH244152   0.753   3.882  11.415 -0.7318  0.4047  0.9604
 7554TIP3    H144153   0.715   3.942  11.351  0.4927  1.1660  0.9215
 7554TIP3    H244154   0.843   3.914  11.426  0.4148 -2.2825 -0.1500
 7555TIP3   OH244155   6.652   2.724  16.611  0.1715 -0.0819  0.1762
 7555TIP3    H144156   6.664   2.817  16.630 -1.1736  0.1602 -0.1007
 7555TIP3    H244157   6.584   2.695  16.672 -1.1975 -0.2722 -1.4002
 7556TIP3   OH244158   5.414   3.251  17.114 -0.4170 -0.0838  0.2651
 7556TIP3    H144159   5.502   3.263  17.149 -0.5654 -1.0502  0.9945
 7556TIP3    H244160   5.385   3.340  17.091  0.4538  0.3303  0.7313
 7557TIP3   OH244161   2.843   1.182  12.778 -0.3107  0.6701 -0.2335
 7557TIP3    H144162   2.934   1.163  12.800 -0.2586  1.4751  0.2755
 7557TIP3    H244163   2.848   1.241  12.703 -0.4316  0.2678 -0.5635
 7558TIP3   OH244164   5.676   6.066   4.853 -0.3784 -0.3794 -0.4055
 7558TIP3    H144165   5.747   6.004   4.869 -1.7465 -1.9714 -0.3575
 7558TIP3    H244166   5.645   6.044   4.765 -1.7745 -0.6925  0.1555
 7559TIP3   OH244167   5.095   4.199   2.826 -0.0034  0.4203  0.2155
 7559TIP3    H144168   5.154   4.133   2.790 -0.1355 -0.0293  0.8175
 7559TIP3    H244169   5.148   4.246   2.891 -0.4848 -0.4124  1.2286
 7560TIP3   OH244170   3.199   2.827   0.879 -0.3237  0.2448  0.2228
 7560TIP3    H144171   3.135   2.867   0.820  1.3795  1.7967 -0.6202
 7560TIP3    H244172   3.205   2.736   0.850  0.8400  1.1017 -2.3610
 7561TIP3   OH244173   3.115   4.446  11.771  0.2940 -0.2808  0.2541
 7561TIP3    H144174   3.086   4.455  11.680  1.1168  0.2260  0.0378
 7561TIP3    H244175   3.185   4.511  11.781 -0.1905  0.0875  1.4226
 7562TIP3   OH244176   6.283   4.109  14.948  0.5293  0.3467 -0.0433
 7562TIP3    H144177   6.221   4.057  15.000  0.4258  1.1445  0.6478
 7562TIP3    H244178   6.324   4.167  15.012  0.9726  0.7974 -0.7347
 7563TIP3   OH244179   0.448   4.874  16.899  0.0568 -0.6854 -0.1355
 7563TIP3    H144180   0.366   4.917  16.874  0.8857  0.5055 -0.8850
 7563TIP3    H244181   0.479   4.924  16.974 -0.3930 -1.7656  0.7914
 7564TIP3   OH244182   0.023   0.265   2.506  0.2375 -0.1067  0.4353
 7564TIP3    H144183  -0.048   0.212   2.541  1.3048 -1.4974  0.5368
 7564TIP3    H244184   0.091   0.262   2.573  1.0609 -0.1941 -0.3943
 7565TIP3   OH244185   6.678   6.441   4.712 -0.5666  0.3383 -0.2080
 7565TIP3    H144186   6.756   6.401   4.674 -1.8659 -1.1834 -1.3205
 7565TIP3    H244187   6.667   6.397   4.796  0.6298  1.6484  0.6657
 7566TIP3   OH244188   2.543   6.459   3.283  0.2322  0.1757 -0.2455
 7566TIP3    H144189   2.470   6.440   3.341  1.0380 -1.0388  0.3872
 7566TIP3    H244190   2.569   6.549   3.305  0.3789 -0.1893  1.0921
 7567TIP3   OH244191   1.176   3.740   2.732  0.2397 -0.0052  0.1339
 7567TIP3    H144192   1.182   3.835   2.716  2.2621  0.0280  0.9336
 7567TIP3    H244193   1.123   3.733   2.811  0.6784  0.4921  0.4768
 7568TIP3   OH244194   1.771   0.478  16.951  0.1502 -0.0323  0.2125
 7568TIP3    H144195   1.761   0.544  17.020 -1.7086  1.1519 -1.1634
 7568TIP3    H244196   1.827   0.520  16.886 -0.7514  0.0756 -0.4997
 7569TIP3   OH244197   4.943   0.882  14.300 -0.4884 -0.2188  0.2098
 7569TIP3    H144198   4.937   0.944  14.227 -0.3176 -0.3579  0.0784
 7569TIP3    H244199   4.995   0.928  14.367  1.9509 -1.2111 -0.9239
 7570TIP3   OH244200   6.442   6.706   5.805  0.0019 -0.2075 -0.1194
 7570TIP3    H144201   6.498   6.738   5.876 -1.0332  1.0943  0.1256
 7570TIP3    H244202   6.442   6.611   5.817 -1.1447  0.0519  2.4094
 7571TIP3   OH244203   5.396   3.631  16.227  0.3745 -0.0933 -0.1850
 7571TIP3    H144204   5.413   3.569  16.297  0.9688  0.8195  0.4881
 7571TIP3    H244205   5.465   3.616  16.163  0.8378  0.2389  0.2328
 7572TIP3   OH244206   2.668   1.720   4.580 -0.1453 -0.1170 -0.6018
 7572TIP3    H144207   2.748   1.701   4.530  0.4843  0.6843  0.0943
 7572TIP3    H244208   2.657   1.815   4.573 -0.8071 -0.1692 -0.3420
 7573TIP3   OH244209   4.653   4.679   3.490 -0.0119  0.6721 -0.1857
 7573TIP3    H144210   4.611   4.594   3.496 -1.8470  1.3464 -2.8183
 7573TIP3    H244211   4.725   4.666   3.428  1.1046  0.5590  1.0853
 7574TIP3   OH244212   0.944   5.890   4.326 -0.0600 -1.1439  0.1602
 7574TIP3    H144213   1.032   5.928   4.333 -0.1909 -0.7505 -0.3660
 7574TIP3    H244214   0.885   5.965   4.333 -0.3498 -1.3765  0.2145
 7575TIP3   OH244215   5.142   1.365   1.162  0.2082 -0.3382  0.0405
 7575TIP3    H144216   5.132   1.447   1.114 -0.6219 -0.9915 -0.9198
 7575TIP3    H244217   5.148   1.298   1.094 -0.5009 -1.2331  0.8415
 7576TIP3   OH244218   2.091   0.915   3.651  0.5190  0.7584 -0.0382
 7576TIP3    H144219   1.996   0.929   3.646  0.6797  1.5233 -0.9997
 7576TIP3    H244220   2.119   0.968   3.726 -0.0134 -0.6167  1.1617
 7577TIP3   OH244221   3.605   2.243  12.291 -0.0498 -0.2758  0.1151
 7577TIP3    H144222   3.559   2.322  12.260  0.3711 -0.1512 -0.1882
 7577TIP3    H244223   3.609   2.254  12.386 -1.0235 -0.4856  0.1929
 7578TIP3   OH244224   3.260   4.027   2.512  0.8540 -0.1083  0.0149
 7578TIP3    H144225   3.211   3.961   2.560  0.7075  0.6067  0.8532
 7578TIP3    H244226   3.200   4.057   2.444 -0.7703  2.4652  2.4923
 7579TIP3   OH244227   3.582   5.899   5.152  0.6724 -0.2879  0.1577
 7579TIP3    H144228   3.622   5.922   5.236 -1.2430  1.9002  0.4987
 7579TIP3    H244229   3.494   5.870   5.174 -0.4075  1.8264 -1.1960
 7580TIP3   OH244230   5.001   5.526   2.623 -0.1725 -0.3377  0.1674
 7580TIP3    H144231   4.916   5.488   2.647  0.1214 -0.0334  1.7778
 7580TIP3    H244232   5.064   5.459   2.649  0.2699  0.7120  1.9174
 7581TIP3   OH244233   5.194   5.233   5.858 -0.5313  0.0105  0.4808
 7581TIP3    H144234   5.098   5.228   5.853 -0.6098  2.2232 -1.3687
 7581TIP3    H244235   5.211   5.294   5.929 -0.5026 -0.3187  0.7548
 7582TIP3   OH244236   6.557   2.311   3.730 -0.3767  0.5300 -0.2101
 7582TIP3    H144237   6.504   2.232   3.726  1.2493 -0.6616  0.7972
 7582TIP3    H244238   6.567   2.328   3.824  2.4665 -0.3369 -0.3029
 7583TIP3   OH244239   6.444   5.508  13.981  0.3775  0.1751  0.2099
 7583TIP3    H144240   6.443   5.595  13.940 -1.2758 -0.0603 -0.3165
 7583TIP3    H244241   6.536   5.485  13.988  0.7747  1.2732 -1.1744
 7584TIP3   OH244242   4.744   0.571   6.082  0.0552  0.1473 -0.2698
 7584TIP3    H144243   4.649   0.559   6.076  0.3095 -1.6220 -0.9846
 7584TIP3    H244244   4.774   0.497   6.134  1.0995  0.5391 -0.3080
 7585TIP3   OH244245   4.902   0.722   0.319  0.2079  0.1289 -0.3062
 7585TIP3    H144246   4.906   0.762   0.406  0.2324 -1.1722  0.2961
 7585TIP3    H244247   4.994   0.707   0.296  0.2073  0.6067 -0.6175
 7586TIP3   OH244248   6.688   1.941   7.232 -0.0440  0.0858 -0.5358
 7586TIP3    H144249   6.642   2.024   7.218 -0.9396 -0.3103  0.0761
 7586TIP3    H244250   6.648   1.880   7.170  0.0670 -0.1023 -0.4235
 7587TIP3   OH244251   3.858   1.586  16.091 -0.9000 -0.2099 -0.0658
 7587TIP3    H144252   3.938   1.539  16.114  0.2537  1.5567 -0.3964
 7587TIP3    H244253   3.877   1.626  16.006 -1.8947  0.7809  0.1662
 7588TIP3   OH244254   0.151   1.974   2.935 -0.0512  0.1493 -1.1877
 7588TIP3    H144255   0.245   1.987   2.945  0.1432 -1.9193  0.1122
 7588TIP3    H244256   0.142   1.908   2.866 -0.4395 -0.7500 -0.3047
 7589TIP3   OH244257   1.585   0.223  17.104 -0.4750 -0.0630 -0.4146
 7589TIP3    H144258   1.610   0.315  17.097 -0.1981  0.0673  1.9425
 7589TIP3    H244259   1.653   0.176  17.055 -0.5463  0.9772 -1.5131
 7590TIP3   OH244260   1.263   1.689   2.020  0.5098  0.2363 -0.4408
 7590TIP3    H144261   1.183   1.726   2.055  0.0748 -0.2608 -0.8890
 7590TIP3    H244262   1.261   1.597   2.047  1.0042  0.2586 -0.3196
 7591TIP3   OH244263   6.670   6.266   0.682  0.4394 -0.7281  0.2642
 7591TIP3    H144264   6.644   6.232   0.596 -0.2251 -1.1809  0.6410
 7591TIP3    H244265   6.724   6.198   0.720 -0.6019 -1.2212  0.8728
 7592TIP3   OH244266   4.989   4.744   1.946 -0.0291 -0.2874 -0.2745
 7592TIP3    H144267   4.968   4.819   2.002  0.9165 -1.9289  2.3716
 7592TIP3    H244268   4.945   4.670   1.988  1.3839 -1.6945 -1.2181
 7593TIP3   OH244269   0.862   6.257   3.809 -0.3278 -0.5634 -0.0281
 7593TIP3    H144270   0.835   6.338   3.852 -1.6530 -0.0616 -1.7175
 7593TIP3    H244271   0.956   6.268   3.795 -0.3055  0.2301  0.6946
 7594TIP3   OH244272   0.503   0.215  12.461  0.3119 -0.6071 -0.2354
 7594TIP3    H144273   0.418   0.258  12.468 -0.1754 -1.3178 -1.6020
 7594TIP3    H244274   0.564   0.272  12.509 -1.0745 -0.5056  1.4418
 7595TIP3   OH244275   0.767   4.904  14.311  0.0695 -0.3847  0.0751
 7595TIP3    H144276   0.840   4.909  14.371 -0.6452 -0.3064  0.9517
 7595TIP3    H244277   0.691   4.931  14.363 -0.5560 -0.3260 -0.8522
 7596TIP3   OH244278   5.075   3.480   6.775 -0.2296  0.4191 -0.2210
 7596TIP3    H144279   5.088   3.386   6.763 -0.1894 -0.0086  2.6198
 7596TIP3    H244280   5.092   3.518   6.690 -0.8421 -2.2205 -1.5790
 7597TIP3   OH244281   1.811   5.378  17.009  0.3326  0.3648  0.5426
 7597TIP3    H144282   1.786   5.450  17.068 -2.9489 -0.7592  0.6047
 7597TIP3    H244283   1.785   5.299  17.056  2.4067 -0.8180 -0.2445
 7598TIP3   OH244284   3.354   5.042   2.079 -0.3328  0.1210 -0.0368
 7598TIP3    H144285   3.411   5.040   2.156 -1.2595 -1.1788  0.6372
 7598TIP3    H244286   3.409   5.006   2.008 -0.0308 -0.2760  0.3962
 7599TIP3   OH244287   0.744   5.453  15.900 -0.5593  0.6255  0.2362
 7599TIP3    H144288   0.676   5.395  15.936 -0.9144 -0.1261 -1.6056
 7599TIP3    H244289   0.816   5.394  15.880 -1.0855  0.7423 -2.0682
 7600TIP3   OH244290   2.880   6.173   0.371 -1.1414  0.4182  0.0542
 7600TIP3    H144291   2.901   6.141   0.283  0.6176 -0.5906  0.8134
 7600TIP3    H244292   2.908   6.265   0.370 -0.8817  0.3360 -0.3537
 7601TIP3   OH244293   2.051   3.139  14.988 -0.1331 -0.0581  0.0066
 7601TIP3    H144294   2.117   3.165  15.052 -0.6184  2.3840 -0.4288
 7601TIP3    H244295   2.097   3.142  14.904 -0.2455 -0.3588 -0.0648
 7602TIP3   OH244296   1.227   6.125  16.668  0.1731 -0.2843  0.4208
 7602TIP3    H144297   1.283   6.106  16.743  0.5352  1.8913  0.7447
 7602TIP3    H244298   1.147   6.160  16.707 -0.0787 -0.1922 -0.1746
 7603TIP3   OH244299   1.296   2.161  12.575  0.2060  0.4289  0.4670
 7603TIP3    H144300   1.381   2.163  12.531  0.0275 -2.6400 -0.1478
 7603TIP3    H244301   1.234   2.143  12.504 -0.5600 -0.5252  1.3686
 7604TIP3   OH244302   5.401   0.777   4.100 -0.6862  0.1896  0.2212
 7604TIP3    H144303   5.336   0.770   4.030 -1.2322 -0.4059  0.7836
 7604TIP3    H244304   5.405   0.871   4.121 -0.7331  0.3305 -0.3999
 7605TIP3   OH244305   3.077   0.686   6.635 -0.7320 -0.3863 -0.6062
 7605TIP3    H144306   3.156   0.636   6.612 -0.6358 -1.5471  1.9936
 7605TIP3    H244307   3.014   0.619   6.662 -1.8283  0.6886 -0.4570
 7606TIP3   OH244308   2.168   2.364  14.977 -0.1707 -0.1923  0.2826
 7606TIP3    H144309   2.133   2.281  15.009 -0.9603 -0.4825 -1.2836
 7606TIP3    H244310   2.254   2.343  14.941 -0.8419 -0.5701 -1.1528
 7607TIP3   OH244311   4.673   1.256   2.460  0.0888 -0.0008  0.2854
 7607TIP3    H144312   4.700   1.333   2.511  2.3696 -0.7585  0.2545
 7607TIP3    H244313   4.720   1.265   2.377  2.2778 -2.6219  1.1684
 7608TIP3   OH244314   5.953   2.143  13.699  0.0911 -0.1597 -0.4640
 7608TIP3    H144315   5.908   2.085  13.637 -0.2608 -0.3242 -0.0581
 7608TIP3    H244316   5.891   2.214  13.715 -0.2569 -0.6712  0.5202
 7609TIP3   OH244317   6.330   5.125   4.451 -0.1256  0.1799 -0.0507
 7609TIP3    H144318   6.277   5.204   4.461 -1.1158 -0.5299  0.3158
 7609TIP3    H244319   6.268   5.057   4.425  0.3492 -1.0215  1.9258
 7610TIP3   OH244320   3.532   6.810  13.402  0.2771 -0.6308 -0.4296
 7610TIP3    H144321   3.609   6.757  13.424  1.5464  0.8741 -1.1784
 7610TIP3    H244322   3.486   6.822  13.485  0.7586 -1.6525  0.0004
 7611TIP3   OH244323   0.307   4.636  13.662 -0.2235 -0.0625  0.0772
 7611TIP3    H144324   0.372   4.571  13.689  0.6477  1.4292  1.6572
 7611TIP3    H244325   0.358   4.715  13.645 -1.6889  1.3261  1.9847
 7612TIP3   OH244326   5.878   5.030  16.159 -0.2925  0.5840  0.5493
 7612TIP3    H144327   5.852   4.963  16.223 -2.6666 -0.7005 -1.6208
 7612TIP3    H244328   5.804   5.091  16.157 -0.2256  0.6377 -0.8845
 7613TIP3   OH244329   6.315   3.439  16.577  0.2767 -0.4634  1.0148
 7613TIP3    H144330   6.289   3.462  16.488  0.5879 -0.0224  1.0345
 7613TIP3    H244331   6.284   3.349  16.588 -0.6555 -0.1784  0.8126
 7614TIP3   OH244332   0.860   5.291   3.580  0.2672 -0.1926 -0.3846
 7614TIP3    H144333   0.890   5.337   3.502 -0.7210  1.5099  0.2176
 7614TIP3    H244334   0.928   5.306   3.645 -0.4941  1.2329  0.0983
 7615TIP3   OH244335   5.578   0.490  13.099 -0.8720  0.2967 -0.4980
 7615TIP3    H144336   5.605   0.559  13.039 -3.0966 -0.6539 -2.6720
 7615TIP3    H244337   5.659   0.451  13.130  0.3248  1.2316 -2.3956
 7616TIP3   OH244338   0.142   1.123  12.534  0.2614  0.1472 -0.1330
 7616TIP3    H144339   0.074   1.180  12.498  0.5087  0.3678 -0.2533
 7616TIP3    H244340   0.099   1.038  12.547  0.3669 -0.1795 -1.7312
 7617TIP3   OH244341   1.073   5.037  15.842  0.7976  0.5368  0.4175
 7617TIP3    H144342   1.000   5.087  15.805  0.8033 -0.7779 -1.4675
 7617TIP3    H244343   1.142   5.102  15.856  0.8114  1.0979 -1.9934
 7618TIP3   OH244344   4.720   3.351   0.296  0.1539 -0.1826  0.5280
 7618TIP3    H144345   4.682   3.430   0.335  0.5425  0.9856 -1.3924
 7618TIP3    H244346   4.670   3.338   0.215  1.8861 -0.3311 -0.5348
 7619TIP3   OH244347   0.742   3.891  13.194 -0.1758  0.0629 -0.2919
 7619TIP3    H144348   0.769   3.949  13.123 -0.3608  1.9329  1.1285
 7619TIP3    H244349   0.647   3.886  13.185 -0.3619  1.4899  0.6784
 7620TIP3   OH244350   1.464   2.987   3.652 -0.3463  0.1524 -0.4059
 7620TIP3    H144351   1.555   3.002   3.678 -1.0991 -0.2680  2.6770
 7620TIP3    H244352   1.445   3.058   3.591  2.2481 -0.1739 -1.6651
 7621TIP3   OH244353   1.588   2.015   6.240  0.2593 -0.5864  0.5814
 7621TIP3    H144354   1.582   2.063   6.322  2.8868  1.0443 -0.0932
 7621TIP3    H244355   1.630   1.932   6.264 -0.9361 -1.0337  1.1823
 7622TIP3   OH244356   3.250   3.089  13.677  0.0343 -0.4262  0.1744
 7622TIP3    H144357   3.308   3.098  13.753 -0.8169 -1.5108  0.9717
 7622TIP3    H244358   3.178   3.148  13.695 -0.2338 -0.7826  0.2856
 7623TIP3   OH244359   4.055   3.362  10.858  0.3853 -0.0556 -0.0375
 7623TIP3    H144360   4.067   3.268  10.844  0.5863 -0.1241  0.5738
 7623TIP3    H244361   4.108   3.404  10.791 -0.3864 -0.3801 -0.8664
 7624TIP3   OH244362   3.114   1.641  14.705 -0.2124 -0.5396  0.2595
 7624TIP3    H144363   3.139   1.733  14.690 -2.0320 -0.1516 -0.5710
 7624TIP3    H244364   3.132   1.598  14.622 -1.6463 -0.3868 -0.1495
 7625TIP3   OH244365   0.534   2.551  16.287  0.3556 -0.0088 -0.3422
 7625TIP3    H144366   0.495   2.639  16.286  2.8913  1.1533 -1.6332
 7625TIP3    H244367   0.475   2.497  16.235 -0.8888  1.0844 -0.0796
 7626TIP3   OH244368   0.328   1.095  11.788  0.5723  0.5439 -0.1017
 7626TIP3    H144369   0.304   1.088  11.880 -0.6015  1.9825 -0.2822
 7626TIP3    H244370   0.366   1.183  11.780 -1.4749  1.3397 -1.4444
 7627TIP3   OH244371   1.708   0.917  11.569 -0.2359 -0.4144 -0.6882
 7627TIP3    H144372   1.679   1.003  11.537  0.9920  0.7420  1.1992
 7627TIP3    H244373   1.646   0.895  11.638  1.0752  0.2755  0.7356
 7628TIP3   OH244374   5.285   2.179  17.233  0.0179 -0.3673 -0.5810
 7628TIP3    H144375   5.218   2.239  17.199 -0.3193  1.4095  2.9067
 7628TIP3    H244376   5.361   2.236  17.251  0.1932 -1.1835  1.4283
 7629TIP3   OH244377   1.957   3.644   5.514 -0.0323  0.1854  0.4864
 7629TIP3    H144378   2.007   3.655   5.595 -2.6137  1.7919  1.9415
 7629TIP3    H244379   1.875   3.601   5.542 -0.8697  0.5969 -1.2803
 7630TIP3   OH244380   4.471   5.787   5.264  0.1673 -0.0282  0.2919
 7630TIP3    H144381   4.401   5.754   5.321  0.4568  2.1258  1.9571
 7630TIP3    H244382   4.425   5.837   5.196 -0.0755 -1.1797 -0.4037
 7631TIP3   OH244383   2.605   2.055   4.975  0.7161  0.4068 -0.3098
 7631TIP3    H144384   2.519   2.055   4.933  1.0774  1.5037 -1.0700
 7631TIP3    H244385   2.633   1.964   4.970  0.7977  0.5230 -2.5699
 7632TIP3   OH244386   0.459   2.010  17.279 -0.0781  0.0575  0.4674
 7632TIP3    H144387   0.456   2.102  17.309  1.9405 -0.6264  3.0445
 7632TIP3    H244388   0.488   2.016  17.188 -1.3013  2.0330  0.1599
 7633TIP3   OH244389   0.424   4.689   1.839 -0.4937  0.0885 -0.2853
 7633TIP3    H144390   0.475   4.747   1.897 -1.5196  1.0752 -0.3398
 7633TIP3    H244391   0.468   4.695   1.755 -1.0735  1.4842 -0.5143
 7634TIP3   OH244392   3.893   6.532  15.599  0.0059  0.4571 -0.2950
 7634TIP3    H144393   3.901   6.442  15.631  0.8021  0.8737  0.7359
 7634TIP3    H244394   3.928   6.585  15.671  1.2237  1.4747 -1.6031
 7635TIP3   OH244395   5.852   6.564  13.692  0.8864  0.4975 -0.4586
 7635TIP3    H144396   5.823   6.577  13.601  0.4794  0.1922 -0.3736
 7635TIP3    H244397   5.946   6.549  13.685  1.0818  1.7965 -0.7142
 7636TIP3   OH244398   1.493   4.562   0.667 -0.2264 -0.0639  0.3622
 7636TIP3    H144399   1.419   4.502   0.668 -0.0660 -0.2485  1.5468
 7636TIP3    H244400   1.478   4.620   0.742  0.2381  0.6298 -0.0665
 7637TIP3   OH244401   2.511   6.134   2.024  0.0843  0.1349  0.0821
 7637TIP3    H144402   2.533   6.223   1.995  0.4696 -0.0545 -0.2017
 7637TIP3    H244403   2.462   6.148   2.105  0.1298  0.6090  0.0327
 7638TIP3   OH244404   0.120   0.356  14.454  0.1053 -0.1066  0.6409
 7638TIP3    H144405   0.064   0.382  14.527 -0.9138 -1.3651  0.3436
 7638TIP3    H244406   0.091   0.267  14.433 -0.3343  0.6031 -1.9449
 7639TIP3   OH244407   2.563   4.828  13.824 -0.1461 -0.4395 -0.5126
 7639TIP3    H144408   2.638   4.842  13.882  0.2450 -1.4505 -0.7517
 7639TIP3    H244409   2.546   4.734  13.830  0.5104 -0.7298 -2.7668
 7640TIP3   OH244410   0.995   4.552  16.845  0.2459  0.6348  0.1407
 7640TIP3    H144411   0.944   4.632  16.831 -0.9551 -0.0416  0.5574
 7640TIP3    H244412   1.086   4.579  16.834 -0.2121  1.8334 -0.7909
 7641TIP3   OH244413   1.670   4.764  15.884  0.0926  0.3264 -0.0603
 7641TIP3    H144414   1.604   4.826  15.915 -0.7666 -0.2752 -0.6423
 7641TIP3    H244415   1.640   4.679  15.918  1.4103  0.2751  0.9798
 7642TIP3   OH244416   1.615   6.768   2.652  0.2802  0.4969 -0.1713
 7642TIP3    H144417   1.704   6.743   2.679  0.0953 -0.0936 -0.0933
 7642TIP3    H244418   1.624   6.857   2.618  0.7676  0.7180  0.5311
 7643TIP3   OH244419   6.681   3.014  12.023  0.0360 -0.1375 -0.1175
 7643TIP3    H144420   6.727   3.028  11.940 -2.0457 -1.1242 -1.4889
 7643TIP3    H244421   6.662   2.920  12.025  0.4166 -0.2005  1.6807
 7644TIP3   OH244422   4.955   3.164   3.071  0.0681 -0.8456  0.2773
 7644TIP3    H144423   4.956   3.165   3.167 -0.7075  0.7292  0.2795
 7644TIP3    H244424   4.864   3.146   3.047  0.3515 -1.7074 -0.1629
 7645TIP3   OH244425   4.615   5.375  13.081  0.1481 -0.0271 -0.4687
 7645TIP3    H144426   4.554   5.436  13.124  0.6575  1.0852 -1.2836
 7645TIP3    H244427   4.610   5.399  12.988  0.1802 -1.4005 -0.8291
 7646TIP3   OH244428   2.480   2.657   1.917 -0.0500 -0.0654 -0.1647
 7646TIP3    H144429   2.534   2.622   1.846  2.1279  1.5738  0.6191
 7646TIP3    H244430   2.440   2.580   1.958  3.8177 -1.6114  0.9048
 7647TIP3   OH244431   5.395   5.045   3.518 -0.0444  0.0723  0.1746
 7647TIP3    H144432   5.457   5.021   3.449 -0.4401  2.1888 -0.9698
 7647TIP3    H244433   5.333   5.103   3.474 -0.6810  0.9362  2.1963
 7648TIP3   OH244434   2.611   2.945  13.016 -0.5046 -0.9247 -0.5640
 7648TIP3    H144435   2.582   3.018  12.962 -0.7968 -0.8329 -0.2855
 7648TIP3    H244436   2.658   2.887  12.956  2.5446  1.0320 -0.1873
 7649TIP3   OH244437   3.430   6.697   1.107  0.0556  0.1377  0.1316
 7649TIP3    H144438   3.348   6.746   1.111  0.6272  1.1493 -0.3624
 7649TIP3    H244439   3.406   6.607   1.128 -1.0210  0.6162  0.9701
 7650TIP3   OH244440   2.220   0.343  13.239  0.3570 -0.2236 -0.3352
 7650TIP3    H144441   2.234   0.291  13.160 -0.8845 -0.4350 -0.4254
 7650TIP3    H244442   2.202   0.279  13.307 -0.2042  0.0433 -0.2326
 7651TIP3   OH244443   2.328   5.672   1.963  0.0252 -0.0200  0.2058
 7651TIP3    H144444   2.419   5.643   1.972  0.7638  1.7660 -1.2031
 7651TIP3    H244445   2.334   5.760   1.925 -2.3119 -0.0693 -0.3870
 7652TIP3   OH244446   6.536   4.573  15.871 -0.3073  0.1941 -0.3119
 7652TIP3    H144447   6.632   4.576  15.875 -0.2986 -1.0294  0.7001
 7652TIP3    H244448   6.516   4.566  15.778  0.6543 -1.2346 -0.4254
 7653TIP3   OH244449   4.882   0.745   5.333  0.7405  0.1430 -0.2555
 7653TIP3    H144450   4.931   0.702   5.403  0.3105  1.0355  0.6074
 7653TIP3    H244451   4.811   0.792   5.379  0.2868  0.5011 -1.3091
 7654TIP3   OH244452   4.993   5.165  13.354  0.3960  0.4890  0.4716
 7654TIP3    H144453   4.988   5.090  13.294 -2.4052  0.4304  0.7317
 7654TIP3    H244454   4.904   5.198  13.358  0.8633  1.5037  3.3503
 7655TIP3   OH244455   2.457   3.594  14.380 -0.8007 -0.1184  0.2525
 7655TIP3    H144456   2.524   3.548  14.429 -1.1302 -1.4539 -0.5115
 7655TIP3    H244457   2.396   3.525  14.352 -1.3580  0.7882 -0.8224
 7656TIP3   OH244458   1.558   5.224   4.931 -0.3995 -0.1623  0.3151
 7656TIP3    H144459   1.476   5.175   4.930 -0.4720 -0.0350  0.1317
 7656TIP3    H244460   1.625   5.156   4.943 -0.4693 -0.3526 -0.3895
 7657TIP3   OH244461   2.709   4.537  15.244 -0.0070 -0.3988  0.3592
 7657TIP3    H144462   2.757   4.572  15.169  0.2609  0.1646  0.7820
 7657TIP3    H244463   2.774   4.486  15.293 -0.0769 -0.4231  0.4273
 7658TIP3   OH244464   6.494   2.109  13.820 -0.0088 -0.5958  0.2200
 7658TIP3    H144465   6.447   2.055  13.883  0.4966 -3.4891 -1.7898
 7658TIP3    H244466   6.485   2.063  13.737 -0.8907  3.2697 -1.9484
 7659TIP3   OH244467   1.725   2.163  13.745 -0.6878 -0.3725 -0.5719
 7659TIP3    H144468   1.661   2.109  13.699 -1.1705  0.2521 -0.6507
 7659TIP3    H244469   1.688   2.173  13.833  0.5698 -2.1348  0.1861
 7660TIP3   OH244470   0.030   6.538   5.040  0.2764  0.0450 -0.4720
 7660TIP3    H144471  -0.064   6.520   5.038  0.4496 -1.0304  0.5992
 7660TIP3    H244472   0.037   6.626   5.075 -0.3583  0.4321 -1.2957
 7661TIP3   OH244473   0.990   1.238  14.759 -0.2283  0.5935  0.2518
 7661TIP3    H144474   0.936   1.247  14.837 -0.5487  2.0829 -0.1168
 7661TIP3    H244475   0.950   1.297  14.695  2.1585  2.1795  0.1439
 7662TIP3   OH244476   1.693   3.189  12.888  0.3156 -0.2700 -0.3274
 7662TIP3    H144477   1.698   3.239  12.970  0.1209  1.2469 -1.2236
 7662TIP3    H244478   1.751   3.236  12.828  0.2322 -1.2027 -1.1439
 7663TIP3   OH244479   5.787   5.687  11.736 -0.4334  0.1483 -0.0844
 7663TIP3    H144480   5.750   5.599  11.741 -1.5501  0.5276 -1.3012
 7663TIP3    H244481   5.872   5.676  11.693 -0.7751 -0.2963 -0.6539
 7664TIP3   OH244482   1.592   6.623  13.991  0.2163  0.1572  0.0485
 7664TIP3    H144483   1.525   6.678  14.031  0.8330  0.1713  1.0789
 7664TIP3    H244484   1.567   6.617  13.899  0.1411  2.1444 -0.0721
 7665TIP3   OH244485   6.155   4.943   4.345 -0.3185 -0.3318  0.1665
 7665TIP3    H144486   6.166   4.872   4.282 -0.9030 -0.3098  0.0400
 7665TIP3    H244487   6.169   5.023   4.295 -1.3957 -0.2894 -0.0733
 7666TIP3   OH244488   5.893   5.914   6.067 -0.2535  0.4364 -0.0596
 7666TIP3    H144489   5.937   5.947   5.989  2.4388 -1.2552  0.6641
 7666TIP3    H244490   5.802   5.901   6.040  0.0695  2.2511 -2.1521
 7667TIP3   OH244491   0.478   4.410   1.963 -0.0836 -0.4025 -1.1197
 7667TIP3    H144492   0.493   4.487   1.910 -1.3297  0.5044 -0.1849
 7667TIP3    H244493   0.461   4.444   2.051 -1.4585 -1.6817 -0.8673
 7668TIP3   OH244494   5.253   5.310  16.787  0.1103  0.0012  0.6579
 7668TIP3    H144495   5.341   5.340  16.763 -0.1185  0.0925 -0.0767
 7668TIP3    H244496   5.195   5.379  16.755 -0.2458 -0.1833  0.9121
 7669TIP3   OH244497   1.524   0.416  12.861  1.0798  0.2125  0.2149
 7669TIP3    H144498   1.512   0.433  12.954 -0.7109 -1.8035  0.3729
 7669TIP3    H244499   1.468   0.481  12.817  2.0212  1.2431  0.5033
 7670TIP3   OH244500   5.469   3.693   3.292  0.4002  0.0111 -0.0723
 7670TIP3    H144501   5.418   3.757   3.243 -0.0376 -0.0593  0.2894
 7670TIP3    H244502   5.479   3.619   3.232 -1.4935 -0.7283  0.5035
 7671TIP3   OH244503   4.219   4.309  12.706 -0.4707 -0.0281  0.3706
 7671TIP3    H144504   4.250   4.376  12.645  1.5693  0.4560  1.8988
 7671TIP3    H244505   4.138   4.277  12.667  0.0709  1.2485 -1.8792
 7672TIP3   OH244506   2.917   6.459   0.286 -0.0161 -0.3551  0.2520
 7672TIP3    H144507   2.917   6.419   0.199 -0.8324  2.2746 -1.0035
 7672TIP3    H244508   2.828   6.491   0.298  0.7312  1.5904  0.9371
 7673TIP3   OH244509   2.538   1.524  16.749 -0.3819 -0.4905 -0.0647
 7673TIP3    H144510   2.530   1.535  16.844 -1.5401  1.1007 -0.3255
 7673TIP3    H244511   2.501   1.604  16.713 -0.1018 -1.1618 -1.8753
 7674TIP3   OH244512   3.317   0.053   6.066  0.2406 -0.5576  0.4480
 7674TIP3    H144513   3.400   0.035   6.110  0.7020 -2.1250 -1.0227
 7674TIP3    H244514   3.259  -0.016   6.096 -0.9423  1.2080  2.4030
 7675TIP3   OH244515   6.264   3.823  12.008  0.0485 -0.3644  0.3339
 7675TIP3    H144516   6.217   3.740  12.003  0.3697 -0.5821  0.8833
 7675TIP3    H244517   6.318   3.826  11.930  0.1101 -0.7200  0.3658
 7676TIP3   OH244518   0.278   2.550  14.467  0.1721 -0.8766 -0.1099
 7676TIP3    H144519   0.274   2.548  14.562 -2.6992  1.8229 -0.0959
 7676TIP3    H244520   0.207   2.493  14.438 -2.4837  2.4443 -0.4943
 7677TIP3   OH244521   1.041   4.034  13.258  0.2811 -0.7104 -0.7744
 7677TIP3    H144522   1.005   3.980  13.328  2.3835  0.3984  1.2315
 7677TIP3    H244523   1.124   3.993  13.235  0.9167  0.4998 -0.6826
 7678TIP3   OH244524   6.124   4.571  10.664 -0.0307 -0.2680 -0.2273
 7678TIP3    H144525   6.216   4.597  10.656  0.2007 -1.2723 -0.9745
 7678TIP3    H244526   6.123   4.507  10.735 -0.5276  1.4059  1.3121
 7679TIP3   OH244527   2.902   1.998  16.872 -0.2972 -0.1710 -0.0856
 7679TIP3    H144528   2.957   1.951  16.935  0.8115  0.0627 -0.8699
 7679TIP3    H244529   2.813   1.965  16.889  0.0064 -0.2207  1.4843
 7680TIP3   OH244530   2.585   3.755   3.632  0.0445  0.1692  0.8311
 7680TIP3    H144531   2.546   3.670   3.614  1.7598 -0.5948  0.6464
 7680TIP3    H244532   2.606   3.753   3.725 -1.3659  1.0014  1.1721
 7681TIP3   OH244533   4.289   1.358  11.654 -0.1033 -0.0909  0.1875
 7681TIP3    H144534   4.229   1.283  11.651 -0.2539  0.0096  0.5960
 7681TIP3    H244535   4.376   1.320  11.640 -0.1779 -0.3471  0.4134
 7682TIP3   OH244536   3.135   5.775   2.319  0.7446 -0.5765 -0.2836
 7682TIP3    H144537   3.068   5.799   2.383 -0.0856  0.7664 -1.6016
 7682TIP3    H244538   3.200   5.845   2.325 -0.0987  0.3860 -1.9324
 7683TIP3   OH244539   4.433   3.558  15.259  0.0243  0.1972 -0.6548
 7683TIP3    H144540   4.498   3.620  15.292  0.1456 -0.9694  1.3252
 7683TIP3    H244541   4.481   3.503  15.198  1.0751 -1.0815  1.2886
 7684TIP3   OH244542   3.783   4.221   1.181  0.2499 -0.2773 -0.3666
 7684TIP3    H144543   3.697   4.262   1.191  0.4732  0.4024 -1.1665
 7684TIP3    H244544   3.799   4.178   1.265 -0.1848  0.9093  0.3426
 7685TIP3   OH244545   4.673   4.352   1.140 -0.3801 -0.1798  0.2434
 7685TIP3    H144546   4.707   4.267   1.114 -0.7405  0.1453 -1.3468
 7685TIP3    H244547   4.600   4.332   1.198  2.0423 -0.8909  3.2186
 7686TIP3   OH244548   2.100   1.559   0.958 -0.1215  0.2668 -1.0600
 7686TIP3    H144549   2.104   1.519   0.871 -2.5644  0.8677 -1.5074
 7686TIP3    H244550   2.018   1.527   0.995  0.5060  0.6637  0.7154
 7687TIP3   OH244551   2.861   4.110   2.618 -0.2741 -0.4547  0.1074
 7687TIP3    H144552   2.855   4.200   2.586  0.8706 -1.0122 -1.7827
 7687TIP3    H244553   2.837   4.115   2.710 -1.8342  1.5229 -0.3811
 7688TIP3   OH244554   2.772   4.071   1.358  0.2395  0.3859 -0.6392
 7688TIP3    H144555   2.738   3.987   1.326 -0.3035  1.0953 -1.9616
 7688TIP3    H244556   2.697   4.130   1.355  1.1108  1.4651 -1.7467
 7689TIP3   OH244557   1.478   5.239  12.275  0.4645  0.0693 -0.2518
 7689TIP3    H144558   1.574   5.235  12.280  0.4225  0.2425  0.7983
 7689TIP3    H244559   1.449   5.157  12.315  0.1497  0.5357  0.4789
 7690TIP3   OH244560   6.428   2.784  16.147  0.1562 -0.1737  0.2253
 7690TIP3    H144561   6.491   2.773  16.219  0.3908 -0.7808 -0.0686
 7690TIP3    H244562   6.392   2.872  16.160  1.0373  0.1633  0.4281
 7691TIP3   OH244563   0.962   6.558  12.111 -0.1489  0.3103  0.0505
 7691TIP3    H144564   1.028   6.578  12.044 -0.0938 -0.4844 -0.1346
 7691TIP3    H244565   0.885   6.532  12.062 -0.9477  2.2370  0.2472
 7692TIP3   OH244566   0.297   0.466  13.700  0.0023  0.4852 -0.5062
 7692TIP3    H144567   0.303   0.391  13.640 -0.0608  0.6142 -0.6751
 7692TIP3    H244568   0.219   0.513  13.672 -0.6896 -0.1019  0.4270
 7693TIP3   OH244569   4.711   6.749  11.166 -0.2396 -0.3446  0.0165
 7693TIP3    H144570   4.678   6.738  11.077 -0.8373 -0.1956  0.2172
 7693TIP3    H244571   4.806   6.747  11.157 -0.2699  1.2276 -0.8321
 7694TIP3   OH244572   4.595   0.656   1.421 -0.1249 -0.4913  0.8080
 7694TIP3    H144573   4.576   0.593   1.351  0.0354  0.9270 -0.5537
 7694TIP3    H244574   4.674   0.701   1.391 -0.2996  0.4317  1.7154
 7695TIP3   OH244575   3.004   4.055  12.395  0.0619 -0.2060  0.0470
 7695TIP3    H144576   2.942   4.035  12.325 -0.9100  0.0231  0.8320
 7695TIP3    H244577   2.950   4.083  12.468  1.1600  1.1611  0.3637
 7696TIP3   OH244578   6.178   6.460   5.262 -0.1275 -0.2850 -0.0622
 7696TIP3    H144579   6.181   6.416   5.347  0.8491 -1.4631 -0.6670
 7696TIP3    H244580   6.228   6.541   5.275  0.2484 -0.5873  0.4254
 7697TIP3   OH244581   5.928   5.940   4.867  0.2447  0.3598 -0.8928
 7697TIP3    H144582   5.881   5.866   4.828  0.4601  0.2897 -1.0246
 7697TIP3    H244583   6.005   5.951   4.811 -0.5418  1.6400 -1.7736
 7698TIP3   OH244584   1.613   2.655   5.519  0.4578 -0.3657 -0.0790
 7698TIP3    H144585   1.683   2.597   5.550  0.0244 -1.2547 -0.7275
 7698TIP3    H244586   1.550   2.596   5.477 -1.0402  0.3551  1.1302
 7699TIP3   OH244587   2.929   5.626  13.246 -0.0081 -0.4070  0.2674
 7699TIP3    H144588   2.839   5.658  13.235  0.0977  0.2142  1.1253
 7699TIP3    H244589   2.945   5.572  13.169 -0.5791  0.7111 -0.6510
 7700TIP3   OH244590   1.037   2.631  14.065 -0.2917  0.0024  0.0146
 7700TIP3    H144591   0.993   2.566  14.009 -1.0795 -0.9688  1.7249
 7700TIP3    H244592   1.125   2.638  14.029 -0.7796 -0.6170 -1.3364
 7701TIP3   OH244593   1.583   6.637   4.112  0.1950 -0.9639  0.6615
 7701TIP3    H144594   1.562   6.728   4.132  1.6656 -0.7699  1.4204
 7701TIP3    H244595   1.607   6.637   4.019  0.9604 -0.4153  0.8514
 7702TIP3   OH244596   5.063   1.666   5.055  0.0298  0.1703  0.3320
 7702TIP3    H144597   5.036   1.711   4.976  1.6861  0.2938 -0.1821
 7702TIP3    H244598   5.155   1.692   5.068  0.3484 -1.3078  1.2292
 7703TIP3   OH244599   1.363   0.150  17.229 -0.0152 -0.7716 -0.1252
 7703TIP3    H144600   1.444   0.166  17.181 -0.8118 -0.3887 -1.3603
 7703TIP3    H244601   1.391   0.139  17.320  1.3064  0.4995 -0.3569
 7704TIP3   OH244602   3.756   6.204   1.962  0.6985 -0.6128  0.2624
 7704TIP3    H144603   3.696   6.227   1.891 -0.9420 -1.8153  1.2300
 7704TIP3    H244604   3.759   6.281   2.018  0.2178 -0.4742  0.0934
 7705TIP3   OH244605   2.865   1.252   4.764 -0.5993 -0.4233 -0.1627
 7705TIP3    H144606   2.950   1.226   4.729 -0.9136 -1.4696 -0.1651
 7705TIP3    H244607   2.809   1.261   4.687 -0.7002 -0.5149 -0.1004
 7706TIP3   OH244608   5.779   5.887   0.190  0.4905  0.1319  0.0540
 7706TIP3    H144609   5.857   5.860   0.238  0.2679 -0.0335  0.3254
 7706TIP3    H244610   5.720   5.812   0.196  0.7199 -0.1461 -1.0551
 7707TIP3   OH244611   2.792   4.624  17.100  0.3054  0.4582 -0.2866
 7707TIP3    H144612   2.744   4.704  17.079  0.0257  1.0517  2.4842
 7707TIP3    H244613   2.827   4.639  17.187  1.4557 -1.8996 -0.3112
 7708TIP3   OH244614   6.233   5.057   3.082 -0.7913  0.0098  0.0187
 7708TIP3    H144615   6.317   5.103   3.081 -0.3784 -0.7192  0.6860
 7708TIP3    H244616   6.221   5.032   3.174  0.3707 -3.7025 -0.7543
 7709TIP3   OH244617   2.168   4.639   5.685 -0.0179  0.2582 -0.2519
 7709TIP3    H144618   2.119   4.576   5.633  1.3558 -1.3049  0.3214
 7709TIP3    H244619   2.148   4.615   5.776  1.9887 -0.5538 -0.0149
 7710TIP3   OH244620   6.098   4.624   4.468  0.0095 -0.0838 -0.4884
 7710TIP3    H144621   6.179   4.575   4.482  1.1068  1.0721 -2.5710
 7710TIP3    H244622   6.083   4.620   4.374 -0.0623  3.2627 -0.6918
 7711TIP3   OH244623   4.217   5.425   1.021 -0.2388 -0.1227  0.4741
 7711TIP3    H144624   4.183   5.336   1.007 -1.4701  0.3171  0.5894
 7711TIP3    H244625   4.310   5.413   1.038 -0.2366 -1.3271 -0.3505
 7712TIP3   OH244626   5.432   3.563   5.220  0.1378 -0.2660  0.4299
 7712TIP3    H144627   5.479   3.480   5.227  1.5934  0.3746 -1.2936
 7712TIP3    H244628   5.478   3.621   5.280 -0.3274 -0.4680  0.9794
 7713TIP3   OH244629   3.563   0.738   2.506 -0.0744  0.1690 -0.0778
 7713TIP3    H144630   3.567   0.822   2.552 -0.2699 -0.4094  1.0302
 7713TIP3    H244631   3.494   0.690   2.552  1.1247 -1.1966  0.3258
 7714TIP3   OH244632   3.400   0.045   0.643  0.9351 -0.3942 -0.1749
 7714TIP3    H144633   3.370   0.133   0.663  2.6546 -0.0840  1.0932
 7714TIP3    H244634   3.465   0.057   0.574  1.6467 -0.6090  0.4578
 7715TIP3   OH244635   1.860   1.870   5.096 -0.2058  0.5543  0.3336
 7715TIP3    H144636   1.914   1.791   5.105  0.5392  0.7399 -2.0570
 7715TIP3    H244637   1.776   1.838   5.063 -0.1209  0.6793 -0.0092
 7716TIP3   OH244638   2.207   5.279  16.656 -0.0480  0.1179  0.2216
 7716TIP3    H144639   2.159   5.251  16.733 -0.2111 -0.7792 -0.2001
 7716TIP3    H244640   2.235   5.369  16.676 -2.3715  0.8602  0.2465
 7717TIP3   OH244641   2.894   5.411   5.745 -0.0338 -0.4580  0.1916
 7717TIP3    H144642   2.946   5.441   5.819  0.3938  0.0576 -0.3161
 7717TIP3    H244643   2.817   5.370   5.785  0.3381 -0.4455  0.9244
 7718TIP3   OH244644   5.699   3.744   3.029  0.6767  0.2447  0.4031
 7718TIP3    H144645   5.738   3.815   2.977  0.9847  1.7617  2.6233
 7718TIP3    H244646   5.605   3.757   3.021  0.7207  0.3439  0.0484
 7719TIP3   OH244647   2.463   0.586   2.335  0.0137  0.6250  0.4207
 7719TIP3    H144648   2.456   0.571   2.429 -1.7576  1.0679  0.3830
 7719TIP3    H244649   2.557   0.593   2.318  0.3803 -0.2837  2.0164
 7720TIP3   OH244650   0.102   2.729   5.095 -1.1467  0.1093 -0.1684
 7720TIP3    H144651   0.148   2.810   5.076 -1.9875  0.6366 -0.0055
 7720TIP3    H244652   0.010   2.750   5.078 -1.2467 -1.1631 -1.3187
 7721TIP3   OH244653   2.292   2.405   5.981  0.4922 -0.4515 -0.1845
 7721TIP3    H144654   2.198   2.389   5.986  0.4974 -0.9208 -1.3080
 7721TIP3    H244655   2.304   2.450   5.897  1.2244 -0.0047  0.1465
 7722TIP3   OH244656   2.521   4.547  14.506  0.1318 -0.0636  0.0060
 7722TIP3    H144657   2.564   4.560  14.590  1.8685 -2.4706 -0.4446
 7722TIP3    H244658   2.436   4.590  14.515  0.9044  1.0112  2.4350
 7723TIP3   OH244659   6.254   3.702  13.303  0.0158 -0.1499  0.0423
 7723TIP3    H144660   6.185   3.765  13.323 -0.4805 -0.2941 -1.1318
 7723TIP3    H244661   6.327   3.726  13.359 -0.6884  0.5615  0.6556
 7724TIP3   OH244662   5.457   4.583  12.530 -0.6501  0.7248  0.0679
 7724TIP3    H144663   5.526   4.550  12.471 -2.5616  0.6924 -2.2047
 7724TIP3    H244664   5.502   4.598  12.613  1.6913 -1.1997 -0.7966
 7725TIP3   OH244665   0.281   4.924   0.207  0.2578  0.3000  0.3970
 7725TIP3    H144666   0.237   5.007   0.222  0.1612  0.2799  0.2204
 7725TIP3    H244667   0.219   4.858   0.237 -0.5822  0.1761 -1.5365
 7726TIP3   OH244668   4.054   3.288   2.905 -0.1023 -0.3256  0.1701
 7726TIP3    H144669   3.965   3.255   2.888 -0.2292  0.1575 -0.1059
 7726TIP3    H244670   4.105   3.258   2.830 -0.1926  0.0020 -0.0243
 7727TIP3   OH244671   3.461   2.316   5.185  0.4284 -0.4464  0.1737
 7727TIP3    H144672   3.554   2.317   5.206  0.8467  3.4086 -1.4076
 7727TIP3    H244673   3.457   2.280   5.096  0.7437  1.8053 -0.7909
 7728TIP3   OH244674   6.531   3.501  15.405 -0.2114 -0.5007 -0.4058
 7728TIP3    H144675   6.487   3.465  15.482 -0.2657 -0.6686 -0.5154
 7728TIP3    H244676   6.543   3.426  15.347  2.8549 -1.0444  0.8457
 7729TIP3   OH244677   4.908   4.361  12.901  0.4709  0.0612  0.4162
 7729TIP3    H144678   4.948   4.442  12.868  0.2564 -0.0371 -0.0853
 7729TIP3    H244679   4.872   4.319  12.823 -1.1091  0.4275  0.9290
 7730TIP3   OH244680   5.023   2.528   0.425  0.0528 -0.3786 -0.6174
 7730TIP3    H144681   4.932   2.500   0.432 -0.1243  0.2261 -0.5095
 7730TIP3    H244682   5.063   2.500   0.507 -1.2758  3.9251  1.6677
 7731TIP3   OH244683   6.228   5.656   3.852 -0.0905 -0.3041  0.4607
 7731TIP3    H144684   6.273   5.588   3.801 -0.4076 -1.8138  2.1502
 7731TIP3    H244685   6.153   5.611   3.890  0.1643  0.7775  2.2723
 7732TIP3   OH244686   2.721   1.733  13.608 -0.0237  0.5472 -0.4446
 7732TIP3    H144687   2.742   1.680  13.685 -2.7881  0.6344  0.4253
 7732TIP3    H244688   2.695   1.818  13.643  2.7118  2.0188 -1.7475
 7733TIP3   OH244689   2.847   0.975  13.839 -0.5954  0.7624 -0.4385
 7733TIP3    H144690   2.812   0.905  13.785  1.2903  1.2536 -2.3766
 7733TIP3    H244691   2.933   0.945  13.866 -1.5560  0.4813  2.4501
 7734TIP3   OH244692   6.463   1.259   3.424 -0.6162  0.3094  0.4967
 7734TIP3    H144693   6.466   1.282   3.331 -1.1987 -0.6892  0.2289
 7734TIP3    H244694   6.373   1.228   3.438 -0.9631  1.7669  1.7047
 7735TIP3   OH244695   2.478   6.113  15.409 -0.2432 -0.5055 -0.2185
 7735TIP3    H144696   2.565   6.089  15.379 -0.0116  1.1484 -0.9541
 7735TIP3    H244697   2.494   6.172  15.483 -0.7582 -1.3844  0.5990
 7736TIP3   OH244698   6.580   6.118  12.956 -0.0825  0.1974  0.0353
 7736TIP3    H144699   6.564   6.025  12.973  0.3571  0.2509  0.7994
 7736TIP3    H244700   6.670   6.121  12.923 -0.0141  0.3751  0.2401
 7737TIP3   OH244701   1.825   5.785  15.692 -0.0615 -0.2384 -0.6353
 7737TIP3    H144702   1.754   5.809  15.633  0.2880  2.2523 -0.1279
 7737TIP3    H244703   1.836   5.862  15.748  2.1525 -1.0885  0.1625
 7738TIP3   OH244704   1.749   1.914  12.690  0.0792 -0.0172 -0.4589
 7738TIP3    H144705   1.804   1.971  12.744 -2.4351  1.4260  0.6557
 7738TIP3    H244706   1.670   1.902  12.742 -1.8418  0.2733 -3.2539
 7739TIP3   OH244707   2.796   6.689   6.473 -0.0073  0.1273  0.2999
 7739TIP3    H144708   2.872   6.680   6.529 -0.8665 -0.1561  1.4272
 7739TIP3    H244709   2.832   6.697   6.384  1.4227  2.3049  1.0458
 7740TIP3   OH244710   2.489   5.635  13.512 -0.1546 -0.5953  0.4448
 7740TIP3    H144711   2.547   5.631  13.436 -0.0143 -1.0137  0.5715
 7740TIP3    H244712   2.523   5.708  13.564  0.3866 -0.9703  0.6212
 7741TIP3   OH244713   5.668   2.592  13.646  0.2174  0.3454 -0.1796
 7741TIP3    H144714   5.625   2.613  13.563  2.4049  0.5904 -1.3107
 7741TIP3    H244715   5.704   2.675  13.676  1.7520 -0.2097 -0.3995
 7742TIP3   OH244716   1.324   4.607   3.284 -0.5749  0.1949  0.1927
 7742TIP3    H144717   1.301   4.536   3.224 -1.6095 -0.8535  1.7921
 7742TIP3    H244718   1.250   4.668   3.277 -1.2417 -0.4879  1.2462
 7743TIP3   OH244719   5.849   4.310  15.752 -0.3048 -0.4866 -0.5092
 7743TIP3    H144720   5.772   4.286  15.805 -0.5829  0.7316 -0.3571
 7743TIP3    H244721   5.844   4.253  15.676 -0.8968 -1.0052 -0.0885
 7744TIP3   OH244722   5.165   3.340   5.581 -0.3721 -0.2244 -0.2919
 7744TIP3    H144723   5.113   3.396   5.640 -0.0755  1.2067 -1.3610
 7744TIP3    H244724   5.108   3.326   5.505  0.0623 -0.2862 -0.6065
 7745TIP3   OH244725   0.460   4.007  15.712  0.6076  0.2436 -0.1979
 7745TIP3    H144726   0.503   3.997  15.797 -0.9540 -2.4290  0.3687
 7745TIP3    H244727   0.451   4.101  15.699  1.8391  0.7000  2.1080
 7746TIP3   OH244728   3.400   6.596   1.571 -0.1772  0.2466  0.2676
 7746TIP3    H144729   3.318   6.644   1.560 -0.2527 -0.3345 -1.8920
 7746TIP3    H244730   3.449   6.647   1.636 -1.5809  1.4665  0.3928
 7747TIP3   OH244731   1.421   5.319  12.722  0.4250 -0.2879  0.4004
 7747TIP3    H144732   1.441   5.371  12.644  1.3632 -0.2195  0.6738
 7747TIP3    H244733   1.410   5.384  12.792 -0.8069 -0.3271  0.2450
 7748TIP3   OH244734   0.482   6.807  13.021  0.5582  0.7237 -0.0070
 7748TIP3    H144735   0.515   6.771  12.938 -0.2589  1.1580 -0.5204
 7748TIP3    H244736   0.538   6.767  13.088 -0.9576 -2.2918 -0.4764
 7749TIP3   OH244737   2.216   0.534  11.734 -0.1158 -0.0905 -0.2365
 7749TIP3    H144738   2.177   0.613  11.697  0.7234  0.6285  0.3707
 7749TIP3    H244739   2.249   0.486  11.658  1.4139  1.2714 -0.4636
 7750TIP3   OH244740   5.700   5.757   5.365  0.0185  0.4430 -0.3491
 7750TIP3    H144741   5.708   5.827   5.301 -1.9737  1.5625  0.5905
 7750TIP3    H244742   5.620   5.711   5.341 -0.6232  0.7259  1.1928
 7751TIP3   OH244743   5.179   2.405   0.621  0.4954  0.1647 -0.4801
 7751TIP3    H144744   5.142   2.360   0.697  1.8650  0.5935  0.4800
 7751TIP3    H244745   5.236   2.472   0.659  0.5245  0.9640 -1.8972
 7752TIP3   OH244746   2.131   2.661  16.123  0.0950  0.1142 -0.1546
 7752TIP3    H144747   2.187   2.612  16.183  0.2069 -0.1586 -0.4809
 7752TIP3    H244748   2.052   2.609  16.115 -0.9680  1.3875  1.7290
 7753TIP3   OH244749   3.037   0.463   4.331  0.1375  0.4057 -0.0066
 7753TIP3    H144750   2.974   0.534   4.319  0.9988  1.1235 -0.4211
 7753TIP3    H244751   3.072   0.477   4.419 -1.3267 -0.8669  0.8009
 7754TIP3   OH244752   4.431   0.321  14.080 -0.2415 -0.2702 -0.1468
 7754TIP3    H144753   4.377   0.352  14.153  0.1309 -0.7992  0.3630
 7754TIP3    H244754   4.477   0.399  14.049  0.2654 -0.1951  0.7636
 7755TIP3   OH244755   6.304   0.482  11.706  0.1487  0.1399 -0.0922
 7755TIP3    H144756   6.378   0.465  11.646 -0.8349 -0.5333 -1.1409
 7755TIP3    H244757   6.253   0.550  11.662  0.3541  0.8918  0.8256
 7756TIP3   OH244758   1.382   5.110  14.052 -0.4696 -0.1211 -0.2665
 7756TIP3    H144759   1.396   5.021  14.084  0.7067  0.3320  0.4859
 7756TIP3    H244760   1.357   5.098  13.960 -1.4460 -1.2795  0.1316
 7757TIP3   OH244761   2.040   0.528  16.913 -0.2654 -0.2919 -0.4852
 7757TIP3    H144762   2.088   0.475  16.850  2.0986  1.4558 -0.2187
 7757TIP3    H244763   2.049   0.617  16.882 -0.3495  0.4403  1.4920
 7758TIP3   OH244764   2.660   0.738  14.035 -0.0554 -0.3103 -0.7520
 7758TIP3    H144765   2.653   0.762  13.943 -0.5873  0.3264 -0.5466
 7758TIP3    H244766   2.735   0.788  14.068 -0.7836  0.6027 -0.4748
 7759TIP3   OH244767   6.225   6.031   4.129 -0.1628  0.1255  0.1460
 7759TIP3    H144768   6.299   5.978   4.099  3.0638  3.8179  1.2075
 7759TIP3    H244769   6.199   5.990   4.211  3.1248  0.7822  1.6257
 7760TIP3   OH244770   1.271   4.620   5.324 -0.1549 -0.1442  0.1342
 7760TIP3    H144771   1.297   4.660   5.407 -0.1384  1.1954 -0.5016
 7760TIP3    H244772   1.315   4.535   5.323  0.9038  0.3885  0.8984
 7761TIP3   OH244773   1.838   3.241   0.120  0.0348  0.0209 -0.1251
 7761TIP3    H144774   1.783   3.196   0.184 -0.1267  0.0900 -0.2155
 7761TIP3    H244775   1.918   3.188   0.115  0.0377  0.0030  0.1160
 7762TIP3   OH244776   5.511   6.301  16.595  0.2981 -0.6051  0.8568
 7762TIP3    H144777   5.482   6.228  16.650 -0.4486 -0.6163  0.4525
 7762TIP3    H244778   5.441   6.366  16.602  1.2684  0.3549  1.7388
 7763TIP3   OH244779   6.132   3.763  10.747 -0.4097 -0.1944 -0.3486
 7763TIP3    H144780   6.037   3.753  10.742 -0.4472  0.1190 -0.2213
 7763TIP3    H244781   6.153   3.827  10.680 -0.4099  0.5486  0.3589
 7764TIP3   OH244782   3.785   3.535   6.500  0.0840  0.4471 -0.1468
 7764TIP3    H144783   3.695   3.509   6.480 -0.5036  0.8010  1.9324
 7764TIP3    H244784   3.778   3.628   6.523  1.0373  0.5649 -0.3319
 7765TIP3   OH244785   4.643   2.258  11.607 -0.0654 -0.3609  0.2674
 7765TIP3    H144786   4.550   2.260  11.585  0.2422 -1.3723 -1.1470
 7765TIP3    H244787   4.688   2.265  11.523  1.1437 -1.1506  0.8330
 7766TIP3   OH244788   2.626   3.583   1.644  0.3839 -0.2003  0.4182
 7766TIP3    H144789   2.645   3.491   1.629 -0.7271 -0.2409 -0.7218
 7766TIP3    H244790   2.538   3.585   1.680  0.8613  0.3332  1.5994
 7767TIP3   OH244791   1.629   0.301   3.955 -0.1870 -0.4196 -0.3881
 7767TIP3    H144792   1.639   0.247   3.877  0.0400  1.0311 -1.3746
 7767TIP3    H244793   1.544   0.342   3.945  0.1186  0.2665 -0.1791
 7768TIP3   OH244794   3.102   1.569   3.439 -0.3277  0.5544  0.5029
 7768TIP3    H144795   3.140   1.649   3.403 -0.6251 -0.3037 -1.8264
 7768TIP3    H244796   3.057   1.529   3.364 -1.4158 -1.0446  1.9898
 7769TIP3   OH244797   5.464   0.907   0.102  0.3718  0.3497  0.0568
 7769TIP3    H144798   5.401   0.884   0.034 -0.2790  1.6830  0.1855
 7769TIP3    H244799   5.410   0.936   0.175  1.1175  1.1171  0.3081
 7770TIP3   OH244800   3.748   1.419   3.613 -0.3439  0.0344 -0.4854
 7770TIP3    H144801   3.838   1.450   3.622  0.2255 -1.9020  0.8173
 7770TIP3    H244802   3.728   1.377   3.697 -1.9073 -0.9592 -1.3135
 7771TIP3   OH244803   2.122   6.243   1.176  0.2614  0.1331 -0.6887
 7771TIP3    H144804   2.036   6.205   1.192 -0.7846  2.0770 -1.5131
 7771TIP3    H244805   2.127   6.317   1.236  0.8586  0.7725 -1.5233
 7772TIP3   OH244806   2.445   1.818  11.655 -0.1291 -0.4178  0.3315
 7772TIP3    H144807   2.507   1.766  11.605  0.6941 -0.4331  1.3553
 7772TIP3    H244808   2.374   1.837  11.594  0.5895 -0.9278 -0.6611
 7773TIP3   OH244809   5.655   5.336  11.453 -0.1137 -0.3608 -0.4833
 7773TIP3    H144810   5.588   5.398  11.479 -1.8292 -1.7789 -1.4251
 7773TIP3    H244811   5.607   5.257  11.428  1.8010 -0.9844 -2.4085
 7774TIP3   OH244812   4.043   2.870  15.842  0.1151 -0.3237 -0.6646
 7774TIP3    H144813   4.107   2.939  15.825 -0.8726  0.7336 -0.1998
 7774TIP3    H244814   4.027   2.876  15.936  0.3780 -1.5098 -0.5411
 7775TIP3   OH244815   0.445   5.871   3.320 -0.9863 -0.0667  0.1839
 7775TIP3    H144816   0.507   5.917   3.377  0.0774 -0.6392 -0.5026
 7775TIP3    H244817   0.417   5.937   3.256 -1.3067  0.2644  0.6585
 7776TIP3   OH244818   3.450   3.266   3.830  0.2955 -0.0086 -0.2488
 7776TIP3    H144819   3.435   3.225   3.915 -0.5219 -1.3175 -1.0050
 7776TIP3    H244820   3.490   3.350   3.851 -1.8742  0.6222  1.5203
 7777TIP3   OH244821   5.205   0.874   3.911 -0.1844  0.5747  0.0597
 7777TIP3    H144822   5.220   0.875   3.816  0.3981  1.2380  0.1617
 7777TIP3    H244823   5.222   0.963   3.940 -2.2240  0.8409  0.5152
 7778TIP3   OH244824   6.504   0.887  17.198 -0.2123 -0.0745 -0.1635
 7778TIP3    H144825   6.535   0.798  17.216 -1.1547 -0.2675  0.5241
 7778TIP3    H244826   6.482   0.923  17.283  0.0938  0.7977 -0.4518
 7779TIP3   OH244827   6.099   2.645   4.238  0.7514 -0.3628  0.4977
 7779TIP3    H144828   6.133   2.560   4.209 -1.6327 -1.1646 -0.0331
 7779TIP3    H244829   6.032   2.624   4.303 -1.3629  0.9621 -1.1516
 7780TIP3   OH244830   1.025   0.264  14.193 -0.2100  0.5883 -0.1062
 7780TIP3    H144831   1.114   0.266  14.227  0.0018  0.0373 -0.5997
 7780TIP3    H244832   1.012   0.350  14.153 -0.0834  0.8505  0.4100
 7781TIP3   OH244833   0.066   5.533   5.015 -0.1323 -0.0239  0.1511
 7781TIP3    H144834   0.012   5.464   4.976  0.6535 -0.3359 -0.3996
 7781TIP3    H244835   0.154   5.516   4.981 -0.4659  3.0326 -2.4144
 7782TIP3   OH244836   0.397   6.736  16.269 -0.0129  0.0374  0.5676
 7782TIP3    H144837   0.490   6.724  16.254  0.1043 -0.0632  1.4014
 7782TIP3    H244838   0.391   6.792  16.346 -0.6555 -1.8863  1.9640
 7783TIP3   OH244839   2.997   1.681   5.790 -0.5563  0.1329  0.1388
 7783TIP3    H144840   3.021   1.730   5.712 -2.6019  1.3117  0.2017
 7783TIP3    H244841   2.955   1.601   5.757 -0.7762  0.2919  0.0354
 7784TIP3   OH244842   4.685   4.537  14.639  0.3524  0.6622  0.6736
 7784TIP3    H144843   4.735   4.618  14.652  0.4068  0.7806 -0.2478
 7784TIP3    H244844   4.602   4.566  14.601 -0.1186  0.3917  1.4737
 7785TIP3   OH244845   5.327   5.828  13.614  0.2870 -0.4222  0.3607
 7785TIP3    H144846   5.235   5.802  13.606  0.2721  0.1858 -1.6300
 7785TIP3    H244847   5.344   5.881  13.537  3.1040 -2.8640 -0.7841
 7786TIP3   OH244848   2.320   0.983   3.033 -0.4288  0.6789  0.6799
 7786TIP3    H144849   2.285   1.047   2.972  1.2279  0.3393 -0.6554
 7786TIP3    H244850   2.258   0.910   3.029 -0.6699  0.9211 -0.1024
 7787TIP3   OH244851   1.577   5.266  11.390  0.2515  0.2089  0.4185
 7787TIP3    H144852   1.498   5.263  11.335  1.0443  0.3732 -0.7444
 7787TIP3    H244853   1.647   5.288  11.329  1.2627 -0.3225  1.3858
 7788TIP3   OH244854   6.049   2.109   1.396  0.8666 -0.5684  0.1100
 7788TIP3    H144855   6.116   2.062   1.446  0.4556 -2.3408 -0.9561
 7788TIP3    H244856   6.034   2.054   1.319 -0.7767  0.5438 -0.3848
 7789TIP3   OH244857   1.888   1.411   4.892 -0.2564  0.5792 -0.2002
 7789TIP3    H144858   1.862   1.393   4.982 -0.6848  0.9703 -0.2385
 7789TIP3    H244859   1.852   1.338   4.841 -1.5278  1.2412 -0.2855
 7790TIP3   OH244860   1.340   1.463  16.203 -0.5757 -0.0959  0.4434
 7790TIP3    H144861   1.364   1.438  16.293  0.5944  0.3617  0.2703
 7790TIP3    H244862   1.418   1.441  16.151 -1.2754 -0.4318 -0.4785
 7791TIP3   OH244863   1.682   4.621   2.923 -0.0828  0.0721 -0.2245
 7791TIP3    H144864   1.628   4.547   2.951 -1.1815  0.5367 -1.0833
 7791TIP3    H244865   1.750   4.582   2.868 -0.5503 -0.3151 -0.5268
 7792TIP3   OH244866   0.815   5.067   5.705  0.1913  1.2796 -0.0057
 7792TIP3    H144867   0.828   5.113   5.788  0.0677  2.8925 -0.8525
 7792TIP3    H244868   0.845   5.129   5.639  0.8626 -0.2202 -1.1457
 7793TIP3   OH244869   5.196   1.442   3.147  0.0213  0.4442  0.2955
 7793TIP3    H144870   5.279   1.402   3.171 -0.5260 -1.1194 -0.3790
 7793TIP3    H244871   5.130   1.380   3.177 -0.8780  1.2989  0.1092
 7794TIP3   OH244872   5.086   3.207   3.773  0.1698  0.2131  0.1560
 7794TIP3    H144873   5.023   3.140   3.800  0.5391 -0.2536 -0.1401
 7794TIP3    H244874   5.068   3.281   3.832  0.8113 -0.7107  1.5547
 7795TIP3   OH244875   5.260   2.571  12.536  0.2436  0.4907 -0.1337
 7795TIP3    H144876   5.205   2.607  12.466  0.7813  0.9390 -0.3238
 7795TIP3    H244877   5.330   2.634  12.546 -0.4597  1.0226  1.6043
 7796TIP3   OH244878   0.805   5.987   3.997 -0.0534 -0.5884 -0.2767
 7796TIP3    H144879   0.838   6.072   4.027 -0.0042 -1.4905  2.3268
 7796TIP3    H244880   0.710   5.994   4.007 -0.1286 -0.4714 -1.0676
 7797TIP3   OH244881   0.312   6.100  11.361 -0.0492  0.5131  0.4002
 7797TIP3    H144882   0.348   6.187  11.344  0.9455 -0.1002 -0.6887
 7797TIP3    H244883   0.346   6.046  11.290 -1.6639 -0.4888  0.3714
 7798TIP3   OH244884   5.631   1.400  12.150  0.1324 -0.2166  0.2461
 7798TIP3    H144885   5.620   1.439  12.063 -0.1687 -1.5824 -0.3385
 7798TIP3    H244886   5.545   1.363  12.171 -0.3676  1.8514  2.0111
 7799TIP3   OH244887   4.404   5.950   0.420 -0.2809  0.1915 -0.2286
 7799TIP3    H144888   4.421   5.934   0.327 -0.1051 -0.7071 -0.0452
 7799TIP3    H244889   4.336   5.887   0.444  1.7599 -1.6744  0.9573
 7800TIP3   OH244890   1.967   4.139   5.573  0.4345 -0.6459 -0.5525
 7800TIP3    H144891   1.882   4.104   5.545  0.8442 -2.2451  0.1642
 7800TIP3    H244892   2.029   4.105   5.509  0.6284 -0.0196 -0.6970
 7801TIP3   OH244893   1.104   3.479   1.547 -0.1282  0.5939 -0.2473
 7801TIP3    H144894   1.048   3.508   1.475 -0.6451  1.6841  0.5846
 7801TIP3    H244895   1.053   3.409   1.590  0.0353  0.1784 -0.7247
 7802TIP3   OH244896   4.388   0.176  15.199  0.2337 -0.5568  0.0033
 7802TIP3    H144897   4.474   0.172  15.243  0.4192  0.5657 -0.2369
 7802TIP3    H244898   4.391   0.106  15.134  0.0544 -2.0716  1.6027
 7803TIP3   OH244899   4.218   0.102  14.948  0.6545 -0.0012  0.7546
 7803TIP3    H144900   4.286   0.168  14.963  1.2373 -0.6833  1.1637
 7803TIP3    H244901   4.243   0.028  15.004 -0.8360  0.0269  1.4727
 7804TIP3   OH244902   1.608   4.364  14.085 -0.0223  0.3921 -0.1210
 7804TIP3    H144903   1.580   4.273  14.070  2.3130  0.0392 -2.6406
 7804TIP3    H244904   1.699   4.357  14.114 -0.7087  1.8213  2.5506
 7805TIP3   OH244905   3.078   1.202  11.717 -0.6596 -0.1485 -0.5969
 7805TIP3    H144906   3.161   1.175  11.678 -0.9473 -1.9736 -0.0002
 7805TIP3    H244907   3.103   1.248  11.797 -0.1908  0.4402 -1.0754
 7806TIP3   OH244908   0.711   5.599   6.069  0.2521  0.6159  0.4723
 7806TIP3    H144909   0.641   5.534   6.073 -1.1496  2.0066 -0.7013
 7806TIP3    H244910   0.791   5.550   6.087 -0.8147 -1.3569 -0.0383
 7807TIP3   OH244911   3.289   2.332  16.939  0.2225 -0.2847  0.9011
 7807TIP3    H144912   3.283   2.342  16.844 -0.9466 -0.5174  0.9374
 7807TIP3    H244913   3.342   2.253  16.951  1.0419  0.1959  0.4568
 7808TIP3   OH244914   5.920   5.214  14.850 -0.1936  0.4846  0.4842
 7808TIP3    H144915   5.888   5.147  14.790 -1.2459 -0.3387  1.9415
 7808TIP3    H244916   5.995   5.174  14.893  0.1384  0.8241  0.2270
 7809TIP3   OH244917   3.070   6.573   0.789 -0.0966  0.4402  0.3618
 7809TIP3    H144918   3.037   6.577   0.879  0.2306 -0.7006  0.5407
 7809TIP3    H244919   3.042   6.487   0.757  1.2317  0.1515 -0.0600
 7810TIP3   OH244920   3.073   2.250  15.111 -0.1134  0.9470  0.0103
 7810TIP3    H144921   3.019   2.196  15.169  1.7594 -2.3122 -1.1349
 7810TIP3    H244922   3.129   2.300  15.171 -2.2322  2.0594  1.1159
 7811TIP3   OH244923   0.049   3.170   4.444 -0.0028  0.3169  0.0185
 7811TIP3    H144924  -0.017   3.161   4.376 -0.8573 -0.2607  0.9045
 7811TIP3    H244925   0.125   3.124   4.410  0.2334  1.6718 -1.3570
 7812TIP3   OH244926   0.071   5.644   2.065 -0.1435 -0.0638 -0.5134
 7812TIP3    H144927   0.052   5.567   2.011  0.9327 -0.5707 -0.1860
 7812TIP3    H244928   0.000   5.645   2.130 -0.5351 -0.3935 -0.9324
 7813TIP3   OH244929   3.914   0.470  15.719 -0.0944  0.3768  0.1161
 7813TIP3    H144930   3.886   0.472  15.811  1.5712  0.7768  0.6337
 7813TIP3    H244931   3.963   0.388  15.711 -0.2688  0.3287 -0.4199
 7814TIP3   OH244932   3.089   1.409  12.964 -0.2801  0.1566 -0.5481
 7814TIP3    H144933   3.149   1.477  12.933  0.4331 -0.6666 -0.9840
 7814TIP3    H244934   3.077   1.351  12.889  1.5961 -1.9438  0.7082
 7815TIP3   OH244935   5.346   3.368   1.315  0.2051  0.4555  0.0411
 7815TIP3    H144936   5.400   3.314   1.257 -0.6064  1.5471 -1.7658
 7815TIP3    H244937   5.359   3.457   1.283 -0.5225  1.0327  1.3393
 7816TIP3   OH244938   1.330   0.951  16.018  0.3242 -0.0234  0.2757
 7816TIP3    H144939   1.415   0.907  16.022  0.7964  0.9397  1.1230
 7816TIP3    H244940   1.291   0.921  15.936  1.7020 -0.0798 -0.3723
 7817TIP3   OH244941   4.577   6.381   2.406  0.4219 -0.1659  0.0055
 7817TIP3    H144942   4.490   6.417   2.389  0.5240  0.4660  0.7883
 7817TIP3    H244943   4.630   6.411   2.332  0.1284 -0.0057 -0.1388
 7818TIP3   OH244944   3.907   1.151  12.295  0.2507 -0.3539 -0.3135
 7818TIP3    H144945   3.945   1.078  12.345  1.8204  0.2293 -0.6255
 7818TIP3    H244946   3.943   1.140  12.206 -0.6595 -0.0319 -0.7278
 7819TIP3   OH244947   5.292   6.651  15.010 -0.0699 -0.0300 -0.5320
 7819TIP3    H144948   5.317   6.559  15.008 -0.0684 -0.0378 -0.2011
 7819TIP3    H244949   5.354   6.691  15.071 -0.5703  0.0394 -0.0676
 7820TIP3   OH244950   2.378   2.639  13.022  0.0024 -0.7493  0.2968
 7820TIP3    H144951   2.368   2.643  13.117 -0.9528 -0.3330  0.1861
 7820TIP3    H244952   2.331   2.716  12.990 -0.6150 -1.4830 -0.5774
 7821TIP3   OH244953   3.626   3.947  16.346 -0.1342 -0.5112 -0.7544
 7821TIP3    H144954   3.671   3.995  16.276 -0.3406  0.5428 -0.1774
 7821TIP3    H244955   3.696   3.905  16.395 -0.0209 -1.7161 -1.9147
 7822TIP3   OH244956   1.558   3.749  13.140  0.3940  0.5963 -0.4454
 7822TIP3    H144957   1.472   3.742  13.181 -0.2156  2.2328 -1.4043
 7822TIP3    H244958   1.595   3.661  13.145 -0.4270  0.3425  1.9384
 7823TIP3   OH244959   1.823   4.392   2.347  0.0234 -0.0890 -0.1913
 7823TIP3    H144960   1.779   4.344   2.277  1.0359 -0.7893 -0.3547
 7823TIP3    H244961   1.895   4.437   2.304 -0.7421  1.3582  0.0135
 7824TIP3   OH244962   4.555   1.578  12.653 -0.1443 -0.4969  0.4009
 7824TIP3    H144963   4.514   1.613  12.732 -1.5418 -1.3948  0.0892
 7824TIP3    H244964   4.647   1.569  12.676 -0.4225 -0.1102  1.7005
 7825TIP3   OH244965   0.551   1.156   4.341  0.3587  0.3793  0.0329
 7825TIP3    H144966   0.512   1.228   4.291 -1.1932  1.2873  2.4904
 7825TIP3    H244967   0.527   1.174   4.432 -0.3134 -3.3765  0.6819
 7826TIP3   OH244968   3.947   6.452  17.192  0.7419  0.6261  0.5512
 7826TIP3    H144969   4.004   6.400  17.250  0.9830  1.0445  0.6952
 7826TIP3    H244970   4.007   6.490  17.128  0.1545 -2.0009 -1.6533
 7827TIP3   OH244971   3.780   0.988   0.360  0.1751 -0.1145  0.2958
 7827TIP3    H144972   3.702   0.980   0.306 -0.3215 -2.2169  1.2857
 7827TIP3    H244973   3.754   1.047   0.431 -0.0832  0.2532 -0.0986
 7828TIP3   OH244974   3.276   4.617  16.555  0.1493  0.1485  0.3594
 7828TIP3    H144975   3.205   4.553  16.549  0.2009  0.0602  0.6953
 7828TIP3    H244976   3.344   4.574  16.607 -0.1713  0.7849  1.3270
 7829TIP3   OH244977   3.354   3.984  14.688  0.0905 -0.1175 -0.4508
 7829TIP3    H144978   3.413   3.918  14.723 -0.4991 -0.5053 -0.1749
 7829TIP3    H244979   3.267   3.953  14.713 -0.1212  1.3259  0.6326
 7830TIP3   OH244980   2.237   6.289   5.325  0.4128  0.3254  0.3544
 7830TIP3    H144981   2.314   6.345   5.328 -0.7786  2.0655 -0.8409
 7830TIP3    H244982   2.269   6.206   5.288  1.8084  0.8145  0.4421
 7831TIP3   OH244983   0.969   4.602   5.427  0.6734  0.1848  0.4467
 7831TIP3    H144984   1.065   4.601   5.434  0.7191 -1.4278 -0.2451
 7831TIP3    H244985   0.944   4.511   5.436 -0.5092  0.0525 -3.3628
 7832TIP3   OH244986   3.383   1.736  10.737 -0.0381 -0.6632  0.3282
 7832TIP3    H144987   3.411   1.827  10.724  1.1163 -1.0925 -0.3312
 7832TIP3    H244988   3.298   1.730  10.694  0.6081 -0.2847 -1.0317
 7833TIP3   OH244989   1.652   0.854  16.391  0.0473  0.0150 -0.0890
 7833TIP3    H144990   1.716   0.798  16.435  1.4309  0.5372 -1.3653
 7833TIP3    H244991   1.581   0.865  16.454  1.9496  0.7141  2.0003
 7834TIP3   OH244992   3.391   4.749  13.746 -0.2138  0.0425  0.8067
 7834TIP3    H144993   3.331   4.674  13.740  2.2885 -1.9465 -0.1470
 7834TIP3    H244994   3.419   4.750  13.837 -0.3983 -0.0676  0.8661
 7835TIP3   OH244995   2.130   1.615  16.066  0.3930 -0.3392 -0.1235
 7835TIP3    H144996   2.095   1.648  15.983 -0.7387 -0.7499  0.1862
 7835TIP3    H244997   2.223   1.601  16.048 -0.2083 -2.4223 -1.9648
 7836TIP3   OH244998   4.632   3.146   3.375  0.2056  0.5633  0.2972
 7836TIP3    H144999   4.644   3.172   3.466  1.6720  0.9809  0.0034
 7836TIP3    H245000   4.570   3.210   3.340  1.8905  2.2504  0.2440
 7837TIP3   OH245001   0.894   3.270   3.571  0.1940  0.4905  0.9964
 7837TIP3    H145002   0.990   3.279   3.570  0.0762  1.8383 -0.1178
 7837TIP3    H245003   0.863   3.347   3.523 -1.5096  0.6206  2.2919
 7838TIP3   OH245004   3.437   1.415   5.833 -0.1752  0.3570  0.2815
 7838TIP3    H145005   3.527   1.430   5.863 -0.7989  1.5438  1.6200
 7838TIP3    H245006   3.399   1.358   5.901 -0.8204  0.9183  0.3942
 7839TIP3   OH245007   1.571   3.601   1.639 -0.0603  0.1561 -0.5275
 7839TIP3    H145008   1.620   3.603   1.721  2.0620  0.6858 -1.7857
 7839TIP3    H245009   1.479   3.604   1.666  0.6198  0.5642  1.8118
 7840TIP3   OH245010   5.950   6.140  15.440 -0.5552 -0.2841 -0.0294
 7840TIP3    H145011   5.877   6.128  15.379  0.9919  1.8868 -2.4144
 7840TIP3    H245012   5.913   6.192  15.511 -1.7984 -0.8164 -0.2706
 7841TIP3   OH245013   2.556   1.882   2.586  0.0630  0.6903 -0.0995
 7841TIP3    H145014   2.490   1.840   2.641 -1.1473 -0.3168 -2.2377
 7841TIP3    H245015   2.515   1.963   2.557  0.3181  0.7578 -0.2733
 7842TIP3   OH245016   4.834   6.532   4.932 -0.6396 -0.2546  0.9249
 7842TIP3    H145017   4.810   6.485   4.852  1.8782 -0.5472  0.3039
 7842TIP3    H245018   4.782   6.612   4.928 -1.2693 -0.7137 -0.5372
 7843TIP3   OH245019   4.128   5.794  11.980 -0.0948 -0.6851 -0.1940
 7843TIP3    H145020   4.104   5.807  12.071  0.7251  0.1634 -0.0936
 7843TIP3    H245021   4.114   5.880  11.939 -1.8740 -1.4164 -1.2036
 7844TIP3   OH245022   2.441   5.028  14.877 -0.2824  0.6906 -0.0795
 7844TIP3    H145023   2.484   4.993  14.799  0.9670 -1.0142  1.3082
 7844TIP3    H245024   2.510   5.075  14.923 -0.3017 -0.5400  1.2696
 7845TIP3   OH245025   0.316   3.687  12.413 -0.1256  0.4777 -0.2844
 7845TIP3    H145026   0.312   3.774  12.453 -1.0059 -0.2943  1.3898
 7845TIP3    H245027   0.226   3.655  12.415  0.4681 -1.2080  0.8599
 7846TIP3   OH245028   2.403   5.023   0.547  0.1499 -0.5768  0.4106
 7846TIP3    H145029   2.402   5.003   0.641  0.4469  0.8046  0.7154
 7846TIP3    H245030   2.441   5.111   0.542 -1.4603  0.0636 -0.8833
 7847TIP3   OH245031   5.353   0.715   1.303  0.6422  0.0696 -0.4976
 7847TIP3    H145032   5.354   0.631   1.256  2.6358 -1.4959  2.2330
 7847TIP3    H245033   5.443   0.746   1.300  0.1189  1.6665 -0.6096
 7848TIP3   OH245034   5.543   0.347  12.614 -0.2156 -0.3361  0.3322
 7848TIP3    H145035   5.591   0.367  12.694 -0.9150  0.1892  0.6184
 7848TIP3    H245036   5.453   0.372  12.632 -0.5405 -1.0132 -0.3244
 7849TIP3   OH245037   5.193   6.597  11.799 -0.8254 -0.6918 -0.3511
 7849TIP3    H145038   5.210   6.683  11.836  1.9518 -1.3052 -0.0417
 7849TIP3    H245039   5.117   6.564  11.847 -0.2410  0.4778  1.4262
 7850TIP3   OH245040   4.605   2.586  15.200  0.1547 -0.0866  0.5789
 7850TIP3    H145041   4.684   2.602  15.150 -0.3857 -1.3258 -0.6817
 7850TIP3    H245042   4.621   2.503  15.245 -0.8117 -0.8740 -0.4957
 7851TIP3   OH245043   2.426   6.188  12.540 -0.0166  0.4952  0.0906
 7851TIP3    H145044   2.332   6.171  12.545  0.2131 -0.3567  1.8054
 7851TIP3    H245045   2.433   6.283  12.528 -1.0912  0.5165 -0.4603
 7852TIP3   OH245046   3.558   4.518  12.156 -0.0215  0.1814  0.0578
 7852TIP3    H145047   3.503   4.514  12.234  0.7223 -1.9783  0.5193
 7852TIP3    H245048   3.524   4.448  12.100  0.8197  0.3060 -0.6126
 7853TIP3   OH245049   2.857   4.905   4.135 -0.3081  0.2477  0.1362
 7853TIP3    H145050   2.863   4.826   4.190  0.7096  0.6761  0.6550
 7853TIP3    H245051   2.931   4.959   4.163 -0.9545  1.3526 -0.2840
 7854TIP3   OH245052   0.584   5.777  16.650 -0.0848  0.1070 -0.0447
 7854TIP3    H145053   0.666   5.819  16.623 -0.5674  0.2637 -1.3030
 7854TIP3    H245054   0.568   5.809  16.738  0.6139  0.9706 -0.2335
 7855TIP3   OH245055   0.598   2.319   5.075  0.5193  0.1513 -0.2916
 7855TIP3    H145056   0.538   2.393   5.083 -0.4879 -0.4031 -2.4369
 7855TIP3    H245057   0.685   2.358   5.075 -0.0620  1.5498 -3.4251
 7856TIP3   OH245058   3.059   5.539   4.292  0.0400 -0.3648  0.0218
 7856TIP3    H145059   3.099   5.606   4.237  1.8474 -0.8315  0.7399
 7856TIP3    H245060   3.107   5.459   4.270 -1.8188 -1.3449 -0.5218
 7857TIP3   OH245061   3.060   5.421   5.946 -0.9140  0.1756 -0.1081
 7857TIP3    H145062   3.155   5.408   5.937 -1.0461  0.2794 -1.9741
 7857TIP3    H245063   3.029   5.344   5.993 -0.4398 -1.9888 -3.1321
 7858TIP3   OH245064   6.428   3.096  16.616 -0.2928 -0.8053  0.2165
 7858TIP3    H145065   6.399   3.079  16.705  0.7785 -0.5021  0.6323
 7858TIP3    H245066   6.403   3.018  16.567  2.1028 -2.4378  1.5018
 7859TIP3   OH245067   3.102   5.464   1.747 -0.1553 -0.2232  0.3501
 7859TIP3    H145068   3.190   5.486   1.777  0.0843 -0.0021 -0.4966
 7859TIP3    H245069   3.066   5.548   1.717 -0.3059 -0.4740 -0.1793
 7860TIP3   OH245070   0.279   5.527  12.448 -0.0170  0.1936  0.1343
 7860TIP3    H145071   0.245   5.616  12.450  1.4806  0.7833  0.5028
 7860TIP3    H245072   0.337   5.525  12.372 -1.5651 -1.0570 -1.0285
 7861TIP3   OH245073   0.509   3.489  13.507 -0.1457  0.4362 -0.4950
 7861TIP3    H145074   0.453   3.564  13.525 -0.7956  0.1701 -1.3412
 7861TIP3    H245075   0.448   3.420  13.481  0.4445 -0.3735  0.2554
 7862TIP3   OH245076   4.196   0.019   6.190  0.1188 -0.1930 -0.1118
 7862TIP3    H145077   4.242  -0.053   6.146 -0.5585  0.6008 -2.2115
 7862TIP3    H245078   4.104  -0.008   6.190 -0.3372  1.2089 -2.1349
 7863TIP3   OH245079   1.660   2.470   6.002  0.3650 -0.0552 -0.0803
 7863TIP3    H145080   1.740   2.437   5.962 -0.5187  0.0515 -1.9772
 7863TIP3    H245081   1.622   2.528   5.936 -0.5074  1.0963  1.3902
 7864TIP3   OH245082   1.651   3.970   1.313  0.5184  0.4537  0.0915
 7864TIP3    H145083   1.693   4.055   1.302  0.8632  0.0253 -2.0325
 7864TIP3    H245084   1.561   3.982   1.284  0.8033 -0.1197 -1.0478
 7865TIP3   OH245085   3.320   3.148   4.063 -0.2120  0.3439 -0.8047
 7865TIP3    H145086   3.230   3.116   4.066 -0.5873  1.4383  0.0539
 7865TIP3    H245087   3.320   3.224   4.122  1.1064  0.7574 -1.3246
 7866TIP3   OH245088   4.078   3.411   3.901 -0.7434 -0.3245 -0.3339
 7866TIP3    H145089   4.069   3.342   3.967  0.6710 -0.4424 -0.2407
 7866TIP3    H245090   4.000   3.464   3.911 -0.6372 -0.4584  1.3192
 7867TIP3   OH245091   1.213   5.039  12.082  0.2666  0.0921 -0.6559
 7867TIP3    H145092   1.170   4.955  12.067 -1.6772  0.4256  2.5282
 7867TIP3    H245093   1.264   5.027  12.163  0.1827  1.8694 -0.3040
 7868TIP3   OH245094   5.560   0.932  17.138 -0.0608 -0.4425 -0.5526
 7868TIP3    H145095   5.533   0.853  17.092  0.2171 -1.5498  1.1248
 7868TIP3    H245096   5.548   0.911  17.231 -0.8493  1.8096 -0.1120
 7869TIP3   OH245097   0.596   2.979  15.636  0.1607  0.7840  0.0694
 7869TIP3    H145098   0.610   2.945  15.547 -0.8696 -0.8669  0.5166
 7869TIP3    H245099   0.684   3.006  15.665  0.2465  2.9359 -2.0525
 7870TIP3   OH245100   5.811   2.161   0.996 -0.2913 -0.3579 -0.4936
 7870TIP3    H145101   5.719   2.135   0.994 -0.9331  1.7995 -0.1220
 7870TIP3    H245102   5.834   2.172   0.903 -0.6634 -0.0887 -0.5576
 7871TIP3   OH245103   0.806   5.447  11.883  0.6710 -0.1131  0.0926
 7871TIP3    H145104   0.796   5.397  11.802  1.9562 -3.1942  1.7376
 7871TIP3    H245105   0.861   5.522  11.858 -1.6219  0.8197 -2.5127
 7872TIP3   OH245106   5.962   5.556   1.712  0.2823  0.0475  0.0414
 7872TIP3    H145107   5.941   5.570   1.619  1.5213 -1.2102 -0.4452
 7872TIP3    H245108   5.919   5.473   1.734 -1.3425  1.1172  1.0553
 7873TIP3   OH245109   3.798   1.769   2.464 -0.1105 -0.0042 -0.3125
 7873TIP3    H145110   3.750   1.687   2.459  1.3487 -0.8824 -0.1403
 7873TIP3    H245111   3.875   1.755   2.409  0.4448  1.0538  0.1795
 7874TIP3   OH245112   4.176   2.503   4.536  0.4725  0.1933 -0.4749
 7874TIP3    H145113   4.239   2.506   4.608  0.5873 -2.0491 -0.4477
 7874TIP3    H245114   4.105   2.560   4.564  1.2002  0.5136  0.7560
 7875TIP3   OH245115   2.043   3.979   2.877 -0.4426  0.1815  0.1125
 7875TIP3    H145116   2.132   3.946   2.864  0.2096  1.9824 -0.0191
 7875TIP3    H245117   2.026   4.033   2.800 -0.8070  1.6792  1.2249
 7876TIP3   OH245118   1.955   6.328  16.660  0.0201 -0.1894  0.2617
 7876TIP3    H145119   1.933   6.387  16.588  1.0105  0.0950  0.1871
 7876TIP3    H245120   2.029   6.276  16.627 -2.2732 -3.1157 -0.5622
 7877TIP3   OH245121   4.857   5.419  17.079  0.7042 -0.2452 -0.3531
 7877TIP3    H145122   4.933   5.461  17.039  0.9283  0.0866  0.4066
 7877TIP3    H245123   4.788   5.427  17.013  1.0810  0.2415 -0.6965
 7878TIP3   OH245124   1.898   6.522  16.479  0.5688 -0.0308  0.5140
 7878TIP3    H145125   1.924   6.576  16.553  1.8517 -1.7418  1.3682
 7878TIP3    H245126   1.940   6.562  16.403 -0.3356  1.4381  0.7748
 7879TIP3   OH245127   5.062   2.565  17.247 -0.4188  0.0445  0.4060
 7879TIP3    H145128   5.124   2.604  17.309 -0.9710  1.2146  0.2517
 7879TIP3    H245129   5.115   2.546  17.170 -0.0838  0.3004  0.5680
 7880TIP3   OH245130   3.052   6.683   3.414 -0.4744  0.3687  0.6624
 7880TIP3    H145131   2.958   6.701   3.425 -0.6508  1.0518 -1.7882
 7880TIP3    H245132   3.057   6.626   3.337  1.2912  2.2071 -0.6336
 7881TIP3   OH245133   2.920   4.519   4.169  0.3141  0.7114 -0.1183
 7881TIP3    H145134   2.850   4.582   4.188  0.5115  1.1226 -0.7483
 7881TIP3    H245135   2.978   4.525   4.246 -1.5171 -1.2849  1.4680
 7882TIP3   OH245136   0.659   0.494  11.987 -0.3340  0.1300 -0.1213
 7882TIP3    H145137   0.608   0.489  11.906 -1.8991  1.6588  0.7141
 7882TIP3    H245138   0.624   0.424  12.042 -0.8095  0.5062  0.0564
 7883TIP3   OH245139   5.355   4.559  14.191 -0.6768  0.2732 -0.3292
 7883TIP3    H145140   5.330   4.582  14.280  0.4284 -3.0963  0.9104
 7883TIP3    H245141   5.300   4.484  14.169  1.7480 -1.3815 -0.9956
 7884TIP3   OH245142   5.391   3.923  16.218 -0.2760 -0.4081 -0.6830
 7884TIP3    H145143   5.402   3.915  16.312 -2.4951  0.3168 -0.3353
 7884TIP3    H245144   5.379   3.833  16.187  1.6047 -0.7597 -0.4568
 7885TIP3   OH245145   3.299   5.912   2.545  0.0571 -0.3061  0.4250
 7885TIP3    H145146   3.206   5.904   2.527 -0.1937 -0.1690  1.6253
 7885TIP3    H245147   3.340   5.848   2.487 -0.7366 -0.0124 -0.4605
 7886TIP3   OH245148   5.255   0.391  14.940 -0.7009 -0.2853 -0.2122
 7886TIP3    H145149   5.327   0.379  14.877 -1.3288  1.1938 -1.2366
 7886TIP3    H245150   5.176   0.391  14.885 -1.4831 -1.7387  0.8856
 7887TIP3   OH245151   6.098   2.419  12.587  0.2045  0.1495 -0.1190
 7887TIP3    H145152   6.153   2.345  12.614 -1.3889 -0.7873  0.6104
 7887TIP3    H245153   6.071   2.398  12.498  1.3057  0.7956 -0.6233
 7888TIP3   OH245154   6.060   4.757   2.103  0.0628  0.0909 -0.0829
 7888TIP3    H145155   6.005   4.797   2.170 -1.8244  0.3584 -1.7386
 7888TIP3    H245156   6.007   4.759   2.024  2.6015  0.7189 -1.8579
 7889TIP3   OH245157   2.713   1.901   3.067 -0.6594  0.2243  0.3477
 7889TIP3    H145158   2.684   1.853   3.144  0.4776 -0.0177  0.6273
 7889TIP3    H245159   2.808   1.888   3.064 -0.6784  0.3114 -1.0290
 7890TIP3   OH245160   5.266   0.250   3.833  0.3358  0.1262  0.2377
 7890TIP3    H145161   5.254   0.250   3.928  0.8871 -0.6737  0.3095
 7890TIP3    H245162   5.356   0.220   3.820  0.2242  0.1195 -0.5384
 7891TIP3   OH245163   6.399   3.305   2.739 -0.0293  0.4488  0.0217
 7891TIP3    H145164   6.458   3.256   2.797  0.5424  1.5141  0.3540
 7891TIP3    H245165   6.311   3.278   2.766  0.3001 -1.2381 -0.5443
 7892TIP3   OH245166   1.572   4.920   0.782  0.5429  0.3636  1.2673
 7892TIP3    H145167   1.490   4.965   0.805  0.6164  0.2264  1.8233
 7892TIP3    H245168   1.577   4.926   0.687 -1.9763 -2.8070  0.8551
 7893TIP3   OH245169   3.069   6.409  15.853  0.1783  0.2436  0.7129
 7893TIP3    H145170   3.116   6.357  15.918  1.5646  1.0163  0.3595
 7893TIP3    H245171   3.078   6.500  15.884  0.6750  0.5957 -0.4222
 7894TIP3   OH245172   0.213   3.877  15.571 -0.0941  0.4635 -0.2667
 7894TIP3    H145173   0.288   3.923  15.607  0.8132 -1.2027 -0.0058
 7894TIP3    H245174   0.188   3.814  15.639 -0.0755 -0.8122 -1.4371
 7895TIP3   OH245175   3.881   4.006   4.863 -0.7820  0.1960  0.0205
 7895TIP3    H145176   3.813   4.033   4.923 -2.2128 -1.7251 -0.6653
 7895TIP3    H245177   3.957   4.059   4.886 -1.0619 -0.9922  3.9741
 7896TIP3   OH245178   0.015   6.718  16.539 -0.2127 -0.1815 -0.6011
 7896TIP3    H145179  -0.003   6.798  16.588 -4.2151 -1.7125  0.6371
 7896TIP3    H245180   0.012   6.744  16.447  0.5011  1.4401 -0.1683
 7897TIP3   OH245181   2.396   0.486   2.588 -0.1283 -0.1493  0.3970
 7897TIP3    H145182   2.441   0.402   2.602 -0.2720  0.0386  2.0184
 7897TIP3    H245183   2.312   0.476   2.631 -0.3117  0.6977  0.2452
 7898TIP3   OH245184   2.000   3.630   3.144 -0.2838 -0.1253 -0.1248
 7898TIP3    H145185   1.909   3.656   3.129 -0.3848 -0.5538 -0.2447
 7898TIP3    H245186   1.995   3.556   3.204 -0.0019 -0.0072  0.0478
 7899TIP3   OH245187   2.174   5.173  15.345 -0.1397 -0.3325  0.4928
 7899TIP3    H145188   2.243   5.231  15.313  0.3731 -1.4662 -0.5095
 7899TIP3    H245189   2.135   5.219  15.419 -0.6258  1.8890 -1.1114
 7900TIP3   OH245190   6.730   0.271  15.278  0.2097 -0.2238  0.4942
 7900TIP3    H145191   6.687   0.347  15.238 -1.8792 -1.9913 -0.7269
 7900TIP3    H245192   6.750   0.299  15.367 -1.5633  1.3937  0.4130
 7901TIP3   OH245193   4.587   4.345  14.981 -0.4081  0.2422  0.1855
 7901TIP3    H145194   4.635   4.299  14.912  0.7992  1.8201 -0.0427
 7901TIP3    H245195   4.549   4.421  14.938 -0.5221  0.6850  1.0530
 7902TIP3   OH245196   3.579   6.341  14.841 -0.0662  0.0453  0.1290
 7902TIP3    H145197   3.668   6.359  14.810 -0.5240 -0.4109 -1.5125
 7902TIP3    H245198   3.545   6.275  14.781 -1.9027  1.0005  0.0590
 7903TIP3   OH245199   4.075   4.527  11.872 -0.4039 -0.0495 -0.2507
 7903TIP3    H145200   3.988   4.505  11.907  0.4859 -1.3976  1.2136
 7903TIP3    H245201   4.063   4.611  11.829 -2.7887 -0.9340 -1.4222
 7904TIP3   OH245202   6.040   2.006   0.471  0.0141 -0.1149  0.0889
 7904TIP3    H145203   6.011   1.944   0.404 -1.2350  0.0681  0.4318
 7904TIP3    H245204   6.088   2.074   0.423 -2.7153  1.1645 -0.9623
 7905TIP3   OH245205   2.665   6.339  13.085  0.6665  0.4898  0.2250
 7905TIP3    H145206   2.751   6.330  13.045  1.3534 -0.9684  1.9707
 7905TIP3    H245207   2.628   6.251  13.086  0.2852  0.6446  1.9067
 7906TIP3   OH245208   6.640   0.283  15.832 -0.1471 -0.2687 -0.5022
 7906TIP3    H145209   6.725   0.249  15.860  0.4350 -0.0182 -1.9048
 7906TIP3    H245210   6.588   0.204  15.815 -0.4382 -0.4199  1.0252
 7907TIP3   OH245211   6.648   4.533  11.201  0.4955 -0.7267 -0.1028
 7907TIP3    H145212   6.711   4.461  11.201  0.2438 -0.9448 -0.6378
 7907TIP3    H245213   6.697   4.607  11.236  0.6376 -1.2556  0.8463
 7908TIP3   OH245214   6.157   2.715   3.959 -0.3486 -0.0485  0.2393
 7908TIP3    H145215   6.109   2.711   4.042  0.6571  0.5177  0.8570
 7908TIP3    H245216   6.248   2.699   3.983 -0.0592  0.0616 -0.7728
 7909TIP3   OH245217   1.904   1.215   4.134 -0.6634 -0.2018 -0.1778
 7909TIP3    H145218   1.827   1.239   4.185 -0.3325 -1.3484  0.8767
 7909TIP3    H245219   1.945   1.299   4.111 -0.0111  0.3199  2.7010
 7910TIP3   OH245220   1.543   5.625   2.028 -0.4390 -0.4702 -0.0847
 7910TIP3    H145221   1.481   5.643   1.958  0.1536  1.6036 -0.1424
 7910TIP3    H245222   1.576   5.712   2.052  0.6688 -1.3243  1.5471
 7911TIP3   OH245223   4.664   3.347   2.098  0.3205  0.6017  0.4477
 7911TIP3    H145224   4.754   3.381   2.089  0.8801 -0.4828  1.7979
 7911TIP3    H245225   4.675   3.255   2.122 -1.1212  0.7865  1.9378
 7912TIP3   OH245226   5.378   2.135  12.303  0.3541  0.1334  0.0535
 7912TIP3    H145227   5.347   2.215  12.260 -0.0914 -0.1294 -0.1197
 7912TIP3    H245228   5.447   2.165  12.362 -0.7714  0.8340  1.0310
 7913TIP3   OH245229   6.209   5.394  11.626  0.3845  0.2010 -0.3522
 7913TIP3    H145230   6.244   5.384  11.537  0.2860 -1.5153 -0.2070
 7913TIP3    H245231   6.284   5.379  11.683  0.7579  2.6498 -0.1368
 7914TIP3   OH245232   0.450   6.234  16.298 -0.0141  0.3854  0.0685
 7914TIP3    H145233   0.471   6.181  16.375 -0.4028 -1.5300 -1.1190
 7914TIP3    H245234   0.413   6.314  16.334 -0.1102 -0.4436  1.8903
 7915TIP3   OH245235   6.275   4.170   2.889 -0.1879  0.1032  0.1783
 7915TIP3    H145236   6.225   4.090   2.906 -1.2873  0.4286 -1.4120
 7915TIP3    H245237   6.342   4.143   2.826 -0.8305  0.5093 -0.6910
 7916TIP3   OH245238   2.648   2.801  14.712 -0.1191  0.2408  0.5539
 7916TIP3    H145239   2.692   2.797  14.627  0.7695 -0.0228  1.0176
 7916TIP3    H245240   2.582   2.731  14.708 -0.8458  0.9564 -0.3245
 7917TIP3   OH245241   1.044   4.841  12.674 -0.5934 -0.5117 -0.2458
 7917TIP3    H145242   1.100   4.908  12.637  0.0931  0.0284  1.7023
 7917TIP3    H245243   1.053   4.766  12.616  0.2733  0.3828 -1.2633
 7918TIP3   OH245244   1.567   1.658   4.695  0.5345 -0.8224  0.6131
 7918TIP3    H145245   1.557   1.610   4.613  0.7138 -0.0833  0.1499
 7918TIP3    H245246   1.585   1.591   4.761 -0.7340 -1.5235  0.2549
 7919TIP3   OH245247   5.327   6.170   4.360 -0.3827  0.4883  0.6737
 7919TIP3    H145248   5.256   6.141   4.417 -0.2028  1.5387  1.4331
 7919TIP3    H245249   5.394   6.102   4.370 -1.7927 -1.2061 -1.0773
 7920TIP3   OH245250   5.926   2.502  13.887  0.2814  0.2351 -0.2427
 7920TIP3    H145251   5.892   2.488  13.799 -0.4269  0.5280 -0.0255
 7920TIP3    H245252   5.930   2.414  13.925 -0.9639  0.2692 -0.0168
 7921TIP3   OH245253   4.692   3.568  17.175 -0.7804 -0.1360 -0.2186
 7921TIP3    H145254   4.759   3.511  17.137  1.7363  2.7362 -0.3082
 7921TIP3    H245255   4.664   3.623  17.102  0.6893  2.2453  0.9372
 7922TIP3   OH245256   0.272   6.685   2.786  0.9506 -0.1493  1.2378
 7922TIP3    H145257   0.360   6.664   2.754  0.0885  1.0155 -2.1256
 7922TIP3    H245258   0.213   6.647   2.721 -0.9660  1.0477  2.2395
 7923TIP3   OH245259   5.762   2.165   6.658 -0.5264  0.3039 -0.1726
 7923TIP3    H145260   5.681   2.133   6.698  0.5474 -1.1072  0.9494
 7923TIP3    H245261   5.737   2.192   6.570 -2.3559  0.6065  0.4244
 7924TIP3   OH245262   2.534   5.050  15.881 -0.0105  0.5345  0.0524
 7924TIP3    H145263   2.471   5.020  15.946 -0.8375  0.1141 -0.9127
 7924TIP3    H245264   2.487   5.117  15.831 -0.4802 -1.3415 -2.0993
 7925TIP3   OH245265   6.047   2.785  15.893 -0.3807 -0.4716 -0.3042
 7925TIP3    H145266   6.036   2.826  15.979 -1.5932 -0.7898 -0.3027
 7925TIP3    H245267   6.107   2.712  15.908  1.6628  1.1658 -0.2665
 7926TIP3   OH245268   0.994   6.699   2.971 -0.3912 -0.4090 -0.2484
 7926TIP3    H145269   1.069   6.669   2.920  0.4212 -0.0529  0.7250
 7926TIP3    H245270   0.952   6.765   2.916  0.3663 -0.1651 -0.5353
 7927TIP3   OH245271   6.046   2.024  12.890  0.7805  0.0194 -0.3480
 7927TIP3    H145272   6.135   2.042  12.921  0.4046  0.6276  0.4122
 7927TIP3    H245273   6.050   1.935  12.855  1.7326  0.1119 -0.4899
 7928TIP3   OH245274   3.310   1.036   1.271  0.3275 -0.4412  1.1689
 7928TIP3    H145275   3.382   1.092   1.240 -0.2991 -0.7308 -0.8942
 7928TIP3    H245276   3.353   0.975   1.331  1.6116  0.0827  0.8229
 7929TIP3   OH245277   4.971   1.944  16.084  0.2907  0.1129 -0.4365
 7929TIP3    H145278   5.022   1.868  16.113  2.1718  1.8020  0.7996
 7929TIP3    H245279   4.900   1.951  16.148 -1.0747 -1.7359 -1.6770
 7930TIP3   OH245280   1.427   2.528   2.268 -0.3486  0.0251 -0.5059
 7930TIP3    H145281   1.359   2.539   2.334 -1.1177  0.8366 -1.4262
 7930TIP3    H245282   1.441   2.433   2.264 -1.0095 -0.1016  0.1070
 7931TIP3   OH245283   4.995   4.184   4.436 -0.0558 -0.0526  0.3367
 7931TIP3    H145284   4.957   4.271   4.445 -1.7880 -0.8625  1.2226
 7931TIP3    H245285   4.987   4.146   4.523 -0.1894 -1.4357 -0.2661
 7932TIP3   OH245286   0.228   4.851   3.927  0.5007  0.2531 -0.1714
 7932TIP3    H145287   0.244   4.853   4.021  1.0945  0.0676 -0.2646
 7932TIP3    H245288   0.165   4.922   3.911  1.0811  0.8642  0.2383
 7933TIP3   OH245289   0.976   6.228   6.201  0.4956  0.6965  0.1754
 7933TIP3    H145290   1.037   6.156   6.216 -1.4083 -0.7343  1.3307
 7933TIP3    H245291   1.028   6.307   6.213  3.1422 -0.4340 -3.2413
 7934TIP3   OH245292   3.872   5.636  13.127  0.2740 -0.0284  0.3556
 7934TIP3    H145293   3.825   5.665  13.049 -0.5355 -2.3034 -0.0496
 7934TIP3    H245294   3.909   5.716  13.164 -0.1110  1.2075 -1.8393
 7935TIP3   OH245295   5.780   4.458  16.423 -0.7483 -0.2678  0.3817
 7935TIP3    H145296   5.715   4.424  16.363 -0.7803 -0.0893  0.3127
 7935TIP3    H245297   5.852   4.488  16.367 -0.3434 -1.0183  0.4905
 7936TIP3   OH245298   6.557   2.017  11.477 -0.1992 -0.3765 -1.0273
 7936TIP3    H145299   6.514   1.983  11.556 -1.4493  2.2362 -0.5577
 7936TIP3    H245300   6.647   2.032  11.505 -1.3053  3.4073  0.8845
 7937TIP3   OH245301   0.298   0.379  16.033  0.1257 -0.2564  0.1120
 7937TIP3    H145302   0.227   0.314  16.026 -0.1957  0.0789  0.2357
 7937TIP3    H245303   0.370   0.331  16.073  0.0049 -0.6319 -0.1076
 7938TIP3   OH245304   1.804   3.016  15.764  0.4238 -0.3014  0.3033
 7938TIP3    H145305   1.883   2.987  15.808  0.0087 -2.2838 -0.2169
 7938TIP3    H245306   1.740   3.030  15.834  0.2050 -2.0347  0.4698
 7939TIP3   OH245307   3.276   5.196  14.327  0.4679  0.5423  0.1631
 7939TIP3    H145308   3.232   5.245  14.397 -0.3035  1.2856 -0.8419
 7939TIP3    H245309   3.219   5.205  14.251  0.6413 -1.3845 -0.2211
 7940TIP3   OH245310   1.850   0.939  15.331  0.3566  0.1227  0.3298
 7940TIP3    H145311   1.773   0.929  15.387  0.2131 -2.7290 -0.2936
 7940TIP3    H245312   1.815   0.942  15.242  0.7341  2.6622  0.2157
 7941TIP3   OH245313   5.992   5.481  10.903 -0.1088 -0.9567  0.1599
 7941TIP3    H145314   6.075   5.442  10.931  0.7094  0.3172 -0.4363
 7941TIP3    H245315   5.987   5.564  10.951 -0.8037 -0.7954 -0.1757
 7942TIP3   OH245316   2.004   4.068   1.617 -0.1603  0.4557  0.7232
 7942TIP3    H145317   1.965   4.119   1.688  0.3989  1.7767  0.0984
 7942TIP3    H245318   1.931   4.016   1.582 -0.7596  0.9064  1.2937
 7943TIP3   OH245319   0.511   5.938   4.055 -0.3568  0.6352  0.0772
 7943TIP3    H145320   0.540   5.873   4.119 -0.3302  0.1591 -0.4107
 7943TIP3    H245321   0.493   6.017   4.107  0.4464  0.5057  0.5551
 7944TIP3   OH245322   4.038   5.508   5.264  0.1642 -0.2953 -0.0419
 7944TIP3    H145323   4.023   5.428   5.313  0.0821 -0.2524  0.0032
 7944TIP3    H245324   3.990   5.497   5.182 -0.1946 -0.1147  0.1455
 7945TIP3   OH245325   3.757   3.247  15.306  0.1809  0.3643  0.0602
 7945TIP3    H145326   3.809   3.287  15.375 -0.2895 -0.4163  0.8649
 7945TIP3    H245327   3.799   3.163  15.289  0.0190  0.3508 -0.2899
 7946TIP3   OH245328   4.623   0.724  15.268  0.2009  0.2452  0.4852
 7946TIP3    H145329   4.535   0.718  15.304  0.4291 -0.5331  0.9244
 7946TIP3    H245330   4.680   0.738  15.344  0.5874 -0.4846  0.3339
 7947TIP3   OH245331   6.059   0.423  11.349 -0.2871 -0.0172  0.1481
 7947TIP3    H145332   6.030   0.340  11.312 -1.3571  1.1503 -1.7595
 7947TIP3    H245333   6.131   0.451  11.292  0.3233  0.1715  1.0086
 7948TIP3   OH245334   6.629   5.687   3.921 -0.5031 -0.8049 -0.3299
 7948TIP3    H145335   6.668   5.601   3.904  2.6407  0.9269 -2.4894
 7948TIP3    H245336   6.633   5.732   3.837 -1.0859  1.8384  1.0141
 7949TIP3   OH245337   6.037   6.134   5.636  0.1516 -0.0961  0.4523
 7949TIP3    H145338   6.082   6.212   5.670 -0.1527  0.6563 -0.8583
 7949TIP3    H245339   6.103   6.065   5.640  1.5366  1.0623 -1.7302
 7950TIP3   OH245340   5.685   1.147  15.808 -0.2643 -0.1596  0.3657
 7950TIP3    H145341   5.748   1.083  15.842 -0.7093 -1.0343 -0.4354
 7950TIP3    H245342   5.733   1.230  15.807 -0.1000 -0.1831  2.7046
 7951TIP3   OH245343   3.107   0.095   5.170  0.3940  0.2103  0.3219
 7951TIP3    H145344   3.051   0.148   5.114 -0.2880  0.6945  1.4316
 7951TIP3    H245345   3.193   0.096   5.128 -0.2722 -0.0065 -1.0575
 7952TIP3   OH245346   4.593   2.940   2.357  0.4027 -0.3399 -0.0837
 7952TIP3    H145347   4.534   2.923   2.430 -1.3187 -0.5568 -1.4963
 7952TIP3    H245348   4.604   2.854   2.315  1.0111 -0.1336 -0.3567
 7953TIP3   OH245349   6.548   1.969   2.956  0.2336  0.6242  0.1781
 7953TIP3    H145350   6.491   1.972   3.033 -1.1227 -4.4912 -0.4340
 7953TIP3    H245351   6.491   1.987   2.882 -0.2515 -2.5103 -0.2624
 7954TIP3   OH245352   0.152   6.532  15.097  0.0503 -0.1206  0.1905
 7954TIP3    H145353   0.075   6.484  15.066 -1.7805  1.9551  1.2948
 7954TIP3    H245354   0.175   6.490  15.180 -1.0002  0.3229  0.7215
 7955TIP3   OH245355   5.132   1.685   0.510 -0.8118 -0.0291  0.3197
 7955TIP3    H145356   5.222   1.686   0.545 -1.2321 -0.2934  1.4145
 7955TIP3    H245357   5.108   1.778   0.505 -1.2243 -0.0412  1.9733
 7956TIP3   OH245358   4.465   4.491  15.988  0.1150  0.5848  0.2724
 7956TIP3    H145359   4.480   4.500  16.083 -2.2862 -1.5682  0.9218
 7956TIP3    H245360   4.527   4.424  15.960 -0.8020 -0.5022  0.8113
 7957TIP3   OH245361   6.584   3.764   2.810  0.1010 -0.1043  0.1885
 7957TIP3    H145362   6.520   3.703   2.774 -0.5423  1.5189 -1.5632
 7957TIP3    H245363   6.533   3.824   2.864  0.0289  1.4275 -1.5147
 7958TIP3   OH245364   2.730   0.092  16.231  0.3091  0.3531  0.1800
 7958TIP3    H145365   2.636   0.108  16.222  0.5635  2.0486  0.3525
 7958TIP3    H245366   2.759   0.157  16.296  1.4659 -0.6165  0.6461
 7959TIP3   OH245367   4.743   6.354   4.569  0.0826  0.2547  0.0013
 7959TIP3    H145368   4.727   6.263   4.545 -1.6438  0.1593  1.4367
 7959TIP3    H245369   4.796   6.389   4.497  0.1435 -1.6670 -0.9092
 7960TIP3   OH245370   5.753   0.248  11.497  0.0925  0.3522  0.3157
 7960TIP3    H145371   5.821   0.239  11.564  0.2621 -0.6003  0.0194
 7960TIP3    H245372   5.726   0.339  11.504  1.2795  0.7028  0.5548
 7961TIP3   OH245373   1.930   4.033   3.979  0.5453 -0.0795 -0.2502
 7961TIP3    H145374   1.867   4.102   3.960  0.5755  0.0880  0.2597
 7961TIP3    H245375   2.013   4.079   3.992  0.7848 -0.3027 -0.9692
 7962TIP3   OH245376   5.277   1.413  15.554 -0.7572 -0.5377  0.1541
 7962TIP3    H145377   5.333   1.428  15.630 -0.4533 -2.2464  0.2779
 7962TIP3    H245378   5.336   1.413  15.480 -0.4876 -2.9677  0.3490
 7963TIP3   OH245379   6.405   2.145  11.278 -0.5754 -0.9069 -0.3644
 7963TIP3    H145380   6.453   2.132  11.196  0.6176  0.2059  0.1338
 7963TIP3    H245381   6.466   2.116  11.346 -1.8008 -2.4478  0.1041
 7964TIP3   OH245382   2.027   4.940   6.550  0.3056 -0.1411  0.6712
 7964TIP3    H145383   1.968   4.893   6.609 -0.0415 -1.7840 -0.9434
 7964TIP3    H245384   2.096   4.877   6.528 -0.3064 -0.0483 -1.7182
 7965TIP3   OH245385   0.544   0.232  17.276  0.2515 -0.6961  0.3502
 7965TIP3    H145386   0.537   0.305  17.215 -4.1341 -3.0091 -2.1310
 7965TIP3    H245387   0.623   0.185  17.249  1.8622  1.7695  0.5715
 7966TIP3   OH245388   1.573   4.925   4.311 -0.3427  0.4202  0.0303
 7966TIP3    H145389   1.605   5.015   4.314  0.2334  0.2846 -1.9550
 7966TIP3    H245390   1.631   4.877   4.371 -0.1117  1.1914  0.4267
 7967TIP3   OH245391   1.897   6.553  13.441 -1.0537  0.1153  0.3774
 7967TIP3    H145392   1.900   6.504  13.359 -1.1049 -0.2802  0.6153
 7967TIP3    H245393   1.804   6.575  13.452 -1.6125 -2.9394  2.1771
 7968TIP3   OH245394   6.172   2.960   0.239  0.4490  0.2780  0.2797
 7968TIP3    H145395   6.169   3.023   0.310  0.1835  0.9927 -0.3501
 7968TIP3    H245396   6.082   2.928   0.232  0.7903 -0.8964  1.2350
 7969TIP3   OH245397   5.067   1.739  12.936 -0.0910 -0.3785 -0.0963
 7969TIP3    H145398   5.134   1.708  12.875 -0.8186 -2.2947  0.0596
 7969TIP3    H245399   5.075   1.682  13.013 -0.0698  1.1572  1.0749
 7970TIP3   OH245400   4.778   1.361   0.723  0.2550  0.1822  0.5873
 7970TIP3    H145401   4.693   1.404   0.730 -0.7383 -1.4441 -1.2670
 7970TIP3    H245402   4.840   1.432   0.704 -0.8694  1.1877  0.6722
 7971TIP3   OH245403   3.867   0.284  17.121  0.0816  0.3967 -0.7119
 7971TIP3    H145404   3.915   0.234  17.056 -2.1598 -0.4710 -1.7442
 7971TIP3    H245405   3.914   0.367  17.128  3.2113 -1.4063  0.2248
 7972TIP3   OH245406   1.177   6.281   4.934  0.3735 -0.8999 -0.0620
 7972TIP3    H145407   1.199   6.269   4.842  1.4599  0.6122 -0.0192
 7972TIP3    H245408   1.155   6.374   4.942 -2.4455 -1.5598  0.6746
 7973TIP3   OH245409   6.622   0.499  17.013 -0.1497 -0.0962 -0.1593
 7973TIP3    H145410   6.661   0.463  17.093  0.5579  0.1666 -0.3852
 7973TIP3    H245411   6.529   0.478  17.021 -0.0941 -0.0414  0.7531
 7974TIP3   OH245412   5.913   0.780  12.282  0.1801  0.1225  0.4145
 7974TIP3    H145413   5.937   0.862  12.238 -1.4165  0.5578  0.3410
 7974TIP3    H245414   5.994   0.728  12.281  0.8049  1.0885 -0.8987
 7975TIP3   OH245415   3.466   1.723   1.589  0.5309 -0.4178  0.2275
 7975TIP3    H145416   3.485   1.681   1.672  1.3196 -1.2352 -0.3575
 7975TIP3    H245417   3.550   1.724   1.543 -0.7073 -3.8452 -2.3196
 7976TIP3   OH245418   1.167   4.049  13.661  0.3511 -0.0853 -0.0862
 7976TIP3    H145419   1.129   4.061  13.573  0.4845  2.6749  0.1914
 7976TIP3    H245420   1.093   4.061  13.720  1.1277  2.9264  0.3516
 7977TIP3   OH245421   0.232   6.328   3.925 -0.1669 -0.5725  0.3921
 7977TIP3    H145422   0.236   6.237   3.895 -0.5998 -1.1095  1.9428
 7977TIP3    H245423   0.159   6.330   3.986  0.5342  0.5671  1.2017
 7978TIP3   OH245424   5.605   4.167  13.625  0.3914  0.3206 -0.2054
 7978TIP3    H145425   5.610   4.262  13.614  1.8297  0.2245 -0.3746
 7978TIP3    H245426   5.642   4.151  13.711 -2.2208  0.1400  0.9400
 7979TIP3   OH245427   0.202   0.197  15.713  0.1591 -0.1047  0.1049
 7979TIP3    H145428   0.149   0.126  15.677  0.6778 -0.8078  0.7106
 7979TIP3    H245429   0.150   0.232  15.785  0.2044 -0.3281  0.2464
 7980TIP3   OH245430   6.360   3.377   3.125  0.3642 -0.1968  0.2552
 7980TIP3    H145431   6.441   3.420   3.096  0.4706 -2.1025 -2.3796
 7980TIP3    H245432   6.314   3.355   3.045 -2.3963  0.0583  1.7139
 7981TIP3   OH245433   5.348   2.639   3.096 -0.3492 -0.2328  0.1743
 7981TIP3    H145434   5.344   2.734   3.106 -1.1922 -0.2490  0.0309
 7981TIP3    H245435   5.398   2.626   3.015  1.5072  0.0290  1.2442
 7982TIP3   OH245436   4.841   2.293   0.163 -0.1849 -0.3673  0.4831
 7982TIP3    H145437   4.922   2.244   0.177 -0.8898 -1.6782 -0.0356
 7982TIP3    H245438   4.838   2.308   0.068  0.2455  1.0663  0.6832
 7983TIP3   OH245439   6.151   1.407   1.677  0.6392 -0.0938 -0.4635
 7983TIP3    H145440   6.199   1.490   1.680 -0.0346  0.3017 -0.7155
 7983TIP3    H245441   6.066   1.426   1.716  0.3647 -0.5861 -0.8107
 7984TIP3   OH245442   3.627   4.324   5.294  0.2651  0.0982 -0.0681
 7984TIP3    H145443   3.579   4.292   5.371 -0.9366 -0.7315 -1.1355
 7984TIP3    H245444   3.558   4.354   5.234  1.0776 -1.0210 -1.5874
 7985TIP3   OH245445   3.092   6.346  11.269 -0.8658 -0.3394  0.2496
 7985TIP3    H145446   3.141   6.275  11.309  1.1964  0.5890 -0.5553
 7985TIP3    H245447   3.159   6.409  11.241 -2.7053  2.6141  2.2333
 7986TIP3   OH245448   1.600   0.145  16.829 -0.2986  0.2067 -0.0957
 7986TIP3    H145449   1.581   0.232  16.864  1.2253  0.0326  1.2268
 7986TIP3    H245450   1.693   0.132  16.847 -0.1231 -1.0337 -1.7498
 7987TIP3   OH245451   5.335   5.025   1.841  0.0490 -0.0751  0.1874
 7987TIP3    H145452   5.308   5.114   1.817  0.0401 -0.1136  0.0571
 7987TIP3    H245453   5.380   5.036   1.925  2.1575  0.3715 -0.9744
 7988TIP3   OH245454   3.420   3.153  13.905 -0.2196 -0.0432 -0.2163
 7988TIP3    H145455   3.501   3.154  13.855 -0.0371  2.4461  0.0684
 7988TIP3    H245456   3.445   3.117  13.990  0.3423 -0.3816 -0.5248
 7989TIP3   OH245457   6.044   3.023   3.636 -0.0801  0.1247 -0.0087
 7989TIP3    H145458   6.110   3.030   3.705 -0.5812  1.6960  0.3358
 7989TIP3    H245459   6.019   3.114   3.618 -2.7285 -0.5044  0.4011
 7990TIP3   OH245460   3.155   2.141   5.948  0.2162 -0.2339  0.4700
 7990TIP3    H145461   3.217   2.213   5.937  1.3522 -1.0069  1.6340
 7990TIP3    H245462   3.202   2.064   5.917 -0.9546 -0.5117 -0.6584
 7991TIP3   OH245463   0.787   2.349   2.929 -0.1250  0.2288 -0.1236
 7991TIP3    H145464   0.818   2.291   2.859 -1.0165  0.5275 -0.7897
 7991TIP3    H245465   0.691   2.343   2.923 -0.2115 -0.4757  1.6961
 7992TIP3   OH245466   0.733   4.971  12.418  0.1829 -0.1518 -0.1429
 7992TIP3    H145467   0.770   5.046  12.372 -1.1168  0.5718 -0.0307
 7992TIP3    H245468   0.769   4.978  12.507  0.8886 -0.2589 -0.4174
 7993TIP3   OH245469   1.684   3.476  13.298 -0.6048 -0.2862  0.1994
 7993TIP3    H145470   1.771   3.437  13.309 -1.3043 -1.6098  1.1655
 7993TIP3    H245471   1.679   3.543  13.366 -0.1492  0.1632 -0.2029
 7994TIP3   OH245472   1.331   1.579   0.363 -0.1808  0.1931 -0.5825
 7994TIP3    H145473   1.419   1.558   0.394 -0.0318 -0.0506 -1.1664
 7994TIP3    H245474   1.343   1.608   0.273 -0.5684  1.2792 -0.2976
 7995TIP3   OH245475   0.209   1.189   3.783 -0.4277  0.4435  0.1217
 7995TIP3    H145476   0.145   1.121   3.761 -0.9494  0.1428  2.4745
 7995TIP3    H245477   0.182   1.221   3.869 -0.2245  3.6943 -0.9722
 7996TIP3   OH245478   3.458   3.686   4.395 -0.2694 -0.6359  0.0718
 7996TIP3    H145479   3.501   3.722   4.317  2.7195  1.0534  2.4249
 7996TIP3    H245480   3.399   3.755   4.424 -0.7070 -0.9168 -0.1309
 7997TIP3   OH245481   4.811   4.834  11.749  0.1922  0.3761  0.4050
 7997TIP3    H145482   4.895   4.840  11.704 -0.6070 -0.4748 -1.2616
 7997TIP3    H245483   4.828   4.778  11.825  1.5382  1.7438  1.1484
 7998TIP3   OH245484   0.810   4.904  13.015  0.3271  0.3059 -0.4461
 7998TIP3    H145485   0.842   4.894  13.105 -0.2781 -2.1119 -0.4796
 7998TIP3    H245486   0.820   4.998  12.997  1.1255  0.7077  1.8797
 7999TIP3   OH245487   5.890   1.388   5.447  0.1238  0.3295  0.0750
 7999TIP3    H145488   5.913   1.307   5.493 -0.4464  0.8564  1.3133
 7999TIP3    H245489   5.897   1.456   5.514 -1.7459  0.9668 -0.3439
 8000TIP3   OH245490   2.578   6.363   1.771  0.7961  0.2421 -0.8643
 8000TIP3    H145491   2.617   6.451   1.767 -0.0561  0.6084 -1.3941
 8000TIP3    H245492   2.572   6.335   1.679  0.4741 -0.0999 -0.7408
 8001TIP3   OH245493   2.865   0.128  15.400 -0.4145  0.3597 -0.5898
 8001TIP3    H145494   2.951   0.170  15.388 -1.2466  1.8487 -1.5490
 8001TIP3    H245495   2.884   0.034  15.401  1.1930  0.6583 -1.1769
 8002TIP3   OH245496   0.804   4.333   4.613 -0.2319  0.2096  0.2485
 8002TIP3    H145497   0.772   4.375   4.693 -0.7087  0.2632  0.0330
 8002TIP3    H245498   0.735   4.349   4.548 -0.3948 -0.8596  0.1498
 8003TIP3   OH245499   1.006   1.589   0.208  0.7954 -0.4977  0.2731
 8003TIP3    H145500   1.025   1.619   0.119 -2.5039 -0.4745 -0.4857
 8003TIP3    H245501   1.006   1.493   0.202 -3.0817 -0.5048 -0.6646
 8004TIP3   OH245502   3.347   5.745   3.070 -0.5352  0.0271 -0.5538
 8004TIP3    H145503   3.342   5.799   2.991 -0.1571 -0.1517 -0.7017
 8004TIP3    H245504   3.343   5.807   3.142  2.0271  0.4530 -0.7356
 8005TIP3   OH245505   1.160   4.810  14.641 -0.1118 -0.0687 -0.0543
 8005TIP3    H145506   1.216   4.761  14.701 -0.2060  1.0123  0.9301
 8005TIP3    H245507   1.075   4.811  14.683 -0.1931  0.6525 -0.2245
 8006TIP3   OH245508   6.817   1.763  15.266 -0.0975 -0.8770 -0.1712
 8006TIP3    H145509   6.773   1.769  15.181 -0.9611 -1.5739  0.2241
 8006TIP3    H245510   6.895   1.710  15.249  0.4338  0.0998 -0.8090
 8007TIP3   OH245511   5.100   5.323   2.930 -0.7382  0.0956  0.1490
 8007TIP3    H145512   5.133   5.325   2.840  0.3771 -0.8360  0.5194
 8007TIP3    H245513   5.124   5.409   2.966  1.3617 -0.5784  0.4169
 8008TIP3   OH245514   0.428   3.694  14.265  0.4457 -0.2022  0.2054
 8008TIP3    H145515   0.521   3.672  14.257  0.5381  0.6235 -1.1032
 8008TIP3    H245516   0.415   3.767  14.204 -0.4346  1.6289  2.5266
 8009TIP3   OH245517   1.141   5.204  12.687  0.1158 -0.0729  0.7119
 8009TIP3    H145518   1.129   5.147  12.611 -0.6736 -0.2021  0.9261
 8009TIP3    H245519   1.225   5.247  12.672 -1.1956  1.8498 -1.5336
 8010TIP3   OH245520   5.296   5.136   4.813 -0.1890 -0.1137  0.2863
 8010TIP3    H145521   5.374   5.180   4.781 -1.0863  0.7593 -0.7408
 8010TIP3    H245522   5.317   5.043   4.809 -0.3522 -0.0397 -3.0445
 8011TIP3   OH245523   1.576   5.323   5.725 -0.6261  0.1724  0.4901
 8011TIP3    H145524   1.543   5.279   5.803 -1.0916 -0.7200 -0.1961
 8011TIP3    H245525   1.542   5.271   5.652 -0.7568  1.3892 -0.3236
 8012TIP3   OH245526   3.467   0.488  13.708 -0.1256 -0.3233 -0.1198
 8012TIP3    H145527   3.491   0.577  13.684 -0.8763 -0.6070 -2.0673
 8012TIP3    H245528   3.428   0.496  13.795  1.0982  1.0366  0.3142
 8013TIP3   OH245529   5.037   2.009  16.468  0.2547 -0.4864 -0.0501
 8013TIP3    H145530   5.095   2.070  16.423  0.1841  1.1265  1.9449
 8013TIP3    H245531   5.094   1.963  16.530 -0.2964  0.0785  0.9016
 8014TIP3   OH245532   3.139   5.586  16.204 -0.4302  0.1251  0.1574
 8014TIP3    H145533   3.162   5.552  16.291  1.2394 -0.5163 -0.5192
 8014TIP3    H245534   3.168   5.677  16.205  3.7935 -1.0509 -1.1919
 8015TIP3   OH245535   5.872   5.975   2.972 -0.1648  0.1758 -0.2192
 8015TIP3    H145536   5.869   5.897   3.028  0.9634  0.5309  0.3674
 8015TIP3    H245537   5.882   5.940   2.884 -0.7938 -0.3673 -0.0810
 8016TIP3   OH245538   0.764   4.049   3.949  0.4487  0.0421 -0.3462
 8016TIP3    H145539   0.715   3.978   3.991  0.9423 -0.6131 -0.8712
 8016TIP3    H245540   0.726   4.129   3.986 -0.6421 -0.4699 -0.3352
 8017TIP3   OH245541   3.682   6.361   4.450 -0.3022 -0.1193  0.6615
 8017TIP3    H145542   3.719   6.299   4.386 -0.4816  0.7655 -0.3130
 8017TIP3    H245543   3.603   6.394   4.408 -0.9784 -0.2885  1.7872
 8018TIP3   OH245544   2.066   6.148  15.070 -0.1496  0.0550 -0.2756
 8018TIP3    H145545   2.027   6.132  15.156 -0.8808 -2.4900 -1.0391
 8018TIP3    H245546   2.135   6.082  15.062  0.7328  1.0660 -1.1491
 8019TIP3   OH245547   2.131   2.550   5.217 -0.3482 -0.2986 -0.1739
 8019TIP3    H145548   2.224   2.535   5.200 -0.5641 -1.3004 -0.5400
 8019TIP3    H245549   2.101   2.604   5.144 -0.4028 -1.3124 -0.9098
 8020TIP3   OH245550   4.086   1.259  11.965 -0.9303 -0.5019  0.2986
 8020TIP3    H145551   4.151   1.197  11.930 -1.2107 -0.5600 -0.1211
 8020TIP3    H245552   4.136   1.338  11.983 -0.6610 -0.6865  0.3652
 8021TIP3   OH245553   3.041   5.654  13.792  0.0337  0.6156 -0.5973
 8021TIP3    H145554   2.981   5.714  13.748 -0.7696  0.7914  0.7120
 8021TIP3    H245555   3.016   5.658  13.884  2.3948  1.0897  0.0606
 8022TIP3   OH245556   1.370   3.534   1.442 -0.0528 -0.6030  0.3708
 8022TIP3    H145557   1.297   3.495   1.491 -0.9629  1.3614  0.6471
 8022TIP3    H245558   1.366   3.627   1.464  0.7401  0.0076 -1.9059
 8023TIP3   OH245559   5.349   3.651   0.824 -0.4940 -1.0585 -0.4546
 8023TIP3    H145560   5.260   3.623   0.845 -0.8295  1.3050  1.4737
 8023TIP3    H245561   5.387   3.676   0.908  1.2270  0.0576 -1.5319
 8024TIP3   OH245562   6.309   2.352   4.478  0.3309  0.2380  0.0407
 8024TIP3    H145563   6.380   2.327   4.537  1.3448 -0.8884 -1.6132
 8024TIP3    H245564   6.233   2.306   4.512  1.1053 -1.1267 -0.0449
 8025TIP3   OH245565   5.653   1.970  16.053 -0.3207 -0.4860  0.3252
 8025TIP3    H145566   5.659   1.896  15.993  0.3972  1.0783 -1.5763
 8025TIP3    H245567   5.609   2.039  16.003  0.7024  0.9950  1.4013
 8026TIP3   OH245568   5.493   5.448  16.965 -0.4330  0.5649 -0.3592
 8026TIP3    H145569   5.529   5.483  16.883  2.0857  0.1799  0.5354
 8026TIP3    H245570   5.552   5.377  16.988 -0.6007  1.2440  2.2366
 8027TIP3   OH245571   6.620   2.698  14.237  0.3120  0.0732  0.0857
 8027TIP3    H145572   6.582   2.672  14.152  0.2494 -3.1284  0.9979
 8027TIP3    H245573   6.645   2.789  14.225  0.5030 -0.3470 -3.4653
 8028TIP3   OH245574   2.204   2.830   3.088  0.0181 -0.4025 -0.4914
 8028TIP3    H145575   2.245   2.915   3.103  1.0743 -1.1710  1.1393
 8028TIP3    H245576   2.251   2.794   3.013  1.2172 -0.5442  0.2985
 8029TIP3   OH245577   3.200   4.787   5.069  0.6348 -0.0803  0.2495
 8029TIP3    H145578   3.188   4.718   5.004 -3.0649  0.6565  0.0476
 8029TIP3    H245579   3.131   4.771   5.134  1.1057  2.1232  1.3437
 8030TIP3   OH245580   2.767   3.466   0.603 -0.0413  0.5327 -0.7354
 8030TIP3    H145581   2.757   3.473   0.508 -2.7937  0.5015 -0.5106
 8030TIP3    H245582   2.855   3.498   0.621  1.1828 -1.1467 -3.4692
 8031TIP3   OH245583   3.610   1.195   4.126  0.1381 -0.0680  0.6437
 8031TIP3    H145584   3.705   1.182   4.129  0.0855 -0.3521  1.1760
 8031TIP3    H245585   3.593   1.234   4.040  0.8192  0.6429  0.8254
 8032TIP3   OH245586   4.394   6.508  11.206 -0.0110 -0.3064 -0.1709
 8032TIP3    H145587   4.417   6.598  11.180  0.4698 -0.6932 -1.1230
 8032TIP3    H245588   4.435   6.496  11.291 -0.5599  0.5706  0.2333
 8033TIP3   OH245589   4.407   0.318  14.925 -0.4297 -0.7903  0.1221
 8033TIP3    H145590   4.344   0.385  14.949 -0.0723 -0.1068 -0.8122
 8033TIP3    H245591   4.487   0.341  14.972  0.1588  0.3372 -1.3933
 8034TIP3   OH245592   5.855   1.354   3.421  0.3347 -0.1135  0.3930
 8034TIP3    H145593   5.835   1.378   3.330 -0.0461 -2.7226 -0.2430
 8034TIP3    H245594   5.831   1.262   3.427 -0.6562  0.2984  3.4671
 8035TIP3   OH245595   4.702   0.192   2.552  0.6271 -0.2999 -0.4334
 8035TIP3    H145596   4.660   0.163   2.472  0.4628 -1.6277  0.1300
 8035TIP3    H245597   4.639   0.254   2.591  0.9365  0.7474 -1.5729
 8036TIP3   OH245598   6.108   4.147   0.562  0.5301 -0.0855 -0.1310
 8036TIP3    H145599   6.160   4.112   0.490 -0.4264  0.2590 -1.0127
 8036TIP3    H245600   6.087   4.070   0.616  1.2030 -0.3548 -0.2475
 8037TIP3   OH245601   3.096   5.509  12.111  0.7547  0.0365 -0.6065
 8037TIP3    H145602   3.180   5.540  12.078  0.9969  1.1324  0.9888
 8037TIP3    H245603   3.110   5.497  12.205  0.1769 -3.3407 -0.8737
 8038TIP3   OH245604   6.601   0.702  11.442  0.0158 -0.3775 -0.5651
 8038TIP3    H145605   6.523   0.755  11.425  0.7950  1.4593  1.4170
 8038TIP3    H245606   6.671   0.748  11.396  0.5527 -0.1211  0.5080
 8039TIP3   OH245607   4.937   1.591   3.425 -0.1597 -0.1168  0.2400
 8039TIP3    H145608   5.018   1.624   3.387 -0.4203 -0.4194 -0.5970
 8039TIP3    H245609   4.959   1.572   3.516  0.3954  0.9063  0.3355
 8040TIP3   OH245610   4.463   1.368  16.508  0.2430  0.2095 -0.3167
 8040TIP3    H145611   4.380   1.358  16.461  1.5054 -1.4679 -2.2841
 8040TIP3    H245612   4.520   1.412  16.446  1.0802  0.5940  0.7104
 8041TIP3   OH245613   4.154   3.408  15.731 -0.5949 -0.4243  0.2586
 8041TIP3    H145614   4.126   3.488  15.776  2.1884  0.2043  0.9571
 8041TIP3    H245615   4.208   3.439  15.658  0.5729 -1.6452  0.5849
 8042TIP3   OH245616   3.011   3.061  15.863  0.3515  0.3456  0.8156
 8042TIP3    H145617   2.917   3.074  15.869  0.1506 -1.3771  1.4866
 8042TIP3    H245618   3.048   3.123  15.926 -0.2559  1.7969 -0.2349
 8043TIP3   OH245619   6.422   2.642  16.790  0.2816  0.1374 -0.0755
 8043TIP3    H145620   6.359   2.634  16.719  1.2666 -2.0914 -0.7264
 8043TIP3    H245621   6.376   2.609  16.867 -0.5752  1.9763  0.2342
 8044TIP3   OH245622   1.154   5.300   3.453  0.1636  0.4835  0.2659
 8044TIP3    H145623   1.156   5.230   3.519  1.0613  1.4262  1.2547
 8044TIP3    H245624   1.124   5.257   3.373 -3.0599 -0.2655  1.8047
 8045TIP3   OH245625   5.595   4.136   1.423 -0.3773 -0.0424  0.2141
 8045TIP3    H145626   5.574   4.111   1.333  1.2940 -0.3084 -0.1001
 8045TIP3    H245627   5.520   4.189   1.451 -2.4365 -2.6313 -0.2247
 8046TIP3   OH245628   1.259   0.529  16.793 -0.4727 -0.2968 -0.2314
 8046TIP3    H145629   1.175   0.542  16.837  0.1810  0.3846  0.8256
 8046TIP3    H245630   1.255   0.439  16.760 -1.1161 -0.6855  0.8855
 8047TIP3   OH245631   0.184   1.176  16.263  0.1765  1.0192 -0.0821
 8047TIP3    H145632   0.185   1.272  16.256 -1.5465  0.9582 -1.4480
 8047TIP3    H245633   0.107   1.149  16.214  3.0615 -1.3850 -3.5174
 8048TIP3   OH245634   1.993   3.409   5.920  0.3666  0.2663  0.1101
 8048TIP3    H145635   2.061   3.419   5.986  0.8671 -1.4187 -0.1269
 8048TIP3    H245636   1.913   3.440   5.963  0.7365 -0.5259  1.4067
 8049TIP3   OH245637   1.195   4.190   0.445 -0.5216 -0.0317 -0.5685
 8049TIP3    H145638   1.197   4.219   0.354  0.6279 -1.2110 -0.9346
 8049TIP3    H245639   1.282   4.209   0.479 -0.8752  0.1999  0.2302
 8050TIP3   OH245640   2.274   2.388  11.770 -0.0144 -0.5146  0.4197
 8050TIP3    H145641   2.226   2.307  11.752  1.6860 -1.0380 -2.0052
 8050TIP3    H245642   2.341   2.392  11.702  0.0061  2.8871  0.5245
 8051TIP3   OH245643   1.530   2.894  13.659 -0.1438 -0.2043  0.2883
 8051TIP3    H145644   1.463   2.957  13.686  0.9067 -0.1364  2.9346
 8051TIP3    H245645   1.574   2.937  13.586 -0.2967  1.5901  1.2054
 8052TIP3   OH245646   1.612   2.222   2.032  0.1890  0.1600 -0.1749
 8052TIP3    H145647   1.561   2.204   1.953 -2.0084 -0.1625  1.2627
 8052TIP3    H245648   1.650   2.138   2.056 -0.9142 -0.2244  0.2838
 8053TIP3   OH245649   5.193   3.415  16.178  0.9327  0.7292 -0.0781
 8053TIP3    H145650   5.119   3.425  16.239  2.1499 -1.2391  1.8207
 8053TIP3    H245651   5.170   3.470  16.103 -3.0763 -0.8188 -0.1362
 8054TIP3   OH245652   4.495   3.752  12.700 -0.1970 -0.1410  0.4733
 8054TIP3    H145653   4.582   3.762  12.663  0.2293 -1.2371  1.1604
 8054TIP3    H245654   4.509   3.745  12.794 -1.1159  0.7089  0.6841
 8055TIP3   OH245655   0.263   3.031  16.061  0.2570 -1.1848 -0.0530
 8055TIP3    H145656   0.193   2.994  16.116 -0.5221  1.4341  0.8332
 8055TIP3    H245657   0.272   2.970  15.988 -1.5162 -2.6469  0.9112
 8056TIP3   OH245658   0.979   2.721  12.289  0.0250 -0.6247  0.4795
 8056TIP3    H145659   0.997   2.813  12.307  0.6544 -0.6593  0.0863
 8056TIP3    H245660   0.889   2.706  12.318  0.0603  0.0135  0.9067
 8057TIP3   OH245661   1.682   3.935  16.923  0.3543  0.8390 -0.8158
 8057TIP3    H145662   1.655   3.977  16.841  3.2512  2.7429 -0.8503
 8057TIP3    H245663   1.743   3.867  16.896  1.5159  1.6420 -0.2252
 8058TIP3   OH245664   3.602   1.262   5.271  0.2420 -0.0749 -0.4118
 8058TIP3    H145665   3.517   1.304   5.257 -0.0672  0.6502  3.0893
 8058TIP3    H245666   3.630   1.233   5.184 -2.9011  0.9779 -1.8324
 8059TIP3   OH245667   4.411   4.733   2.717 -0.0645  0.4544  0.4274
 8059TIP3    H145668   4.336   4.771   2.763 -2.2298 -1.4944 -1.3238
 8059TIP3    H245669   4.408   4.640   2.740  1.4313  0.2480 -0.1733
 8060TIP3   OH245670   0.223   1.371  14.657 -0.0061 -0.2054  0.2184
 8060TIP3    H145671   0.207   1.320  14.578 -0.3753 -0.8270  0.6953
 8060TIP3    H245672   0.269   1.449  14.625 -4.1796  1.8068 -1.2643
 8061TIP3   OH245673   1.156   2.307   0.459 -0.6888  0.0963 -0.3698
 8061TIP3    H145674   1.068   2.296   0.422 -1.4505 -0.4661  1.5518
 8061TIP3    H245675   1.193   2.219   0.460 -0.7572  0.0772  0.4124
 8062TIP3   OH245676   2.209   6.769  12.269 -0.0316  0.0237 -0.3234
 8062TIP3    H145677   2.220   6.686  12.222 -0.3776  0.4068 -1.1004
 8062TIP3    H245678   2.238   6.750  12.358  0.3639 -0.7985 -0.6183
 8063TIP3   OH245679   0.638   5.284   6.020  0.1749  0.0372 -0.4857
 8063TIP3    H145680   0.731   5.268   6.002  0.4397  0.7354  0.2550
 8063TIP3    H245681   0.624   5.247   6.107  0.1480  1.3459  0.0812
 8064TIP3   OH245682   6.616   2.991   3.824 -0.0504 -0.1946  0.3123
 8064TIP3    H145683   6.550   2.988   3.893 -0.1259  1.1698  0.3013
 8064TIP3    H245684   6.619   3.082   3.798  3.2345  0.1273  1.6399
 8065TIP3   OH245685   6.212   4.946  16.595  0.1631 -0.0455 -0.4423
 8065TIP3    H145686   6.256   4.885  16.536  0.1117 -1.4902  0.9673
 8065TIP3    H245687   6.138   4.897  16.630 -1.4236  1.7109 -1.2440
 8066TIP3   OH245688   1.750   2.836  13.297  0.6234  0.7459 -0.5284
 8066TIP3    H145689   1.797   2.851  13.214  0.6507 -0.1747 -0.6843
 8066TIP3    H245690   1.795   2.892  13.360  2.1758 -0.3774 -0.5923
 8067TIP3   OH245691   4.770   4.746   4.298 -0.1860  0.4361 -0.2124
 8067TIP3    H145692   4.702   4.678   4.294  0.7450 -0.5464  0.1630
 8067TIP3    H245693   4.851   4.697   4.313  0.2753  1.7636  1.8894
 8068TIP3   OH245694   2.109   4.465  16.480  0.4036 -0.6401  0.2165
 8068TIP3    H145695   2.087   4.524  16.553 -0.3395 -1.9623  1.0931
 8068TIP3    H245696   2.112   4.522  16.403 -1.2199  0.4011  0.8922
 8069TIP3   OH245697   5.828   0.925   2.912  0.4486 -0.1026  0.1119
 8069TIP3    H145698   5.868   0.967   2.836  0.1045 -0.7937 -0.4601
 8069TIP3    H245699   5.754   0.875   2.876  0.3188 -0.4823  0.8875
 8070TIP3   OH245700   0.202   0.840   4.993  0.0565  0.2189  0.2855
 8070TIP3    H145701   0.194   0.935   4.992 -1.4078  0.1061 -0.6794
 8070TIP3    H245702   0.159   0.811   4.912  0.6248 -1.2506  0.4836
 8071TIP3   OH245703   4.007   6.549   0.732 -0.3032  0.3993  0.8105
 8071TIP3    H145704   3.972   6.530   0.819 -1.7031  2.2544  0.6861
 8071TIP3    H245705   4.053   6.469   0.706 -0.2565 -0.3384  3.0569
 8072TIP3   OH245706   0.791   2.809  16.978  0.1750  0.1340  0.3102
 8072TIP3    H145707   0.773   2.903  16.973  0.8454  0.2344 -0.4231
 8072TIP3    H245708   0.720   2.773  17.031  0.7951  1.2940  1.9642
 8073TIP3   OH245709   3.102   5.342  17.173  0.1519  0.1412  0.1011
 8073TIP3    H145710   3.064   5.332  17.086  0.5805  0.6629 -0.1576
 8073TIP3    H245711   3.094   5.436  17.191  0.4773  0.1078  0.4255
 8074TIP3   OH245712   1.340   4.932  15.440 -0.2742  0.2258  0.3986
 8074TIP3    H145713   1.427   4.919  15.402  0.8288  2.4027  2.0746
 8074TIP3    H245714   1.355   4.935  15.534 -2.4054 -0.9642  0.8069
 8075TIP3   OH245715   2.095   5.191   5.477  0.2584 -0.6293  0.2316
 8075TIP3    H145716   2.107   5.286   5.477 -0.5922 -0.5228  0.6736
 8075TIP3    H245717   2.000   5.179   5.484  0.1914 -1.4788 -1.7667
 8076TIP3   OH245718   2.634   1.088   3.651  0.7072 -0.4355  0.0640
 8076TIP3    H145719   2.573   1.092   3.725 -4.1578 -0.9206 -3.7335
 8076TIP3    H245720   2.664   1.178   3.640  0.6591 -0.1712  1.8526
 8077TIP3   OH245721   1.791   5.693  16.174  0.0790  0.5252  0.0562
 8077TIP3    H145722   1.812   5.748  16.250  1.6015 -1.3656  1.0399
 8077TIP3    H245723   1.736   5.749  16.119  1.4545  2.9914  1.0916
 8078TIP3   OH245724   4.750   4.209   5.458 -0.1878  0.0644  0.1584
 8078TIP3    H145725   4.694   4.156   5.402 -1.0812 -0.3470  1.3973
 8078TIP3    H245726   4.714   4.196   5.546  2.2516 -0.7462  1.0895
 8079TIP3   OH245727   3.124   6.554  17.062  0.7346 -0.6670  0.3279
 8079TIP3    H145728   3.195   6.600  17.106 -0.0899  1.6194 -0.6703
 8079TIP3    H245729   3.047   6.572  17.116 -0.1093  1.3931 -1.5235
 8080TIP3   OH245730   4.055   4.990  12.628  0.3279 -0.2658  0.2434
 8080TIP3    H145731   4.088   4.938  12.701  0.4038  0.8658  1.0229
 8080TIP3    H245732   4.035   5.075  12.666 -0.5816  0.0261 -0.8535
 8081TIP3   OH245733   6.501   1.312  13.404 -0.2214  0.3711  0.0333
 8081TIP3    H145734   6.513   1.394  13.451 -0.6996 -0.6827  2.0093
 8081TIP3    H245735   6.475   1.249  13.470 -0.7650 -1.1820 -1.6117
 8082TIP3   OH245736   5.154   4.821   2.247 -0.1613  0.5010  0.1345
 8082TIP3    H145737   5.126   4.883   2.179 -1.7876 -0.0577  0.2869
 8082TIP3    H245738   5.228   4.865   2.290  0.6927  0.9932 -1.7829
 8083TIP3   OH245739   2.098   2.705  16.963  0.6091 -0.2144 -0.1902
 8083TIP3    H145740   2.029   2.769  16.941  0.2152  0.6648  3.2630
 8083TIP3    H245741   2.179   2.756  16.962  0.8643 -0.6372 -1.5820
 8084TIP3   OH245742   4.537   5.786  15.183  0.2800 -0.2322  0.5091
 8084TIP3    H145743   4.572   5.806  15.269  0.1137 -0.1066  0.5479
 8084TIP3    H245744   4.504   5.870  15.150 -0.0652 -0.3681  0.5124
 8085TIP3   OH245745   6.157   0.303   1.906  0.2770  0.1946  0.3573
 8085TIP3    H145746   6.176   0.311   1.813 -1.2053  0.1104  0.0379
 8085TIP3    H245747   6.124   0.214   1.917  0.0118  0.3536  0.8875
 8086TIP3   OH245748   2.673   4.960  15.670  0.5681  0.0243  0.1445
 8086TIP3    H145749   2.609   4.996  15.731 -0.4519 -2.7293  0.7802
 8086TIP3    H245750   2.637   4.978  15.584  0.7685  1.7150  0.3986
 8087TIP3   OH245751   0.772   5.536  14.963 -0.3405  0.0640 -0.4402
 8087TIP3    H145752   0.846   5.527  15.023 -0.8276 -0.8769  0.0467
 8087TIP3    H245753   0.697   5.505  15.014 -0.6541 -1.3789 -1.7397
 8088TIP3   OH245754   1.087   5.331  11.762 -0.3256 -0.3165  0.1852
 8088TIP3    H145755   1.063   5.422  11.743 -4.3106 -1.3527 -0.1156
 8088TIP3    H245756   1.049   5.281  11.691  1.3030 -2.3486  0.6912
 8089TIP3   OH245757   2.697   0.364  16.632 -0.5614  0.1145  0.1707
 8089TIP3    H145758   2.618   0.401  16.672 -0.4224  1.8691 -1.0753
 8089TIP3    H245759   2.767   0.423  16.659 -0.7005  2.3204 -3.8000
 8090TIP3   OH245760   2.429   3.939  11.096  0.2667  0.2489 -0.0467
 8090TIP3    H145761   2.338   3.968  11.104 -0.2436 -0.6378 -2.1793
 8090TIP3    H245762   2.480   4.020  11.093 -0.4720  0.7548  0.8495
 8091TIP3   OH245763   4.372   2.269  14.816  0.0637 -0.0064  0.3611
 8091TIP3    H145764   4.430   2.269  14.891 -0.7939  0.3343  1.0323
 8091TIP3    H245765   4.317   2.346  14.827 -0.5926 -0.3827 -0.2047
 8092TIP3   OH245766   0.140   4.819   5.602 -0.0970  0.2743  0.0037
 8092TIP3    H145767   0.181   4.866   5.674  3.6939 -2.5089 -0.2142
 8092TIP3    H245768   0.188   4.849   5.524 -1.8027  0.6178 -0.9411
 8093TIP3   OH245769   2.124   5.947  13.464 -0.5202  0.5118  0.2364
 8093TIP3    H145770   2.165   5.900  13.537  0.0400  1.3769  0.4828
 8093TIP3    H245771   2.030   5.945  13.484 -0.3067  1.4143  1.3769
 8094TIP3   OH245772   5.634   3.034  12.370 -0.2191 -0.2869 -0.0374
 8094TIP3    H145773   5.659   2.986  12.449  1.7847  0.7647  0.0076
 8094TIP3    H245774   5.669   2.982  12.298  0.8153  0.4228 -0.0544
 8095TIP3   OH245775   2.236   2.141   4.570 -0.0172  0.1607  0.6646
 8095TIP3    H145776   2.235   2.226   4.615  1.2584  0.1993  0.6422
 8095TIP3    H245777   2.327   2.131   4.540 -0.2619 -1.0190  0.2914
 8096TIP3   OH245778   2.339   5.604  14.647 -0.3770  0.1590 -0.3660
 8096TIP3    H145779   2.289   5.638  14.721  0.6110  0.3044  0.2485
 8096TIP3    H245780   2.303   5.649  14.571 -1.5327 -0.1339 -0.0067
 8097TIP3   OH245781   0.346   4.200  16.201  0.4519 -0.1342 -0.2028
 8097TIP3    H145782   0.366   4.293  16.192  0.8298 -0.0796  1.0744
 8097TIP3    H245783   0.271   4.197  16.261  1.6266 -0.7264  1.2799
 8098TIP3   OH245784   4.156   4.689   0.971 -0.1308  0.3154  0.4275
 8098TIP3    H145785   4.090   4.643   0.919  1.1221 -1.5932  0.4831
 8098TIP3    H245786   4.172   4.633   1.046  2.6228 -0.0109 -0.3192
 8099TIP3   OH245787   2.791   3.251   3.709  0.0311  0.5460  0.3941
 8099TIP3    H145788   2.715   3.254   3.766 -0.0569 -1.8484  0.4466
 8099TIP3    H245789   2.860   3.295   3.758 -0.3540 -0.4725  1.8772
 8100TIP3   OH245790   4.704   4.125  15.893  0.4041  0.1192  0.4026
 8100TIP3    H145791   4.753   4.131  15.975 -0.7088  0.8997  1.0187
 8100TIP3    H245792   4.660   4.040  15.897  1.4523 -0.4504 -0.0169
 8101TIP3   OH245793   2.539   6.317   0.483  0.5759 -0.1266 -0.0377
 8101TIP3    H145794   2.478   6.243   0.481  0.8610 -0.3803  0.6045
 8101TIP3    H245795   2.609   6.291   0.423  0.6349 -0.3482  0.1234
 8102TIP3   OH245796   5.177   2.871  11.679 -0.5311  0.0588  0.0072
 8102TIP3    H145797   5.251   2.871  11.619 -0.2187 -1.1984  0.3662
 8102TIP3    H245798   5.175   2.958  11.717  1.0155 -0.0318  0.3023
 8103TIP3   OH245799   5.949   3.111   1.193 -0.5209  0.3694  0.2844
 8103TIP3    H145800   6.038   3.079   1.175 -0.2727 -0.1215  2.3130
 8103TIP3    H245801   5.913   3.129   1.106  1.1499 -0.5201 -0.6320
 8104TIP3   OH245802   1.409   4.229   1.845  0.0695 -0.0519 -0.0825
 8104TIP3    H145803   1.315   4.244   1.836 -0.1412 -1.1249  0.2670
 8104TIP3    H245804   1.422   4.139   1.816  0.7706 -0.4086  1.3000
 8105TIP3   OH245805   3.472   1.901   3.840 -0.0740 -0.9089  0.3707
 8105TIP3    H145806   3.408   1.961   3.877  0.0040 -0.1890 -0.6530
 8105TIP3    H245807   3.556   1.945   3.854 -0.1303 -0.1411 -1.5770
 8106TIP3   OH245808   3.002   0.480   3.452 -0.4891  0.0129  0.1791
 8106TIP3    H145809   2.916   0.522   3.458 -1.1088 -1.4036  1.7424
 8106TIP3    H245810   3.041   0.516   3.373 -2.3426  1.0290 -0.3031
 8107TIP3   OH245811   2.861   3.536  12.398 -0.6775 -0.5481 -0.1768
 8107TIP3    H145812   2.918   3.613  12.406 -1.8545  0.1169  2.3652
 8107TIP3    H245813   2.815   3.548  12.315 -0.4020  1.1859 -0.0853
 8108TIP3   OH245814   3.752   5.576   0.112 -0.1225 -0.1353  0.0467
 8108TIP3    H145815   3.816   5.565   0.042 -0.8767  1.2090 -0.8893
 8108TIP3    H245816   3.695   5.647   0.081 -0.8602  0.0324  1.7330
 8109TIP3   OH245817   1.967   0.358   4.904  0.4258  0.2209 -0.1469
 8109TIP3    H145818   1.987   0.439   4.952  0.5891  0.3433 -0.4241
 8109TIP3    H245819   1.955   0.386   4.814  0.6974 -0.0941 -0.2831
 8110TIP3   OH245820   3.977   4.678   1.623  0.3834 -0.1163 -0.2561
 8110TIP3    H145821   3.989   4.699   1.530 -1.5705 -1.6503 -0.8924
 8110TIP3    H245822   3.904   4.734   1.651 -1.1792 -2.0067 -0.5111
 8111TIP3   OH245823   4.198   0.851   1.996 -0.2347 -0.7395  0.7267
 8111TIP3    H145824   4.205   0.772   2.049 -1.4740  0.1732  2.2944
 8111TIP3    H245825   4.278   0.852   1.943 -0.1032 -2.9065  0.8450
 8112TIP3   OH245826   4.588   0.066   5.474 -0.5073  0.1507 -0.1622
 8112TIP3    H145827   4.642  -0.010   5.456 -1.0014 -0.0577 -0.8079
 8112TIP3    H245828   4.499   0.031   5.484 -0.6543  0.5787  0.0422
 8113TIP3   OH245829   1.804   3.640  13.499 -0.0021 -0.1177  0.0397
 8113TIP3    H145830   1.764   3.725  13.479  1.5221  1.4747  3.5208
 8113TIP3    H245831   1.895   3.650  13.473  0.0007 -1.0059 -0.3032
 8114TIP3   OH245832   4.157   1.939  12.780  0.2182  0.0980  0.4257
 8114TIP3    H145833   4.089   2.005  12.772 -1.3607 -1.2797  2.0035
 8114TIP3    H245834   4.171   1.908  12.690 -0.0052  1.6060 -0.1313
 8115TIP3   OH245835   6.693   0.608   0.908  0.1317 -0.0065  0.1225
 8115TIP3    H145836   6.625   0.603   0.842  0.6455  0.2954 -0.4334
 8115TIP3    H245837   6.717   0.517   0.925  0.8210 -0.0307 -0.9664
 8116TIP3   OH245838   1.003   4.558   4.450  0.3067 -0.0878 -0.6478
 8116TIP3    H145839   1.080   4.510   4.420 -0.2243 -0.4330 -1.4677
 8116TIP3    H245840   0.933   4.530   4.391 -0.6275 -0.3788  0.5771
 8117TIP3   OH245841   4.905   2.643  13.725  0.5220  0.4141  0.0024
 8117TIP3    H145842   4.987   2.606  13.691 -0.0406 -0.4771 -0.3853
 8117TIP3    H245843   4.907   2.623  13.819 -0.8565 -2.6996 -0.5679
 8118TIP3   OH245844   6.671   1.917   2.630 -0.3239  0.1103  0.1644
 8118TIP3    H145845   6.645   2.006   2.653 -0.2614  0.8046 -2.3734
 8118TIP3    H245846   6.617   1.861   2.687 -0.0898  1.7384  2.0408
 8119TIP3   OH245847   5.362   5.423   4.548 -0.3372  0.2139  0.3318
 8119TIP3    H145848   5.286   5.364   4.548  0.1705 -0.4575 -1.0614
 8119TIP3    H245849   5.389   5.427   4.457  4.1228 -3.2855  1.3315
 8120TIP3   OH245850   2.569   5.916   0.706 -0.1770  0.0496 -0.2893
 8120TIP3    H145851   2.640   5.935   0.767  0.0313 -0.7221 -0.2823
 8120TIP3    H245852   2.597   5.957   0.624  0.9204 -1.3682 -0.6573
 8121TIP3   OH245853   4.228   6.316  11.194  0.8547  0.3467 -0.2564
 8121TIP3    H145854   4.298   6.377  11.213  0.8282 -0.2395  1.8925
 8121TIP3    H245855   4.268   6.229  11.206 -0.3743  0.0137  1.6842
 8122TIP3   OH245856   3.963   3.380  16.951  0.1862  0.3751 -0.1136
 8122TIP3    H145857   4.003   3.301  16.986  0.7286  0.8666  0.3681
 8122TIP3    H245858   3.879   3.350  16.916 -0.8206  0.0512  2.4750
 8123TIP3   OH245859   5.833   2.602   5.034 -0.1972 -0.0910  0.4797
 8123TIP3    H145860   5.913   2.654   5.030 -1.8872  2.4028 -2.5365
 8123TIP3    H245861   5.812   2.583   4.943 -2.5693 -1.4425  1.2750
 8124TIP3   OH245862   2.146   6.366   0.180 -0.2227 -0.2657  1.0132
 8124TIP3    H145863   2.161   6.278   0.146 -1.3002 -0.4033  0.8791
 8124TIP3    H245864   2.057   6.387   0.154 -0.2797  0.5192  1.8118
 8125TIP3   OH245865   0.125   6.056  13.563 -0.1905  0.5976  0.1488
 8125TIP3    H145866   0.207   6.049  13.514 -0.3924  0.6235 -0.2005
 8125TIP3    H245867   0.123   5.979  13.619 -1.3938 -1.0910 -2.1078
 8126TIP3   OH245868   4.314   4.516  14.025  0.1533  0.9420 -0.1097
 8126TIP3    H145869   4.275   4.478  14.103 -1.7101 -1.1247 -1.9696
 8126TIP3    H245870   4.245   4.572  13.988  0.9503  1.7740 -0.3622
 8127TIP3   OH245871   3.727   4.849   0.577  0.1970 -0.3263 -0.2005
 8127TIP3    H145872   3.659   4.880   0.517  0.5621  0.6172 -0.1419
 8127TIP3    H245873   3.806   4.895   0.549  0.4107 -0.0130  0.8889
 8128TIP3   OH245874   1.324   5.180  15.777 -0.3386 -0.1335  0.0565
 8128TIP3    H145875   1.394   5.244  15.791 -1.7819  0.9058  3.0718
 8128TIP3    H245876   1.260   5.227  15.722  0.0424 -0.1117 -0.3732
 8129TIP3   OH245877   4.681   3.220   3.656  0.1450 -0.6225 -0.1920
 8129TIP3    H145878   4.598   3.203   3.701 -0.3229 -3.2894 -1.8959
 8129TIP3    H245879   4.747   3.177   3.711  0.5371  2.0683  1.5131
 8130TIP3   OH245880   2.803   5.452   0.764 -0.1560  0.2640 -0.4236
 8130TIP3    H145881   2.877   5.453   0.824 -0.0514  0.7457 -0.5575
 8130TIP3    H245882   2.792   5.360   0.740  0.3041  0.1740 -0.2859
 8131TIP3   OH245883   1.978   1.175   2.921  0.4504  0.0611  0.0444
 8131TIP3    H145884   1.945   1.178   3.010  2.8622  1.0640  0.9508
 8131TIP3    H245885   1.936   1.248   2.876  0.1033  0.2396  0.6659
 8132TIP3   OH245886   3.701   6.715  10.635  0.0872 -0.1791  0.1003
 8132TIP3    H145887   3.644   6.775  10.683  1.3285  1.4672 -0.4666
 8132TIP3    H245888   3.787   6.724  10.677  0.4477 -1.0241 -0.4438
 8133TIP3   OH245889   6.392   2.195   4.254  0.2723 -0.0927 -0.4412
 8133TIP3    H145890   6.436   2.117   4.286  2.0942  0.7529 -0.7892
 8133TIP3    H245891   6.379   2.250   4.332 -2.3163 -1.3134  0.0446
 8134TIP3   OH245892   1.634   1.580   4.973  0.4360  0.2653 -0.6247
 8134TIP3    H145893   1.617   1.673   4.966 -0.1382  0.2704  0.6487
 8134TIP3    H245894   1.721   1.568   4.935  1.1212  1.5367  0.5213
 8135TIP3   OH245895   3.582   3.712   2.339 -0.2886 -0.0475  0.0538
 8135TIP3    H145896   3.486   3.719   2.341 -0.2894 -0.1955  0.6497
 8135TIP3    H245897   3.602   3.645   2.405  0.2078 -0.1873 -0.2403
 8136TIP3   OH245898   0.501   1.805   5.735  0.0104 -0.2070 -0.0885
 8136TIP3    H145899   0.590   1.789   5.703  0.0816  0.6302 -0.3176
 8136TIP3    H245900   0.513   1.832   5.826 -0.0326 -0.4743 -0.0052
 8137TIP3   OH245901   4.786   6.183   1.066  0.1057  0.0865 -0.1584
 8137TIP3    H145902   4.737   6.242   1.009  0.2041 -0.8507 -1.2243
 8137TIP3    H245903   4.871   6.173   1.024  0.2881 -0.3796  0.3075
 8138TIP3   OH245904   6.739   5.438   0.302 -0.0694  0.2302  0.3585
 8138TIP3    H145905   6.737   5.525   0.342  0.6589  0.9045 -1.0771
 8138TIP3    H245906   6.761   5.453   0.211 -1.1389 -1.3691 -0.1924
 8139TIP3   OH245907   4.289   6.784  15.367 -0.8558  0.3701  0.6393
 8139TIP3    H145908   4.342   6.856  15.332 -1.4014  0.7965  0.6852
 8139TIP3    H245909   4.280   6.724  15.293 -0.4360  0.3689  0.5864
 8140TIP3   OH245910   4.339   3.435   2.650 -0.4356  0.2349 -0.0239
 8140TIP3    H145911   4.404   3.420   2.581  1.2879 -0.4002  1.7291
 8140TIP3    H245912   4.289   3.354   2.653  1.7887 -1.0915  1.8946
 8141TIP3   OH245913   2.322   5.886  15.330  0.3580  0.2470 -0.3038
 8141TIP3    H145914   2.382   5.959  15.348  2.3916 -1.3428 -0.5357
 8141TIP3    H245915   2.314   5.841  15.414  0.2588 -0.1246 -0.5144
 8142TIP3   OH245916   0.154   1.477   1.341 -0.1851 -0.1427  0.0990
 8142TIP3    H145917   0.133   1.555   1.290 -0.6472  1.5692  2.8094
 8142TIP3    H245918   0.070   1.444   1.373  0.0491 -1.4616 -0.6033
 8143TIP3   OH245919   2.176   6.083   3.351  0.2606  0.6364 -0.3229
 8143TIP3    H145920   2.237   6.039   3.292  0.4521  0.0293  0.3294
 8143TIP3    H245921   2.223   6.088   3.434 -0.3979  0.6163  0.0470
 8144TIP3   OH245922   6.276   3.813   6.474  0.6529 -0.8846  0.2543
 8144TIP3    H145923   6.240   3.841   6.390 -0.0926 -0.2450  0.7820
 8144TIP3    H245924   6.371   3.809   6.460  0.5604 -0.4196 -0.5087
 8145TIP3   OH245925   0.138   0.107  14.661  0.0296 -0.2821 -0.6066
 8145TIP3    H145926   0.160   0.195  14.694  1.1824 -0.4893 -0.7820
 8145TIP3    H245927   0.119   0.057  14.740 -1.7883  0.4242 -0.5825
 8146TIP3   OH245928   6.099   1.030  14.962  0.3003  0.4603  0.2919
 8146TIP3    H145929   6.076   0.938  14.972 -1.8915  0.6712 -2.3264
 8146TIP3    H245930   6.049   1.075  15.030 -0.6243 -0.0070 -0.0787
 8147TIP3   OH245931   4.706   1.862  11.812 -0.6648 -0.6087 -0.2237
 8147TIP3    H145932   4.636   1.899  11.866  0.0464 -2.6117  2.1428
 8147TIP3    H245933   4.661   1.804  11.750 -1.3812  0.8963 -1.1506
 8148TIP3   OH245934   5.392   4.959  13.142  0.2281  0.2589 -0.2008
 8148TIP3    H145935   5.444   4.881  13.122  0.6500  0.4802  0.0399
 8148TIP3    H245936   5.454   5.019  13.184 -0.5246 -0.0042  1.3179
 8149TIP3   OH245937   0.133   2.602  11.406  0.6410  0.2207 -0.0861
 8149TIP3    H145938   0.216   2.560  11.385 -0.0524 -1.5190  0.5474
 8149TIP3    H245939   0.111   2.569  11.493 -0.7966  0.5000 -0.3338
 8150TIP3   OH245940   0.037   2.143   3.714 -0.1384  0.5839 -0.4316
 8150TIP3    H145941   0.005   2.168   3.801 -0.8910  1.6986 -1.0175
 8150TIP3    H245942  -0.022   2.187   3.653 -0.5949 -1.4602 -1.5213
 8151TIP3   OH245943   1.051   2.913  16.291  0.1271  0.5183 -0.3631
 8151TIP3    H145944   1.060   2.995  16.242  0.4725  1.3384  1.0704
 8151TIP3    H245945   1.139   2.894  16.323  0.0663 -0.4710 -0.7529
 8152TIP3   OH245946   2.810   1.059   4.404  0.0883  0.1115  0.4719
 8152TIP3    H145947   2.809   1.144   4.448 -0.6321 -0.2402  1.1395
 8152TIP3    H245948   2.807   0.995   4.476  0.3780 -0.4760 -0.0357
 8153TIP3   OH245949   5.877   1.028  16.525  0.0628 -0.2137 -0.5155
 8153TIP3    H145950   5.969   1.041  16.499  0.5933 -3.6251 -0.5301
 8153TIP3    H245951   5.837   1.115  16.515  3.1152  1.1908 -1.1559
 8154TIP3   OH245952   0.387   5.269  13.018  0.1972 -0.2792  0.0803
 8154TIP3    H145953   0.406   5.185  13.059  0.2932 -1.2715 -1.9509
 8154TIP3    H245954   0.311   5.253  12.962  0.1218  1.0149 -0.2148
 8155TIP3   OH245955   3.328   0.593   2.639 -0.2788 -0.2906  0.0711
 8155TIP3    H145956   3.349   0.552   2.723  0.2889 -0.0705  0.0368
 8155TIP3    H245957   3.232   0.599   2.639 -0.1761  1.9005  1.7420
 8156TIP3   OH245958   3.969   2.864  13.587 -0.8667 -0.0308 -0.0336
 8156TIP3    H145959   3.921   2.782  13.577 -0.1978 -0.7533  2.3476
 8156TIP3    H245960   4.058   2.838  13.607 -1.1161  1.1996  2.9291
 8157TIP3   OH245961   5.404   0.133   1.261 -0.0106  0.1869 -0.2326
 8157TIP3    H145962   5.358   0.138   1.344  0.3492  2.2038 -0.1352
 8157TIP3    H245963   5.483   0.081   1.281 -0.8821 -0.9913  0.2073
 8158TIP3   OH245964   2.627   5.556   0.196 -0.0761  0.3463  0.1071
 8158TIP3    H145965   2.659   5.491   0.134 -0.7708  0.5243 -0.4399
 8158TIP3    H245966   2.697   5.564   0.261  0.2464 -0.5249 -0.1370
 8159TIP3   OH245967   4.153   2.663   2.209 -0.4738  0.5712 -0.0298
 8159TIP3    H145968   4.058   2.659   2.195 -0.4358 -0.9699  0.0189
 8159TIP3    H245969   4.187   2.586   2.163  0.7802  1.2571 -0.2595
 8160TIP3   OH245970   5.771   5.901  14.982 -0.0077 -0.0275 -0.1919
 8160TIP3    H145971   5.783   5.865  15.070  0.2761 -0.0608 -0.2445
 8160TIP3    H245972   5.857   5.894  14.941 -0.2396 -0.4165 -0.6215
 8161TIP3   OH245973   0.065   2.752  13.913  0.5654 -0.2415  0.3296
 8161TIP3    H145974   0.139   2.792  13.959  0.8271 -0.3584  0.0154
 8161TIP3    H245975   0.105   2.712  13.835 -0.2003  2.1914 -1.3752
 8162TIP3   OH245976   4.857   0.556   6.799  0.1653  0.3111  0.3109
 8162TIP3    H145977   4.834   0.471   6.763  1.0919  0.5542 -0.8826
 8162TIP3    H245978   4.794   0.617   6.760  0.6734  0.4551 -0.2837
 8163TIP3   OH245979   4.386   3.699   4.621 -0.2443 -0.5947  0.5357
 8163TIP3    H145980   4.455   3.660   4.675 -0.1971 -0.0129  0.8920
 8163TIP3    H245981   4.409   3.792   4.615 -0.2625 -0.6447 -0.4613
 8164TIP3   OH245982   6.462   4.312   4.320  0.0749  0.8900 -0.0560
 8164TIP3    H145983   6.384   4.257   4.310  0.3266  0.0219  2.2811
 8164TIP3    H245984   6.529   4.267   4.268  0.1159 -0.7396  1.3429
 8165TIP3   OH245985   6.451   1.890   0.101  0.2260  0.0003  0.2957
 8165TIP3    H145986   6.447   1.977   0.140  0.6045 -0.0469  0.4405
 8165TIP3    H245987   6.365   1.878   0.062 -0.5452 -0.4045  2.0736
 8166TIP3   OH245988   4.949   2.477   2.773 -0.2683 -0.4447  0.6704
 8166TIP3    H145989   4.985   2.421   2.704  0.5416 -0.4152  1.0573
 8166TIP3    H245990   5.022   2.491   2.833 -0.0858  2.0036 -0.0468
 8167TIP3   OH245991   3.314   0.601   5.565  0.0089 -0.7572  0.1294
 8167TIP3    H145992   3.316   0.687   5.609 -0.2209 -0.7757  0.1780
 8167TIP3    H245993   3.306   0.622   5.472 -0.3573 -0.7305  0.1669
 8168TIP3   OH245994   0.428   5.862  15.356 -0.1391 -0.3471  0.5508
 8168TIP3    H145995   0.488   5.905  15.416 -1.1772  1.8850  0.0417
 8168TIP3    H245996   0.374   5.933  15.320 -0.6748 -1.8272 -1.7210
 8169TIP3   OH245997   3.794   5.089  13.169 -0.0877 -0.2878 -0.3212
 8169TIP3    H145998   3.831   5.058  13.252  0.3597  0.3142 -0.2943
 8169TIP3    H245999   3.701   5.103  13.187  0.3084  1.3416  0.5044
 8170TIP3   OH246000   3.953   5.005  15.359 -0.2476  0.0286 -0.6341
 8170TIP3    H146001   3.928   4.959  15.438  1.4437 -1.4802 -0.9453
 8170TIP3    H246002   3.921   5.094  15.371 -2.6617 -0.9554  0.4189
 8171TIP3   OH246003   1.584   2.631   0.025 -0.0925  0.2970  0.0172
 8171TIP3    H146004   1.633   2.552   0.004 -0.9199 -0.1381 -0.2903
 8171TIP3    H246005   1.612   2.695  -0.041  1.8016  0.7950  1.2387
 8172TIP3   OH246006   5.412   0.135   2.216 -1.1174  0.3589  0.2490
 8172TIP3    H146007   5.455   0.105   2.136 -0.5282 -0.1546  0.7574
 8172TIP3    H246008   5.468   0.103   2.287 -2.3662 -0.3647  0.9205
 8173TIP3   OH246009   3.340   3.976  12.091  0.1232  0.4843 -0.1662
 8173TIP3    H146010   3.323   3.887  12.120  3.6167 -0.0256  0.4971
 8173TIP3    H246011   3.341   4.029  12.171 -0.5460  0.8781 -0.4139
 8174TIP3   OH246012   6.435   0.079   3.331 -0.1401  0.1575  0.4529
 8174TIP3    H146013   6.366   0.084   3.266  2.0687  1.9667 -1.8290
 8174TIP3    H246014   6.457   0.170   3.350  2.5588 -0.3875  0.0972
 8175TIP3   OH246015   4.483   2.264  10.868 -0.6814  0.7151  0.3917
 8175TIP3    H146016   4.428   2.244  10.792  0.3280 -0.3882 -0.0606
 8175TIP3    H246017   4.464   2.194  10.930  1.4297 -0.6000 -0.4227
 8176TIP3   OH246018   3.401   4.895   1.810  0.6071 -0.5598  0.3264
 8176TIP3    H146019   3.368   4.854   1.730  0.6356 -0.9488  0.5081
 8176TIP3    H246020   3.363   4.983   1.810  0.9631 -0.4093 -0.3301
 8177TIP3   OH246021   5.650   0.974   4.274 -0.2221  0.3445  0.1723
 8177TIP3    H146022   5.692   0.931   4.199 -0.5344  0.1792  0.0905
 8177TIP3    H246023   5.659   1.067   4.256 -1.8786  0.3087 -0.9618
 8178TIP3   OH246024   1.484   3.374  14.853  0.0500 -0.1452 -0.1853
 8178TIP3    H146025   1.398   3.337  14.837 -0.0133  0.6374 -1.7792
 8178TIP3    H246026   1.543   3.299  14.851 -0.5767 -0.6546  0.7000
 8179TIP3   OH246027   0.853   1.769  13.690 -0.1472  0.2689  0.2344
 8179TIP3    H146028   0.796   1.753  13.765  0.6200  2.0756  1.2473
 8179TIP3    H246029   0.893   1.855  13.708  2.5495 -0.7401 -0.6256
 8180TIP3   OH246030   0.997   4.024   0.172  0.2001 -0.2267 -0.5717
 8180TIP3    H146031   0.927   4.071   0.218  2.9248  1.6552  1.7951
 8180TIP3    H246032   0.996   4.062   0.084 -2.1076 -0.6560 -0.7832
 8181TIP3   OH246033   2.361   0.022  11.944  0.1755 -0.2086  0.3605
 8181TIP3    H146034   2.338   0.076  11.868 -0.2328 -0.7782  0.0682
 8181TIP3    H246035   2.279   0.015  11.993 -0.1012 -1.6118 -0.2780
 8182TIP3   OH246036   6.119   2.123   6.063  0.1169 -0.0587  0.0905
 8182TIP3    H146037   6.097   2.195   6.122  0.3031 -0.3539  0.5277
 8182TIP3    H246038   6.076   2.145   5.981  0.5488  0.7811  0.0760
 8183TIP3   OH246039   3.391   5.401  13.516 -0.1126 -0.2429 -0.4198
 8183TIP3    H146040   3.455   5.330  13.509  0.3091 -0.0100  0.9319
 8183TIP3    H246041   3.325   5.380  13.450 -0.7012 -2.6249  0.8576
 8184TIP3   OH246042   3.230   3.874   2.876  0.4473  0.3715 -0.2930
 8184TIP3    H146043   3.320   3.905   2.862  0.3922  0.2592 -0.9226
 8184TIP3    H246044   3.240   3.797   2.932  0.8043 -0.0592 -0.9414
 8185TIP3   OH246045   3.803   5.105  14.243  0.0661  0.6273  0.4724
 8185TIP3    H146046   3.800   5.074  14.334  0.4857  2.5320  1.1499
 8185TIP3    H246047   3.724   5.157  14.233 -0.1065  0.2106 -0.3449
 8186TIP3   OH246048   5.874   2.941  16.079 -0.1188  0.1982  0.1114
 8186TIP3    H146049   5.957   2.990  16.082  0.8129 -1.3737  0.1746
 8186TIP3    H246050   5.856   2.919  16.171 -0.6920  0.6551  0.1128
 8187TIP3   OH246051   0.019   1.215   4.155  0.4393  0.0192 -0.0790
 8187TIP3    H146052   0.043   1.280   4.089  2.5917 -2.4218 -1.8026
 8187TIP3    H246053   0.099   1.166   4.172 -0.8029 -1.3723  2.1295
 8188TIP3   OH246054   3.010   5.518  16.660 -0.0123  0.0414 -0.3482
 8188TIP3    H146055   3.049   5.598  16.695 -0.6437  1.5491 -2.9795
 8188TIP3    H246056   2.915   5.532  16.669 -0.1086 -0.7050 -0.1921
 8189TIP3   OH246057   5.960   4.117  12.909  0.0442 -0.1246 -0.0435
 8189TIP3    H146058   5.865   4.113  12.909  0.0509 -0.4449 -0.8269
 8189TIP3    H246059   5.981   4.202  12.949 -0.5166 -0.7906  1.6974
 8190TIP3   OH246060   0.011   0.563   6.563  0.1996  0.5730  0.1703
 8190TIP3    H146061   0.081   0.624   6.541 -1.0817  1.2527 -2.1357
 8190TIP3    H246062   0.052   0.502   6.625  2.1813  2.2587  0.5891
 8191TIP3   OH246063   1.862   5.817   0.966  0.2598  0.3505  0.7125
 8191TIP3    H146064   1.890   5.807   0.875 -0.5219  3.5734  0.0616
 8191TIP3    H246065   1.928   5.874   1.005 -1.3407  1.9454  1.1503
 8192TIP3   OH246066   2.831   3.311  12.798  0.6371  0.0579 -0.1699
 8192TIP3    H146067   2.743   3.347  12.803  0.5492 -0.2130  0.2957
 8192TIP3    H246068   2.850   3.282  12.888  1.2209  0.1739 -0.2552
 8193TIP3   OH246069   5.734   4.416   1.513  0.6392  0.1062 -0.5274
 8193TIP3    H146070   5.702   4.430   1.424  1.3143  2.4619 -0.4556
 8193TIP3    H246071   5.830   4.423   1.505  0.6811  0.7537  0.4183
 8194TIP3   OH246072   3.701   6.641   5.007 -0.0583  0.1328 -0.3303
 8194TIP3    H146073   3.670   6.677   4.923 -0.8092 -1.7695 -0.8753
 8194TIP3    H246074   3.796   6.657   5.006 -0.5413  3.4686  0.1276
 8195TIP3   OH246075   4.886   4.939   2.941  0.4034  0.1624 -0.5691
 8195TIP3    H146076   4.905   4.914   2.851  0.5834  1.2140 -0.8330
 8195TIP3    H246077   4.791   4.943   2.946  0.4112  0.7026 -0.8779
 8196TIP3   OH246078   0.512   2.105  11.531  0.0232  0.2429  0.0691
 8196TIP3    H146079   0.551   2.176  11.582 -0.0056  0.7134 -0.5583
 8196TIP3    H246080   0.563   2.104  11.449 -0.3559 -0.0723 -0.1625
 8197TIP3   OH246081   1.663   4.277  15.735 -0.1595  0.0706  0.1629
 8197TIP3    H146082   1.664   4.241  15.646  0.3123  1.1683 -0.2942
 8197TIP3    H246083   1.700   4.365  15.725 -1.1398  0.6194  1.2702
 8198TIP3   OH246084   3.688   6.818  12.276  1.0134  0.6748  0.0379
 8198TIP3    H146085   3.704   6.751  12.343 -0.5290  0.7361  0.4888
 8198TIP3    H246086   3.772   6.863  12.267  1.5726 -0.1290  1.0602
 8199TIP3   OH246087   1.794   6.776   2.403  0.1209 -0.0895  0.1429
 8199TIP3    H146088   1.768   6.862   2.372  0.5914 -0.5168 -1.4928
 8199TIP3    H246089   1.884   6.788   2.434 -0.6029  0.5003  2.0560
 8200TIP3   OH246090   1.471   1.162   2.528 -0.0841 -0.1531 -1.1050
 8200TIP3    H146091   1.544   1.100   2.532 -0.9368 -1.1907 -1.3603
 8200TIP3    H246092   1.405   1.125   2.587 -0.5698  0.5630 -1.1898
 8201TIP3   OH246093   2.535   6.454   2.087 -0.1260 -0.3364 -0.8907
 8201TIP3    H146094   2.494   6.500   2.160  1.3625 -0.7635  0.2588
 8201TIP3    H246095   2.591   6.519   2.045 -0.9493 -0.1019 -1.6265
 8202TIP3   OH246096   2.765   0.014  11.163  0.1407 -0.1712  0.1928
 8202TIP3    H146097   2.800   0.088  11.113  0.6300  0.4288  1.4060
 8202TIP3    H246098   2.823  -0.060  11.140 -1.0543 -0.5020 -1.9314
 8203TIP3   OH246099   2.458   5.474   1.271 -0.5403 -0.2244  0.2525
 8203TIP3    H146100   2.398   5.547   1.255  0.7184  1.0387  1.1634
 8203TIP3    H246101   2.479   5.440   1.184 -3.1451 -1.1680 -0.0492
 8204TIP3   OH246102   6.118   3.316   3.945  0.1825  0.1311 -0.3559
 8204TIP3    H146103   6.106   3.261   4.023  1.0779 -1.5260 -1.3564
 8204TIP3    H246104   6.036   3.307   3.897 -0.3704  1.1532  0.4000
 8205TIP3   OH246105   1.967   5.673  16.637 -0.4105  0.9788 -0.1251
 8205TIP3    H146106   2.028   5.741  16.663  0.9625 -0.1942 -0.1958
 8205TIP3    H246107   1.977   5.605  16.704 -1.5349  0.7160 -0.2168
 8206TIP3   OH246108   6.411   2.277   0.688  0.0678 -0.2337 -0.7124
 8206TIP3    H146109   6.436   2.247   0.601  0.2542 -1.7220 -0.1600
 8206TIP3    H246110   6.494   2.298   0.731 -0.0365  0.7130 -0.9524
 8207TIP3   OH246111   6.216   0.491   6.213 -0.3706  0.2954  0.1477
 8207TIP3    H146112   6.158   0.468   6.286 -2.3014  1.5283 -0.9551
 8207TIP3    H246113   6.290   0.431   6.221 -2.4697 -2.2984  0.7808
 8208TIP3   OH246114   6.078   6.302   2.454  0.7289 -0.0701 -0.2272
 8208TIP3    H146115   6.138   6.331   2.385 -1.8724  0.7041 -2.2384
 8208TIP3    H246116   5.993   6.293   2.410 -0.6949 -0.9453  2.5763
 8209TIP3   OH246117   0.238   2.231  17.093  0.5400  0.8556  0.3722
 8209TIP3    H146118   0.311   2.170  17.083  0.7073  0.6285  2.7432
 8209TIP3    H246119   0.165   2.177  17.122 -0.2271  1.2831 -0.7437
 8210TIP3   OH246120   3.326   4.193   3.328 -0.6217  0.4448  0.2621
 8210TIP3    H146121   3.321   4.266   3.390  0.4364  0.1238  0.7255
 8210TIP3    H246122   3.277   4.122   3.371 -0.8086  0.5671  0.2509
 8211TIP3   OH246123   6.130   1.997   4.741 -0.2305  0.4067 -1.0319
 8211TIP3    H146124   6.124   2.078   4.691 -0.2047  1.6103  0.8758
 8211TIP3    H246125   6.212   2.003   4.789 -0.6059 -0.3732 -0.2586
 8212TIP3   OH246126   0.103   3.476  11.695 -0.2713 -0.0273  0.9912
 8212TIP3    H146127   0.126   3.423  11.617 -0.9796  0.4289  0.4707
 8212TIP3    H246128   0.184   3.521  11.717  0.4337 -1.5597  1.6249
 8213TIP3   OH246129   1.182   3.360   5.506 -0.3550  0.2681 -0.5110
 8213TIP3    H146130   1.109   3.365   5.445 -1.5696 -0.1050  0.9020
 8213TIP3    H246131   1.152   3.405   5.584  0.9558  0.1863  0.0598
 8214TIP3   OH246132   4.772   5.088  16.559 -0.5245 -0.2915 -0.0503
 8214TIP3    H146133   4.678   5.106  16.561 -0.5884 -0.5701 -0.4886
 8214TIP3    H246134   4.801   5.121  16.474 -0.2093 -0.1264  0.1207
 8215TIP3   OH246135   5.191   6.371   0.456  0.3688 -0.9633  0.1165
 8215TIP3    H146136   5.181   6.276   0.448 -0.5726 -0.7081 -2.0014
 8215TIP3    H246137   5.277   6.390   0.418 -0.6955 -0.6661 -2.2414
 8216TIP3   OH246138   6.321   0.854   2.841 -0.6752 -0.6456  0.7176
 8216TIP3    H146139   6.291   0.824   2.927  0.9280 -0.4758  1.3542
 8216TIP3    H246140   6.306   0.948   2.841 -0.3048 -0.5831  0.9832
 8217TIP3   OH246141   5.983   3.522   6.850 -0.9689  0.0889 -0.1946
 8217TIP3    H146142   6.011   3.432   6.832 -1.1825  0.0862 -0.5147
 8217TIP3    H246143   6.036   3.576   6.792  0.6043  0.3375  1.4338
 8218TIP3   OH246144   1.193   0.246  12.600  0.3814 -0.0019 -0.5499
 8218TIP3    H146145   1.280   0.219  12.630  0.0676 -0.7067 -0.2437
 8218TIP3    H246146   1.147   0.163  12.585  0.9224  0.2821 -4.2021
 8219TIP3   OH246147   0.179   5.376   6.087  0.2347 -0.0821 -0.2707
 8219TIP3    H146148   0.248   5.351   6.027  0.6839 -1.4257  0.7703
 8219TIP3    H246149   0.210   5.346   6.173 -1.9976 -1.4981  0.0946
 8220TIP3   OH246150   1.993   2.434  16.590 -0.0619 -0.0973  0.2377
 8220TIP3    H146151   2.039   2.457  16.671  1.6733  1.8047 -1.2083
 8220TIP3    H246152   2.019   2.343  16.573 -0.3979 -0.4890  1.7846
 8221TIP3   OH246153   1.572   6.360  16.322 -0.2164 -0.0808  0.0044
 8221TIP3    H146154   1.529   6.399  16.246 -0.7228 -3.7383 -1.6683
 8221TIP3    H246155   1.526   6.397  16.398 -1.6649  1.3337 -1.5224
 8222TIP3   OH246156   2.202   1.013  16.415  0.0856  0.0135 -0.0214
 8222TIP3    H146157   2.170   1.100  16.436 -1.1619 -0.3539 -0.3641
 8222TIP3    H246158   2.293   1.013  16.444  0.1652  1.5062 -0.2656
 8223TIP3   OH246159   6.715   4.109   1.864  0.0531  0.0927  0.0829
 8223TIP3    H146160   6.775   4.036   1.861  0.3228  0.2007  2.2855
 8223TIP3    H246161   6.662   4.100   1.784  0.8070 -1.8343 -0.2159
 8224TIP3   OH246162   1.327   2.999   1.844  0.3255 -0.4211 -0.1876
 8224TIP3    H146163   1.375   3.064   1.896 -0.0652  0.4840 -0.9522
 8224TIP3    H246164   1.243   3.040   1.824  0.7846 -0.4118 -2.2374
 8225TIP3   OH246165   4.353   1.662  13.691  0.8342 -0.0267  0.4333
 8225TIP3    H146166   4.305   1.596  13.640  1.4209  1.1212 -1.6960
 8225TIP3    H246167   4.287   1.701  13.748 -0.1423 -0.4491 -0.3963
 8226TIP3   OH246168   1.064   1.895  12.157 -0.1436 -0.0949  0.2028
 8226TIP3    H146169   1.062   1.810  12.199 -0.0328 -0.4297 -0.4637
 8226TIP3    H246170   1.040   1.878  12.066 -1.1818  0.7328  0.3168
 8227TIP3   OH246171   5.341   3.845  16.748 -0.6473  1.0958  0.0804
 8227TIP3    H146172   5.257   3.883  16.773 -0.6751  0.6193  0.7523
 8227TIP3    H246173   5.405   3.893  16.801 -0.6001  0.7823  0.3085
 8228TIP3   OH246174   3.874   4.330  15.297 -0.6555 -0.2701 -0.7799
 8228TIP3    H146175   3.937   4.330  15.225 -0.5011 -0.3481 -0.6451
 8228TIP3    H246176   3.800   4.277  15.265 -0.9164  0.3182 -1.1681
 8229TIP3   OH246177   5.355   4.021  13.875  0.0236 -0.3228  0.2873
 8229TIP3    H146178   5.356   3.969  13.794 -0.5728 -1.3731  0.9449
 8229TIP3    H246179   5.394   4.105  13.849 -1.5358 -0.1031 -1.4515
 8230TIP3   OH246180   2.176   2.807   1.741 -0.3885 -0.4071  0.0613
 8230TIP3    H146181   2.119   2.878   1.710 -0.5059 -0.5482 -0.0457
 8230TIP3    H246182   2.116   2.733   1.756 -0.4028 -0.2071  1.0447
 8231TIP3   OH246183   6.781   6.290   1.739  0.3928  0.6744 -0.2728
 8231TIP3    H146184   6.705   6.231   1.740 -0.5902  1.9079 -0.6024
 8231TIP3    H246185   6.751   6.366   1.688  2.3656  0.4993 -1.7375
 8232TIP3   OH246186   0.475   1.396  14.233  0.4444 -0.3997 -0.1922
 8232TIP3    H146187   0.498   1.303  14.243  2.7723 -0.2370 -3.2935
 8232TIP3    H246188   0.559   1.442  14.232 -0.3550  1.1494 -3.6239
 8233TIP3   OH246189   6.213   4.324   3.831  0.3916  0.2316  1.0680
 8233TIP3    H146190   6.200   4.266   3.756  0.6885 -0.1049  1.2735
 8233TIP3    H246191   6.160   4.402   3.812 -0.1824 -0.1980  0.8887
 8234TIP3   OH246192   1.386   6.432   1.482  0.1556  0.0379 -0.0658
 8234TIP3    H146193   1.434   6.388   1.411  0.4425 -0.0194  0.1612
 8234TIP3    H246194   1.438   6.413   1.560  0.6779  1.4075 -0.0757
 8235TIP3   OH246195   2.724   0.696   2.599  0.0597  0.6959  0.5822
 8235TIP3    H146196   2.708   0.619   2.654 -0.7101  1.2759  1.1945
 8235TIP3    H246197   2.682   0.675   2.516  0.4063  0.1932  0.5308
 8236TIP3   OH246198   6.385   4.985  11.891  0.0327  0.4552 -0.4588
 8236TIP3    H146199   6.354   5.029  11.971  2.7026  0.0750  0.8514
 8236TIP3    H246200   6.452   4.924  11.922  0.8217 -0.0127 -2.9811
 8237TIP3   OH246201   1.176   2.988  15.120 -0.5174  1.1010  1.0349
 8237TIP3    H146202   1.087   3.016  15.142 -1.0953  1.2544 -1.4169
 8237TIP3    H246203   1.167   2.895  15.096 -0.1302  1.3101  0.0755
 8238TIP3   OH246204   5.159   6.736  16.431 -0.4649 -0.0695 -0.3217
 8238TIP3    H146205   5.140   6.829  16.432 -0.2996 -0.0422  1.0877
 8238TIP3    H246206   5.231   6.725  16.492 -1.6339 -1.3464  0.8793
 8239TIP3   OH246207   5.889   6.305  12.933  0.6135 -0.6250  0.1323
 8239TIP3    H146208   5.824   6.341  12.873  1.0720 -1.1757 -0.7000
 8239TIP3    H246209   5.863   6.214  12.945  2.7169 -1.6144 -2.3064
 8240TIP3   OH246210   4.773   4.425  10.793  0.1434 -0.1789  0.3361
 8240TIP3    H146211   4.746   4.434  10.701 -0.4532  0.6047  0.5897
 8240TIP3    H246212   4.865   4.399  10.788  0.2648  0.3858 -0.4712
 8241TIP3   OH246213   2.343   1.829   5.965  0.1628  0.8730  0.3078
 8241TIP3    H146214   2.326   1.735   5.961 -1.9305  1.1192  2.4129
 8241TIP3    H246215   2.436   1.836   5.989  0.2338 -0.6618  0.4998
 8242TIP3   OH246216   1.667   4.749  14.017  0.7363 -0.0810 -0.3219
 8242TIP3    H146217   1.665   4.682  13.949 -0.4296 -1.2003  0.8034
 8242TIP3    H246218   1.584   4.739  14.063  0.0509  2.8444 -0.7996
 8243TIP3   OH246219   3.057   3.791   3.304 -0.2537  0.2981 -0.4514
 8243TIP3    H146220   3.067   3.709   3.352  0.3355 -0.3238 -1.6017
 8243TIP3    H246221   2.972   3.824   3.331 -0.8249 -1.0713 -0.5182
 8244TIP3   OH246222   3.093   4.847  16.993 -0.2145  0.1114 -0.9052
 8244TIP3    H146223   3.131   4.793  17.062  1.0298 -1.3761 -2.7144
 8244TIP3    H246224   3.167   4.869  16.936 -0.6490  3.8312 -0.1870
 8245TIP3   OH246225   6.679   5.641  12.678  0.0314  0.5190 -0.6097
 8245TIP3    H146226   6.751   5.579  12.662 -0.8256 -0.8635  0.7788
 8245TIP3    H246227   6.696   5.676  12.765 -1.7208 -0.9055  0.3482
 8246TIP3   OH246228   2.926   3.131   0.239  0.0980  0.0478  0.1855
 8246TIP3    H146229   2.907   3.079   0.317 -0.6636 -0.8140 -0.5655
 8246TIP3    H246230   2.847   3.183   0.224  0.4680  0.6560  0.3324
 8247TIP3   OH246231   4.857   2.711   4.434 -0.2203 -0.0182 -0.2336
 8247TIP3    H146232   4.927   2.720   4.498  1.1655 -1.5368 -1.4717
 8247TIP3    H246233   4.777   2.701   4.486  0.9409 -1.8091  1.2626
 8248TIP3   OH246234   2.124   1.603  11.526  0.2103  0.5671 -0.0844
 8248TIP3    H146235   2.152   1.529  11.580  1.3740  0.6508 -0.5698
 8248TIP3    H246236   2.087   1.564  11.448 -1.0403  0.4551  0.5596
 8249TIP3   OH246237   3.196   6.174   6.021  0.1795  0.1557  0.6765
 8249TIP3    H146238   3.176   6.151   5.930 -1.7292  1.1649  0.8054
 8249TIP3    H246239   3.120   6.142   6.070  0.9461  0.1084  1.8567
 8250TIP3   OH246240   0.414   2.200   4.704 -0.3730 -0.2689 -0.4114
 8250TIP3    H146241   0.487   2.142   4.725 -0.2535 -0.2751 -0.8360
 8250TIP3    H246242   0.456   2.284   4.682 -0.4796 -0.3247 -0.8380
 8251TIP3   OH246243   2.645   3.325  11.890 -0.3262 -0.1135 -0.0219
 8251TIP3    H146244   2.707   3.387  11.928  0.5676 -0.8817 -0.2397
 8251TIP3    H246245   2.569   3.379  11.868  0.3876  0.8826 -0.0726
 8252TIP3   OH246246   3.704   1.491  15.262  0.0544 -0.0283 -0.3949
 8252TIP3    H146247   3.626   1.456  15.306  1.3166  0.2235  2.1142
 8252TIP3    H246248   3.697   1.586  15.273  2.3440 -0.1556  2.7991
 8253TIP3   OH246249   4.670   2.756   2.171  0.3229  0.0850  0.6346
 8253TIP3    H146250   4.628   2.671   2.188 -1.7502  1.2708  1.6823
 8253TIP3    H246251   4.763   2.740   2.185  0.1104 -2.3056 -0.3896
 8254TIP3   OH246252   4.202   5.262  15.548 -0.2554 -0.0990 -0.3404
 8254TIP3    H146253   4.168   5.198  15.611 -0.8041 -0.1134 -0.6523
 8254TIP3    H246254   4.272   5.307  15.596  0.1841 -0.9722 -0.1378
 8255TIP3   OH246255   3.002   4.097  13.399 -0.1140  0.2928  0.2967
 8255TIP3    H146256   3.068   4.063  13.339 -0.2112  0.0236  0.3410
 8255TIP3    H246257   3.032   4.069  13.485  0.8205  1.9771  0.5212
 8256TIP3   OH246258   1.893   2.438  11.895 -0.1183 -0.3937  0.6395
 8256TIP3    H146259   1.948   2.386  11.954  0.0965 -1.2099 -0.2704
 8256TIP3    H246260   1.805   2.403  11.909 -0.0222 -0.7924  0.2618
 8257TIP3   OH246261   3.495   3.140  16.602 -0.8078  0.4716 -0.1066
 8257TIP3    H146262   3.409   3.180  16.615 -0.4346  1.2117  0.1451
 8257TIP3    H246263   3.503   3.078  16.675 -0.7962  0.9896  0.3384
 8258TIP3   OH246264   1.811   0.441   0.311 -0.2545 -0.3910 -0.1297
 8258TIP3    H146265   1.825   0.448   0.405  0.8594 -1.7934 -0.1702
 8258TIP3    H246266   1.776   0.526   0.285  2.3512  1.1267  1.0728
 8259TIP3   OH246267   0.822   2.902   0.311 -0.5204 -0.7231  0.0947
 8259TIP3    H146268   0.748   2.859   0.268  0.1633 -1.1969 -0.6210
 8259TIP3    H246269   0.856   2.963   0.246  0.0270 -0.8621  0.2451
 8260TIP3   OH246270   2.083   5.188   3.602  0.9798  0.4339 -0.2049
 8260TIP3    H146271   2.027   5.111   3.596 -0.0710  1.2175 -0.7098
 8260TIP3    H246272   2.172   5.153   3.607  0.6740 -0.7771 -2.5762
 8261TIP3   OH246273   2.595   6.323  16.902 -0.8003  0.1100  0.4834
 8261TIP3    H146274   2.595   6.382  16.978 -1.0887 -0.2187  0.7426
 8261TIP3    H246275   2.503   6.297  16.893 -0.5606 -0.8838  0.8341
 8262TIP3   OH246276   1.398   0.746   3.617 -0.4507  0.3364 -0.9365
 8262TIP3    H146277   1.462   0.695   3.668 -0.6442  1.0952  0.0919
 8262TIP3    H246278   1.446   0.825   3.591 -1.2984  1.5284  0.9427
 8263TIP3   OH246279   2.089   1.781   3.141  0.2274  0.0529 -0.8086
 8263TIP3    H146280   2.058   1.714   3.080  0.5428  0.0757 -0.9969
 8263TIP3    H246281   2.180   1.795   3.117  0.3470  0.0826 -0.3495
 8264TIP3   OH246282   6.664   4.414   4.470  0.1000 -0.0892  0.4096
 8264TIP3    H146283   6.641   4.442   4.559 -0.0532  0.4764  0.1975
 8264TIP3    H246284   6.595   4.451   4.415  0.3137 -0.2528  0.0279
 8265TIP3   OH246285   5.529   3.406   0.405 -0.3138 -0.7340 -0.1214
 8265TIP3    H146286   5.485   3.489   0.390  1.2677  0.0399 -0.5352
 8265TIP3    H246287   5.480   3.343   0.351 -0.7213  0.1617 -0.7968
 8266TIP3   OH246288   2.779   4.308  15.880  0.1922 -0.8330 -1.1326
 8266TIP3    H146289   2.740   4.262  15.955  1.9472 -0.9729 -0.2782
 8266TIP3    H246290   2.707   4.316  15.817 -1.4109 -0.3611  0.7142
 8267TIP3   OH246291   2.824   6.732   5.310  0.1235  0.1446 -0.1239
 8267TIP3    H146292   2.784   6.788   5.243  0.0526  0.4073  0.1377
 8267TIP3    H246293   2.803   6.775   5.393  1.7939  0.8248 -0.0345
 8268TIP3   OH246294   6.045   4.556  14.182 -0.4018 -0.1941 -0.4590
 8268TIP3    H146295   5.975   4.513  14.232  1.2409 -0.4586  1.6448
 8268TIP3    H246296   6.056   4.640  14.225  0.4643 -0.0823 -0.9063
 8269TIP3   OH246297   2.406   0.853   5.904  0.0876 -0.0890 -0.2505
 8269TIP3    H146298   2.322   0.835   5.861  1.3404 -2.8744 -1.6961
 8269TIP3    H246299   2.399   0.811   5.989 -0.4754  0.8588  0.1722
 8270TIP3   OH246300   5.497   5.256   0.083  0.6621  0.0306 -0.4682
 8270TIP3    H146301   5.545   5.332   0.052 -0.5130  1.1450  0.3726
 8270TIP3    H246302   5.533   5.239   0.170  0.9845 -0.4413 -0.6898
 8271TIP3   OH246303   0.442   5.117   4.388 -0.4512 -0.7358  0.3065
 8271TIP3    H146304   0.351   5.090   4.399 -0.1814 -2.7162 -1.9151
 8271TIP3    H246305   0.484   5.044   4.343  1.6720  1.0975 -0.8100
 8272TIP3   OH246306   1.866   0.623  10.862 -0.6385 -0.0842  0.1045
 8272TIP3    H146307   1.932   0.638  10.794 -0.1163  1.1323  0.8568
 8272TIP3    H246308   1.831   0.536  10.843 -0.4933  0.2327 -1.7094
 8273TIP3   OH246309   5.155   5.318   1.264 -0.2884  0.1530  0.6215
 8273TIP3    H146310   5.081   5.278   1.218  0.2797  0.0307 -0.1713
 8273TIP3    H246311   5.157   5.272   1.348  0.1022 -1.2010 -0.1137
 8274TIP3   OH246312   4.447   4.050   1.287 -0.0883 -0.2716 -0.3153
 8274TIP3    H146313   4.512   4.043   1.217 -0.0520 -1.0294 -0.2044
 8274TIP3    H246314   4.491   4.100   1.356  1.0157 -2.3600  0.5143
 8275TIP3   OH246315   1.395   0.755   2.905  0.3215 -0.3593  0.0370
 8275TIP3    H146316   1.411   0.661   2.906 -0.5171 -0.5323  2.5053
 8275TIP3    H246317   1.311   0.765   2.951  0.3104  1.5809 -0.3610
 8276TIP3   OH246318   2.206   3.835  17.169 -0.5918 -0.1598 -0.2154
 8276TIP3    H146319   2.198   3.910  17.110  1.5778  0.9803  0.8739
 8276TIP3    H246320   2.150   3.857  17.243 -0.6294  0.0037 -0.2897
 8277TIP3   OH246321   2.221   0.874   2.707 -0.6623 -0.3674 -0.0707
 8277TIP3    H146322   2.167   0.805   2.668 -1.6860 -0.6728  1.8417
 8277TIP3    H246323   2.182   0.889   2.793 -1.6641  3.9704 -1.1786
 8278TIP3   OH246324   6.255   3.067  12.338 -0.1021  0.3679  0.0151
 8278TIP3    H146325   6.283   3.129  12.405 -1.8160  0.2424  0.8534
 8278TIP3    H246326   6.191   3.114  12.285  0.7206  0.2380 -1.1288
 8279TIP3   OH246327   1.110   5.755  15.421  0.6881  0.0599 -0.1312
 8279TIP3    H146328   1.125   5.662  15.403 -0.5599  0.3482 -3.0066
 8279TIP3    H246329   1.159   5.801  15.352 -1.0362  1.4092 -0.5057
 8280TIP3   OH246330   6.302   6.520   1.066 -0.2614 -0.1590 -0.3439
 8280TIP3    H146331   6.397   6.516   1.060 -0.2677 -2.7933  0.2957
 8280TIP3    H246332   6.272   6.438   1.026 -2.0645 -0.9120  2.4036
 8281TIP3   OH246333   4.780   3.738   3.679 -0.6132 -0.7312  0.7298
 8281TIP3    H146334   4.768   3.814   3.735  2.4179  1.4820 -1.4722
 8281TIP3    H246335   4.724   3.753   3.604  0.6750 -0.1784 -0.1402
 8282TIP3   OH246336   1.587   0.555  12.558  0.1369  0.4958  0.0285
 8282TIP3    H146337   1.546   0.607  12.627 -0.0963  0.5392 -0.1426
 8282TIP3    H246338   1.559   0.465  12.576  0.4341  0.4478  0.2493
 8283TIP3   OH246339   1.074   5.829  13.616 -0.0776  0.1122 -0.5352
 8283TIP3    H146340   1.044   5.886  13.546 -2.3667  1.4305  1.4185
 8283TIP3    H246341   0.994   5.787  13.649  0.8222  0.0903  1.7366
 8284TIP3   OH246342   0.503   6.324   0.939  0.9013 -0.0372 -0.3290
 8284TIP3    H146343   0.453   6.324   1.021  0.6423 -2.0006 -0.4575
 8284TIP3    H246344   0.566   6.253   0.949  2.4791  1.2763 -0.8885
 8285TIP3   OH246345   2.134   6.127  10.362 -0.0277  0.0600 -0.1542
 8285TIP3    H146346   2.083   6.130  10.281 -1.9995  1.5697  1.1040
 8285TIP3    H246347   2.219   6.090  10.335 -0.4105  1.0962 -3.0157
 8286TIP3   OH246348   6.465   1.192   3.861  0.0227 -0.3062  0.2498
 8286TIP3    H146349   6.510   1.216   3.942  1.4262  0.8921 -0.8475
 8286TIP3    H246350   6.383   1.152   3.890  0.1792  0.7408  2.2540
 8287TIP3   OH246351   5.453   5.947  16.918 -0.2629 -0.1698 -0.7343
 8287TIP3    H146352   5.476   5.912  17.004  0.3485  0.4336 -0.6502
 8287TIP3    H246353   5.471   5.876  16.857  0.5766 -0.1411 -0.5148
 8288TIP3   OH246354   2.366   4.592  16.427  0.4391 -0.0596  0.3385
 8288TIP3    H146355   2.382   4.583  16.520 -2.3684  2.1402  1.1295
 8288TIP3    H246356   2.316   4.514  16.403  1.2496 -0.6728  0.6655
 8289TIP3   OH246357   4.598   4.552  16.764 -0.4686  0.3348 -1.1239
 8289TIP3    H146358   4.511   4.513  16.771 -0.1977 -0.2147 -0.7205
 8289TIP3    H246359   4.608   4.603  16.845  0.3301 -1.1654 -0.2573
 8290TIP3   OH246360   6.642   3.009   6.230 -0.2498  0.2879  0.2844
 8290TIP3    H146361   6.725   2.991   6.185 -0.3183  2.7275 -0.9463
 8290TIP3    H246362   6.576   2.967   6.176  0.1011 -1.0056  0.8451
 8291TIP3   OH246363   4.338   3.594   1.516  0.0046  0.1244  0.0737
 8291TIP3    H146364   4.311   3.683   1.496  0.5553  0.3809  0.4613
 8291TIP3    H246365   4.430   3.590   1.491  0.2894  0.0076  1.1222
 8292TIP3   OH246366   1.271   0.494   5.380 -0.0056  0.2915  0.0472
 8292TIP3    H146367   1.358   0.456   5.375  0.9240  2.2331  0.9144
 8292TIP3    H246368   1.217   0.437   5.325  1.6699 -1.2434 -0.0827
 8293TIP3   OH246369   4.939   3.090  11.610 -0.0370  0.0182 -0.0806
 8293TIP3    H146370   4.883   3.018  11.583  0.7009 -0.3778 -0.5874
 8293TIP3    H246371   4.999   3.102  11.536  0.1105  0.8759  0.1737
 8294TIP3   OH246372   3.152   5.118   3.754 -0.0248 -0.2351  0.1265
 8294TIP3    H146373   3.109   5.067   3.686 -1.8364  0.5174  0.6867
 8294TIP3    H246374   3.166   5.204   3.715  1.3692 -0.5986 -0.1944
 8295TIP3   OH246375   6.063   1.837  16.469 -0.2704 -0.0328  0.3827
 8295TIP3    H146376   6.062   1.899  16.542 -2.2913  0.9330 -0.3980
 8295TIP3    H246377   6.066   1.751  16.510  1.7310  0.5396  1.5126
 8296TIP3   OH246378   1.718   6.684  12.575  0.3309 -0.2822 -0.2012
 8296TIP3    H146379   1.795   6.627  12.578 -0.5299 -1.4815 -0.6873
 8296TIP3    H246380   1.740   6.751  12.510  1.4144  0.0584  0.5027
 8297TIP3   OH246381   3.537   1.430  15.628  0.3913  0.0446 -0.3553
 8297TIP3    H146382   3.618   1.474  15.652  0.6570 -0.0535 -1.0745
 8297TIP3    H246383   3.499   1.403  15.712  1.5329 -0.6782 -0.0597
 8298TIP3   OH246384   6.683   4.547   0.422  0.2945 -0.5765 -0.8317
 8298TIP3    H146385   6.757   4.495   0.452 -0.0625 -0.9540 -0.6044
 8298TIP3    H246386   6.654   4.595   0.500  1.4929  1.0352 -1.3447
 8299TIP3   OH246387   2.699   3.201  17.085  0.2455  0.6168  0.2266
 8299TIP3    H146388   2.615   3.248  17.084  0.3287  0.7433 -0.7644
 8299TIP3    H246389   2.679   3.116  17.045  0.8267  1.0649 -1.0424
 8300TIP3   OH246390   4.697   5.727  10.613 -0.4735  0.1376 -0.0861
 8300TIP3    H146391   4.792   5.743  10.607 -0.5181  0.5011  0.1747
 8300TIP3    H246392   4.686   5.637  10.582 -0.1669  0.4788 -1.2068
 8301TIP3   OH246393   3.405   5.811  11.736 -0.2180 -0.0925 -0.7252
 8301TIP3    H146394   3.407   5.889  11.792  0.9526 -0.2888 -0.4841
 8301TIP3    H246395   3.362   5.745  11.789  1.1427 -0.3592  0.0666
 8302TIP3   OH246396   1.353   4.601   2.404  0.5489  0.1245 -0.2843
 8302TIP3    H146397   1.314   4.688   2.412 -0.9815 -0.2629 -3.0562
 8302TIP3    H246398   1.290   4.544   2.449  2.1066  0.5269  2.5320
 8303TIP3   OH246399   6.514   5.870  15.087  0.2094 -0.4188 -0.5095
 8303TIP3    H146400   6.477   5.868  14.999  1.0623  1.2470 -0.9309
 8303TIP3    H246401   6.442   5.902  15.142  0.2348  0.3550 -0.9143
 8304TIP3   OH246402   1.622   5.485  13.459  0.5758  0.2438 -0.1058
 8304TIP3    H146403   1.601   5.500  13.551  0.6269  1.6911 -0.3206
 8304TIP3    H246404   1.581   5.401  13.439  0.1611  0.1415  1.1085
 8305TIP3   OH246405   2.365   3.809  15.691 -0.3042  0.1141  0.3400
 8305TIP3    H146406   2.306   3.739  15.721 -1.6221  0.8686 -0.4421
 8305TIP3    H246407   2.352   3.811  15.596 -0.0997  1.2735  0.3384
 8306TIP3   OH246408   5.658   2.379   1.127 -0.0586  0.1722  0.5471
 8306TIP3    H146409   5.711   2.305   1.099  0.4764  1.0004 -0.6468
 8306TIP3    H246410   5.663   2.377   1.223  2.0189  0.1492  0.4531
 8307TIP3   OH246411   3.890   4.672  16.298  0.0888  0.3183 -0.1390
 8307TIP3    H146412   3.979   4.643  16.277  0.6924  0.6925  1.8559
 8307TIP3    H246413   3.901   4.738  16.366 -1.7334  0.2380  0.2587
 8308TIP3   OH246414   4.137   1.457  15.835 -0.0226 -0.0306 -0.0778
 8308TIP3    H146415   4.148   1.444  15.741  0.0673 -0.9579  0.0504
 8308TIP3    H246416   4.222   1.491  15.864 -0.6929  2.1606 -0.6437
 8309TIP3   OH246417   5.142   3.906  11.294 -0.2165 -0.4550  0.0766
 8309TIP3    H146418   5.218   3.900  11.352 -1.2262 -1.3952  1.3194
 8309TIP3    H246419   5.143   3.823  11.245 -0.5631 -0.5691  0.2594
 8310TIP3   OH246420   2.275   5.520  13.309  0.0084  0.2538  0.2718
 8310TIP3    H146421   2.358   5.486  13.276  0.6661  2.3033 -0.2794
 8310TIP3    H246422   2.209   5.485  13.250  0.8838  1.5053 -1.4965
 8311TIP3   OH246423   3.696   2.493  15.107  0.5085 -0.0663  0.3906
 8311TIP3    H146424   3.610   2.473  15.071  0.1582 -0.1601  1.2687
 8311TIP3    H246425   3.726   2.410  15.145 -0.1413  0.5722  2.3776
 8312TIP3   OH246426   4.222   1.552  11.097 -0.3602  0.2929  0.2304
 8312TIP3    H146427   4.227   1.618  11.028  0.1700  0.0777  0.0645
 8312TIP3    H246428   4.256   1.596  11.175  1.8711 -0.3950 -0.3287
 8313TIP3   OH246429   2.564   0.880  13.683 -0.6507  0.0445 -0.2667
 8313TIP3    H146430   2.525   0.852  13.766 -2.1977  0.6456 -0.7829
 8313TIP3    H246431   2.527   0.822  13.617 -0.4143  0.4098 -0.7260
 8314TIP3   OH246432   1.512   3.149  17.158 -0.5427  0.0527  0.3274
 8314TIP3    H146433   1.498   3.187  17.245  1.3955  0.6006  0.4273
 8314TIP3    H246434   1.473   3.062  17.164 -1.4330  0.5065  1.3821
 8315TIP3   OH246435   5.330   3.101  16.313 -0.3068  0.1695  1.0653
 8315TIP3    H146436   5.336   3.009  16.339 -3.3719 -0.0003  1.3455
 8315TIP3    H246437   5.333   3.149  16.395  1.8007  0.4001  0.8905
 8316TIP3   OH246438   1.233   1.837  11.749 -0.2183  0.2266  0.0385
 8316TIP3    H146439   1.138   1.853  11.754 -0.5974 -1.3170 -1.6208
 8316TIP3    H246440   1.272   1.923  11.739 -1.6628  0.6676 -2.0409
 8317TIP3   OH246441   5.823   4.482   0.676 -0.1526 -0.5731 -0.3933
 8317TIP3    H146442   5.848   4.558   0.624  0.2191 -2.4891 -3.1646
 8317TIP3    H246443   5.758   4.515   0.737 -0.2266  1.9170 -1.7549
 8318TIP3   OH246444   1.938   4.300   4.478 -0.4901  0.2456 -0.1340
 8318TIP3    H146445   2.000   4.228   4.484  0.0431  0.7232  0.0814
 8318TIP3    H246446   1.968   4.353   4.404  0.5251  1.5614  1.1837
 8319TIP3   OH246447   3.674   3.722  15.564 -0.5406  0.1961  0.5593
 8319TIP3    H146448   3.712   3.648  15.516 -0.3251  0.6959 -0.0511
 8319TIP3    H246449   3.683   3.698  15.656  1.3623  0.3614  0.4340
 8320TIP3   OH246450   4.688   3.293  13.545 -0.4683  0.2268 -0.1735
 8320TIP3    H146451   4.740   3.336  13.613 -1.2136 -1.9071  1.7816
 8320TIP3    H246452   4.633   3.231  13.592 -2.9494  0.6004 -2.4654
 8321TIP3   OH246453   1.091   2.837   1.880  0.5059 -0.0296 -0.3882
 8321TIP3    H146454   1.095   2.930   1.904  0.4519 -0.0569 -0.2716
 8321TIP3    H246455   1.053   2.795   1.957 -0.8698  0.0570 -0.9914
 8322TIP3   OH246456   0.670   3.523   1.655  0.6564  0.2748  0.0949
 8322TIP3    H146457   0.746   3.518   1.597 -0.1969  3.1699 -1.3636
 8322TIP3    H246458   0.661   3.616   1.675 -1.6217 -0.1995  1.4803
 8323TIP3   OH246459   4.480   0.272  16.952 -0.3246 -0.1821 -0.5322
 8323TIP3    H146460   4.444   0.226  16.876  0.7339 -1.2751 -0.3792
 8323TIP3    H246461   4.512   0.203  17.009  0.7048  0.7163 -0.0007
 8324TIP3   OH246462   1.545   3.806  10.417 -0.6233  0.2078  0.1976
 8324TIP3    H146463   1.452   3.795  10.397 -0.3260 -1.5796 -0.3157
 8324TIP3    H246464   1.559   3.754  10.496  0.2308 -0.7974 -0.5889
 8325TIP3   OH246465   5.548   5.336  16.301  0.2819 -0.2669  0.6559
 8325TIP3    H146466   5.501   5.275  16.358 -0.5730  0.1371  0.3822
 8325TIP3    H246467   5.580   5.282  16.229  1.3072 -0.7692  1.4702
 8326TIP3   OH246468   5.167   3.931   6.340 -0.2659  0.2766  0.1779
 8326TIP3    H146469   5.119   4.010   6.368 -0.8978  0.0244 -0.1757
 8326TIP3    H246470   5.126   3.860   6.390  1.7012  0.4419  2.0788
 8327TIP3   OH246471   5.585   0.919  12.404  0.2779  0.1538  0.3475
 8327TIP3    H146472   5.681   0.916  12.407  0.2112 -0.4474  2.6130
 8327TIP3    H246473   5.562   1.002  12.446 -0.2058  0.4324 -0.4447
 8328TIP3   OH246474   3.236   2.670   1.852 -0.1711  0.5607 -0.3422
 8328TIP3    H146475   3.157   2.699   1.806  0.4443  0.3042 -1.5686
 8328TIP3    H246476   3.245   2.733   1.924  0.1017  2.3446 -1.8896
 8329TIP3   OH246477   4.504   5.426  17.171  0.1404 -0.4609  0.1136
 8329TIP3    H146478   4.573   5.484  17.137  0.9178 -1.6796 -0.4321
 8329TIP3    H246479   4.531   5.339  17.143 -0.8412 -1.1302  1.2318
 8330TIP3   OH246480   4.445   3.388  11.323 -0.1447 -0.6601 -0.3906
 8330TIP3    H146481   4.481   3.428  11.403 -0.1071 -1.9676  0.2627
 8330TIP3    H246482   4.516   3.334  11.290  0.5789  1.4873 -2.5027
 8331TIP3   OH246483   3.385   4.715   5.336  0.4884  0.0351 -0.0876
 8331TIP3    H146484   3.366   4.733   5.427  0.0093 -1.6786  0.1853
 8331TIP3    H246485   3.350   4.627   5.321  0.8759  0.1393 -1.8180
 8332TIP3   OH246486   3.382   6.499   3.081 -0.0126 -0.6597 -0.1974
 8332TIP3    H146487   3.377   6.595   3.080 -1.0310 -0.7013 -0.1421
 8332TIP3    H246488   3.294   6.471   3.054 -0.8234 -1.5571  3.1514
 8333TIP3   OH246489   5.703   4.062  13.097  0.5713  0.2253  0.0327
 8333TIP3    H146490   5.678   3.976  13.130 -1.2739  0.3077 -1.0558
 8333TIP3    H246491   5.759   4.099  13.165 -1.2042 -0.5497  1.9797
 8334TIP3   OH246492   6.317   5.655   0.866 -0.1607  0.0112 -0.0291
 8334TIP3    H146493   6.326   5.696   0.780  1.2953 -2.3200 -1.0567
 8334TIP3    H246494   6.262   5.579   0.850 -1.0592  0.3532  1.4016
 8335TIP3   OH246495   5.578   5.469   2.461 -0.1771  0.5031 -0.0292
 8335TIP3    H146496   5.626   5.442   2.540  0.4978 -0.9751 -0.9121
 8335TIP3    H246497   5.488   5.483   2.491  0.0288 -0.2482  0.9774
 8336TIP3   OH246498   6.547   6.750  14.640 -0.1017 -0.0194 -0.5479
 8336TIP3    H146499   6.469   6.693  14.638 -0.9749  1.1272  0.4790
 8336TIP3    H246500   6.539   6.803  14.561  1.2792 -2.0138 -2.0944
 8337TIP3   OH246501   1.896   4.578  11.376 -0.1099 -0.2803 -0.1736
 8337TIP3    H146502   1.894   4.639  11.303  0.6788 -0.4345 -0.3300
 8337TIP3    H246503   1.883   4.632  11.454  1.2864  0.1812 -0.2565
 8338TIP3   OH246504   4.172   0.673  12.319 -0.3898  0.0123 -0.6231
 8338TIP3    H146505   4.253   0.724  12.323  0.5825 -1.4639 -1.2152
 8338TIP3    H246506   4.169   0.639  12.230 -2.9664  2.0874 -1.4075
 8339TIP3   OH246507   1.705   3.251   3.657 -0.2709 -0.0811  0.4785
 8339TIP3    H146508   1.728   3.178   3.715  0.5067 -0.0677  0.1838
 8339TIP3    H246509   1.615   3.274   3.683 -0.2961 -0.7352  0.9898
 8340TIP3   OH246510   4.609   5.335   0.896  0.3030 -0.7256 -0.3161
 8340TIP3    H146511   4.604   5.332   0.991 -2.0128  1.3811 -0.3506
 8340TIP3    H246512   4.536   5.281   0.866 -0.0924  0.1242 -0.8928
 8341TIP3   OH246513   5.325   1.390  13.270 -0.2415 -0.2914 -0.0874
 8341TIP3    H146514   5.238   1.352  13.279 -0.6433  1.1608  2.6114
 8341TIP3    H246515   5.341   1.435  13.353  3.3072 -0.9749 -0.3119
 8342TIP3   OH246516   1.997   4.603   0.975 -0.8144 -0.5608  0.4996
 8342TIP3    H146517   2.041   4.551   0.908  0.4681  0.3884  0.5863
 8342TIP3    H246518   2.049   4.683   0.981 -2.8687  0.8259  0.2440
 8343TIP3   OH246519   3.609   0.413  12.239  0.0854 -0.2535 -0.1844
 8343TIP3    H146520   3.613   0.495  12.288  0.7544 -0.2243 -0.2879
 8343TIP3    H246521   3.582   0.348  12.303 -1.2961  0.1877 -0.2802
 8344TIP3   OH246522   2.044   0.948   6.333  0.1242 -0.6046 -0.1938
 8344TIP3    H146523   2.052   1.037   6.368 -1.1376 -0.3589 -0.4946
 8344TIP3    H246524   1.954   0.922   6.354  0.6720 -2.0417  0.4281
 8345TIP3   OH246525   1.881   1.772   5.470  0.3067 -0.1928 -0.3305
 8345TIP3    H146526   1.805   1.783   5.528 -1.1081  0.1784 -2.2058
 8345TIP3    H246527   1.881   1.679   5.448  0.3427 -0.1724 -0.4163
 8346TIP3   OH246528   1.140   1.496  13.398  0.3062 -0.6866 -0.0647
 8346TIP3    H146529   1.171   1.585  13.383  1.1283 -0.9397  0.0963
 8346TIP3    H246530   1.154   1.452  13.314  0.0289 -0.6937 -0.1043
 8347TIP3   OH246531   6.673   6.598  15.752  0.7297  0.0053  0.3737
 8347TIP3    H146532   6.600   6.573  15.696 -0.2284 -0.3206  1.7395
 8347TIP3    H246533   6.632   6.625  15.835  1.9329  2.9038  0.1075
 8348TIP3   OH246534   3.443   1.791  15.008 -0.0418  0.0694  0.7648
 8348TIP3    H146535   3.504   1.718  15.019 -0.7813 -1.2933 -3.1799
 8348TIP3    H246536   3.363   1.762  15.052 -0.0993 -1.2269 -0.1606
 8349TIP3   OH246537   0.082   6.307  13.664 -0.3979 -0.3262  0.3243
 8349TIP3    H146538   0.023   6.286  13.736  0.4483 -0.5419  0.9653
 8349TIP3    H246539   0.108   6.222  13.628 -0.0727 -0.2480  0.3730
 8350TIP3   OH246540   5.275   2.036  15.450 -0.2336 -0.1735  0.1963
 8350TIP3    H146541   5.210   2.099  15.481  0.9180 -0.0380  2.4054
 8350TIP3    H246542   5.336   2.088  15.398 -1.1068 -0.0507 -0.7057
 8351TIP3   OH246543   6.462   6.147  12.553  0.5638 -0.1975 -0.0813
 8351TIP3    H146544   6.506   6.063  12.559 -0.4370 -0.6412  1.3927
 8351TIP3    H246545   6.375   6.127  12.518  0.2676  0.1989  0.4230
 8352TIP3   OH246546   6.251   4.936  13.556 -0.9540 -0.1807 -0.1004
 8352TIP3    H146547   6.250   4.952  13.650  3.1512  0.0987 -0.0191
 8352TIP3    H246548   6.201   5.009  13.519 -1.1706  0.6485  1.7467
 8353TIP3   OH246549   6.417   3.019   1.855 -0.2869 -0.5243  0.2719
 8353TIP3    H146550   6.371   2.997   1.937 -0.0332 -0.6060  0.3933
 8353TIP3    H246551   6.352   3.064   1.802 -0.1919  0.3421  0.8867
 8354TIP3   OH246552   5.843   2.134  11.319 -0.5188 -0.4934  0.2429
 8354TIP3    H146553   5.831   2.051  11.272  1.6889 -1.0869  0.6833
 8354TIP3    H246554   5.937   2.152  11.312 -0.7662  1.2871  1.2950
 8355TIP3   OH246555   4.095   1.081   4.106  0.1959  0.3825 -0.3080
 8355TIP3    H146556   4.144   1.160   4.128  0.6301  0.2155 -0.6830
 8355TIP3    H246557   4.159   1.022   4.067  0.0092 -0.4018  0.5438
 8356TIP3   OH246558   1.468   4.599   3.534  0.4244  0.4947 -0.1020
 8356TIP3    H146559   1.387   4.605   3.585  0.8609  3.9793  0.2755
 8356TIP3    H246560   1.439   4.588   3.444 -0.5047  1.6087  0.0461
 8357TIP3   OH246561   4.496   3.614   4.887 -0.0185 -0.0929 -0.2287
 8357TIP3    H146562   4.417   3.593   4.938 -0.2560 -0.3399 -0.6917
 8357TIP3    H246563   4.566   3.565   4.930 -0.1147  0.1180  0.1797
 8358TIP3   OH246564   4.265   3.158  12.576 -0.5165  0.0730  0.5230
 8358TIP3    H146565   4.333   3.195  12.519 -1.3381  0.0914 -0.4731
 8358TIP3    H246566   4.312   3.100  12.635  0.4896  0.8476  0.4976
 8359TIP3   OH246567   0.627   6.502  10.518  0.1838 -0.1428  0.2817
 8359TIP3    H146568   0.542   6.519  10.479  0.4920  1.3777  0.2599
 8359TIP3    H246569   0.681   6.578  10.494  1.4193 -0.8788  0.6482
 8360TIP3   OH246570   1.169   5.939   2.563 -0.6723 -0.5986 -0.6435
 8360TIP3    H146571   1.263   5.925   2.550 -0.7483 -3.7801  1.6705
 8360TIP3    H246572   1.164   5.997   2.639 -0.5338 -2.6444  0.9924
 8361TIP3   OH246573   0.910   4.825   6.465 -0.1265 -0.0565  0.0585
 8361TIP3    H146574   1.000   4.810   6.495 -0.1840  1.0712  0.8367
 8361TIP3    H246575   0.857   4.767   6.519 -0.0757  0.8471  1.0897
 8362TIP3   OH246576   1.256   1.395  12.468 -0.4764  0.1351  0.3999
 8362TIP3    H146577   1.228   1.305  12.483 -0.1378  0.1536  1.1944
 8362TIP3    H246578   1.176   1.447  12.479 -0.7678 -0.1086 -0.5372
 8363TIP3   OH246579   1.237   1.959  16.083  0.8962 -0.1189  0.9198
 8363TIP3    H146580   1.255   1.926  15.995  2.9406  0.2277  1.1980
 8363TIP3    H246581   1.209   1.882  16.132  3.1929 -1.0142  0.8861
 8364TIP3   OH246582   4.574   4.060   0.458 -0.4135  0.0797  0.6812
 8364TIP3    H146583   4.633   4.124   0.498  1.5234 -0.5798 -1.0466
 8364TIP3    H246584   4.492   4.108   0.446  0.8214  2.0873 -0.0668
 8365TIP3   OH246585   0.124   5.030  15.208 -0.5536  0.2369 -0.2511
 8365TIP3    H146586   0.180   4.971  15.259  1.0820  1.9368 -0.0410
 8365TIP3    H246587   0.134   5.001  15.118 -1.1334 -0.9021  0.0367
 8366TIP3   OH246588   5.009   2.977  17.274  0.0569  0.2173  0.1189
 8366TIP3    H146589   4.962   2.965  17.191  1.2804  0.7494 -0.6642
 8366TIP3    H246590   4.961   2.924  17.337  0.2913 -1.8081 -1.3701
 8367TIP3   OH246591   4.705   4.421  10.553  0.5620 -0.1355  0.4829
 8367TIP3    H146592   4.692   4.476  10.476  2.4445  0.0150  0.2386
 8367TIP3    H246593   4.629   4.363  10.554 -1.2682  2.1712  0.5307
 8368TIP3   OH246594   1.742   6.784   4.960  0.3117  0.0199  0.3792
 8368TIP3    H146595   1.812   6.720   4.972 -0.8176 -1.2049  0.6367
 8368TIP3    H246596   1.665   6.744   5.001 -0.4425  1.5184  0.4945
 8369TIP3   OH246597   4.051   2.903  11.493 -0.0696 -0.2769  0.2749
 8369TIP3    H146598   4.016   2.976  11.443  1.1908  0.6566  0.7191
 8369TIP3    H246599   4.068   2.835  11.428 -0.3400  0.1862 -0.2842
 8370TIP3   OH246600   2.837   2.310   3.447 -0.1980 -0.0985 -0.1083
 8370TIP3    H146601   2.914   2.366   3.439 -1.5868  1.8827 -0.2012
 8370TIP3    H246602   2.796   2.314   3.360  0.2114 -2.0737 -0.4011
 8371TIP3   OH246603   3.374   2.271  13.187  0.0191 -0.0882 -0.3461
 8371TIP3    H146604   3.328   2.195  13.151  0.1367 -0.4158  0.1832
 8371TIP3    H246605   3.324   2.346  13.156 -2.1678 -0.5149  2.0222
 8372TIP3   OH246606   2.285   5.994  16.107  0.8253  0.2991 -0.1052
 8372TIP3    H146607   2.224   5.962  16.174 -0.0338  1.5673 -0.2651
 8372TIP3    H246608   2.232   6.054  16.054  2.4305  2.0567  0.2491
 8373TIP3   OH246609   5.680   3.762   3.724  0.3485 -0.2122  0.2659
 8373TIP3    H146610   5.624   3.755   3.646 -0.2406 -0.3911  0.6991
 8373TIP3    H246611   5.628   3.814   3.785  1.5792  1.5550 -0.1500
 8374TIP3   OH246612   1.962   0.891  16.421 -0.3586  0.1120  0.0481
 8374TIP3    H146613   1.910   0.839  16.359  0.5104  0.1027 -0.6821
 8374TIP3    H246614   2.050   0.894  16.382 -0.4021  2.1885  0.0445
 8375TIP3   OH246615   5.843   2.590  12.542  0.2896  0.2381 -0.1336
 8375TIP3    H146616   5.804   2.560  12.625 -0.8253  2.7795  0.3042
 8375TIP3    H246617   5.817   2.524  12.478  0.1669 -1.1397  1.3008
 8376TIP3   OH246618   1.564   6.101   0.135  0.2594 -0.1363 -0.1917
 8376TIP3    H146619   1.593   6.131   0.049  2.5740  2.7360  1.5248
 8376TIP3    H246620   1.622   6.028   0.156  1.4284  0.8797  0.0928
 8377TIP3   OH246621   1.708   6.476   4.373  0.0357 -0.3665  0.0356
 8377TIP3    H146622   1.767   6.537   4.330 -0.9290 -0.6459 -1.7230
 8377TIP3    H246623   1.693   6.514   4.460  0.8348  0.9665 -0.4070
 8378TIP3   OH246624   5.678   6.365  13.770 -0.3021  0.3860 -0.2157
 8378TIP3    H146625   5.607   6.429  13.769 -1.0283 -0.4146 -0.3457
 8378TIP3    H246626   5.755   6.415  13.743 -0.6429  1.4510  0.7752
 8379TIP3   OH246627   0.921   3.148   2.538  0.1298 -0.3725 -0.2774
 8379TIP3    H146628   0.951   3.096   2.613 -1.4665 -2.0945 -0.8069
 8379TIP3    H246629   0.968   3.111   2.464 -1.3849 -1.4181 -0.7313
 8380TIP3   OH246630   1.070   1.554  16.669 -0.4618  0.0854 -0.4610
 8380TIP3    H146631   0.983   1.594  16.678 -1.2629 -2.1000  1.8545
 8380TIP3    H246632   1.062   1.468  16.711  2.6579 -0.4113 -0.7662
 8381TIP3   OH246633   4.250   4.391   6.170  0.0769  0.0536 -0.4973
 8381TIP3    H146634   4.224   4.301   6.188 -1.1270  0.8519  2.0526
 8381TIP3    H246635   4.210   4.411   6.085 -0.5900 -1.4461 -0.5552
 8382TIP3   OH246636   0.105   6.238   2.390  0.4510 -0.2010 -0.0613
 8382TIP3    H146637   0.117   6.314   2.447  2.5342  0.4408 -1.3071
 8382TIP3    H246638   0.076   6.168   2.448 -2.2574  1.7243  0.9991
 8383TIP3   OH246639   1.202   6.366  16.532 -0.2026  0.4744 -0.4292
 8383TIP3    H146640   1.149   6.371  16.612 -1.3506 -0.7195 -1.0886
 8383TIP3    H246641   1.254   6.286  16.542  0.5475  0.9676 -0.3495
 8384TIP3   OH246642   2.851   0.397  14.924 -0.5005 -0.0094  0.1038
 8384TIP3    H146643   2.908   0.332  14.966 -1.6405 -2.2939 -1.8038
 8384TIP3    H246644   2.910   0.449  14.869 -0.0745 -1.6656 -1.0205
 8385TIP3   OH246645   1.933   4.057   3.597  0.3026 -0.1286  0.4568
 8385TIP3    H146646   1.993   4.127   3.571  2.2412 -2.0443 -0.4004
 8385TIP3    H246647   1.913   4.011   3.516  1.9861 -2.7819  1.4551
 8386TIP3   OH246648   4.733   6.494   1.227 -0.1930  0.7136  0.2830
 8386TIP3    H146649   4.650   6.482   1.182 -0.2146 -1.1610  0.7854
 8386TIP3    H246650   4.715   6.470   1.318  0.9317  0.0810  0.3550
 8387TIP3   OH246651   1.879   5.635   2.682  0.2875 -0.0782 -0.2909
 8387TIP3    H146652   1.820   5.560   2.688 -2.3249  1.7483 -2.1744
 8387TIP3    H246653   1.898   5.643   2.589  1.0495  1.2317 -0.0243
 8388TIP3   OH246654   1.184   2.871  10.557 -0.2193 -0.1255  0.4786
 8388TIP3    H146655   1.149   2.861  10.646 -2.3942 -1.2633 -0.4765
 8388TIP3    H246656   1.149   2.954  10.527 -1.3646 -0.8229 -0.1372
 8389TIP3   OH246657   1.535   2.353  12.578  0.0964 -0.2270  0.4581
 8389TIP3    H146658   1.557   2.291  12.648 -1.9522 -0.5656  0.8316
 8389TIP3    H246659   1.501   2.430  12.623  0.4390  0.2697 -0.1138
 8390TIP3   OH246660   0.078   2.796  16.459  0.3624  0.2569 -0.0794
 8390TIP3    H146661   0.020   2.845  16.517 -1.3273  0.3418 -1.8020
 8390TIP3    H246662   0.163   2.798  16.502 -1.0762 -0.5521  2.9094
 8391TIP3   OH246663   1.365   5.353  15.390  0.3250 -0.9283 -0.2482
 8391TIP3    H146664   1.435   5.290  15.410  2.2713  0.8689 -1.2313
 8391TIP3    H246665   1.378   5.423  15.454 -1.0162 -0.8874 -0.0113
 8392TIP3   OH246666   4.789   2.453  16.323  0.0285  0.0793 -0.5061
 8392TIP3    H146667   4.798   2.548  16.309 -1.5206 -0.1264 -3.2584
 8392TIP3    H246668   4.715   2.445  16.383 -0.6938  0.5731 -1.3195
 8393TIP3   OH246669   1.783   1.143  16.414 -0.0025 -0.7645  0.3438
 8393TIP3    H146670   1.819   1.074  16.469  0.5530 -0.7653 -0.0163
 8393TIP3    H246671   1.750   1.097  16.336 -1.0203 -0.7933  0.7862
 8394TIP3   OH246672   0.109   1.923  13.101 -0.4207  0.0020  0.1049
 8394TIP3    H146673   0.122   1.851  13.163 -1.4775  0.7670  1.2598
 8394TIP3    H246674   0.017   1.947  13.113 -1.1328 -0.9866 -3.0480
 8395TIP3   OH246675   2.247   4.667   0.328  0.4377  0.2840  0.1962
 8395TIP3    H146676   2.322   4.706   0.283  0.7619  0.5759  0.9854
 8395TIP3    H246677   2.190   4.741   0.349  0.5199  0.2046  0.7004
 8396TIP3   OH246678   4.616   2.010   3.322  0.7060 -0.4520 -0.3263
 8396TIP3    H146679   4.621   2.037   3.230  0.2061  0.1807 -0.1702
 8396TIP3    H246680   4.707   2.000   3.349  0.8625 -0.3110 -0.7965
 8397TIP3   OH246681   1.626   2.260  11.870  0.5762 -0.0354 -0.3514
 8397TIP3    H146682   1.565   2.270  11.943  1.9229  1.0969  0.6527
 8397TIP3    H246683   1.570   2.249  11.793 -0.8866  1.0491  0.5368
 8398TIP3   OH246684   6.279   1.527  14.908  0.1559  0.3758 -0.0225
 8398TIP3    H146685   6.279   1.528  14.812 -0.4926  2.8068 -0.0145
 8398TIP3    H246686   6.205   1.471  14.932  0.6518 -0.6904 -0.9179
 8399TIP3   OH246687   0.023   1.385   6.611 -0.0384  0.1235  0.0623
 8399TIP3    H146688  -0.015   1.463   6.651  0.4166 -0.4712  1.6693
 8399TIP3    H246689  -0.052   1.335   6.580 -0.3760  0.7120 -0.0757
 8400TIP3   OH246690   5.960   2.423  16.628  0.0747  0.0901  0.4459
 8400TIP3    H146691   5.916   2.508  16.624  0.2644  0.2254  1.1733
 8400TIP3    H246692   5.919   2.372  16.558 -1.2538  0.2073  1.1120
 8401TIP3   OH246693   3.937   4.674  13.715  0.4352 -0.6238 -0.1517
 8401TIP3    H146694   3.985   4.754  13.737 -0.1340 -0.7636  1.6575
 8401TIP3    H246695   3.933   4.674  13.619  0.5044  1.4639 -0.1774
 8402TIP3   OH246696   3.316   0.831  15.097 -0.2437 -0.2691 -0.2792
 8402TIP3    H146697   3.397   0.783  15.083  0.6031  0.6975  1.0669
 8402TIP3    H246698   3.340   0.923  15.082 -1.2928 -0.0635 -0.7121
 8403TIP3   OH246699   6.669   1.347   5.605  0.0324  0.5837 -0.3281
 8403TIP3    H146700   6.736   1.379   5.544 -0.0731 -1.1056 -1.3548
 8403TIP3    H246701   6.700   1.261   5.632 -0.5139  0.8225  1.1134
 8404TIP3   OH246702   6.105   4.190   2.005 -0.2933  0.0642 -0.3711
 8404TIP3    H146703   6.124   4.222   2.093  2.1123  1.0872 -1.2361
 8404TIP3    H246704   6.190   4.187   1.961 -0.9903 -3.5213 -1.6736
 8405TIP3   OH246705   2.730   4.153  14.380 -0.0008 -0.6677  0.2178
 8405TIP3    H146706   2.687   4.147  14.295 -0.6978 -1.0965  0.5968
 8405TIP3    H246707   2.661   4.178  14.441  0.5432 -0.1282  0.6195
 8406TIP3   OH246708   5.552   1.064   2.936 -0.1693 -0.1248  0.3540
 8406TIP3    H146709   5.515   1.049   3.022 -2.5018  0.3379 -0.5435
 8406TIP3    H246710   5.588   0.979   2.909 -0.0418 -0.4233  1.4725
 8407TIP3   OH246711   4.457   0.759  16.275 -0.6369  0.2802 -0.5462
 8407TIP3    H146712   4.438   0.851  16.292  0.9243  0.3011  1.1963
 8407TIP3    H246713   4.379   0.727  16.228 -1.1518  2.4789 -1.2671
 8408TIP3   OH246714   6.511   3.966  14.841 -0.2706  0.3000  0.0656
 8408TIP3    H146715   6.472   4.044  14.880 -1.0807 -0.6718  1.2385
 8408TIP3    H246716   6.456   3.894  14.871  1.3346 -0.8943  0.2371
 8409TIP3   OH246717   3.205   5.242  11.549 -0.7302 -0.5031 -0.2367
 8409TIP3    H146718   3.160   5.159  11.531 -0.9979 -0.3022 -0.5013
 8409TIP3    H246719   3.176   5.300  11.479  0.3441 -0.5255 -0.7260
 8410TIP3   OH246720   4.570   1.954   3.017  0.3547  0.5073  0.2617
 8410TIP3    H146721   4.631   2.022   2.989 -0.3915  0.0264 -2.7277
 8410TIP3    H246722   4.533   1.920   2.936 -0.3013 -2.5454  1.7563
 8411TIP3   OH246723   5.195   5.836  16.462 -0.0729 -0.1615 -0.0418
 8411TIP3    H146724   5.114   5.876  16.429 -0.8363 -1.5301  0.1198
 8411TIP3    H246725   5.258   5.847  16.392 -1.1225 -1.2746 -1.1973
 8412TIP3   OH246726   1.821   5.908   2.246 -0.4619 -0.3923  0.5834
 8412TIP3    H146727   1.754   5.880   2.309 -1.3710 -0.6679 -0.4985
 8412TIP3    H246728   1.776   5.910   2.162  0.2230  1.9671  0.2503
 8413TIP3   OH246729   6.723   1.983   6.077 -0.0368 -0.4556  0.0889
 8413TIP3    H146730   6.760   1.980   5.989  0.5043  0.7845  0.2631
 8413TIP3    H246731   6.771   2.053   6.121 -2.4096  1.0951  0.3732
 8414TIP3   OH246732   2.645   4.688   0.512  0.6662 -0.6742  0.0758
 8414TIP3    H146733   2.553   4.661   0.524  0.3995  0.8045  1.5626
 8414TIP3    H246734   2.691   4.607   0.489 -0.4819 -2.0219  2.2974
 8415TIP3   OH246735   6.519   5.451   6.435 -0.5467  0.2047 -0.6549
 8415TIP3    H146736   6.557   5.412   6.513 -0.5925  0.9369 -0.2678
 8415TIP3    H246737   6.435   5.407   6.425  0.4646 -1.5685 -1.6305
 8416TIP3   OH246738   5.583   3.273   1.005 -0.9084  0.0571 -0.0504
 8416TIP3    H146739   5.518   3.297   0.939  0.5630 -2.0387 -2.3604
 8416TIP3    H246740   5.535   3.218   1.067 -1.6827 -0.2281 -0.8975
 8417TIP3   OH246741   0.293   3.691   4.435 -0.4815  0.0798 -0.3458
 8417TIP3    H146742   0.323   3.756   4.371 -0.2529  0.0041 -0.3180
 8417TIP3    H246743   0.348   3.614   4.419  0.4458  0.4952  0.7785
 8418TIP3   OH246744   0.647   5.257  15.348 -0.0531  0.8276 -0.0646
 8418TIP3    H146745   0.557   5.269  15.376 -0.0012 -0.6084  0.7450
 8418TIP3    H246746   0.642   5.197  15.274  0.2835  0.3045  0.3344
 8419TIP3   OH246747   2.602   1.805  12.006  0.0436  0.3446 -0.1545
 8419TIP3    H146748   2.509   1.797  11.982 -0.4648  0.9300  1.5354
 8419TIP3    H246749   2.627   1.717  12.035 -1.1630  1.0964  3.3500
 8420TIP3   OH246750   6.468   0.048  13.207  0.1624  0.5774  0.4175
 8420TIP3    H146751   6.433   0.025  13.120 -0.4390  0.6676  0.6363
 8420TIP3    H246752   6.451  -0.029  13.260  0.9376  0.3523  0.3389
 8421TIP3   OH246753   1.218   0.203  10.566 -0.1955 -0.0532 -0.0967
 8421TIP3    H146754   1.280   0.229  10.497  2.2538  0.4518  2.1829
 8421TIP3    H246755   1.152   0.272  10.566  0.6914  0.8216 -0.8624
 8422TIP3   OH246756   6.663   3.125  16.115 -0.1180 -0.6579  0.1038
 8422TIP3    H146757   6.716   3.142  16.193  0.0026 -0.2940 -0.0550
 8422TIP3    H246758   6.722   3.145  16.042 -0.6082  0.1853 -0.0711
 8423TIP3   OH246759   2.774   1.596  13.183 -0.1125 -0.2936  0.6496
 8423TIP3    H146760   2.812   1.529  13.240 -0.5366 -0.2399  0.9953
 8423TIP3    H246761   2.847   1.623  13.127  0.3733 -0.1612  1.3399
 8424TIP3   OH246762   6.074   4.648  12.706  0.2417  0.5670  0.2845
 8424TIP3    H146763   6.011   4.577  12.691  1.6279 -0.7689  0.7179
 8424TIP3    H246764   6.019   4.725  12.722 -1.2956  0.0967 -2.3658
 8425TIP3   OH246765   1.352   6.127   5.871  0.2985  0.5071  0.4735
 8425TIP3    H146766   1.385   6.128   5.961 -0.0028 -1.0786  0.6222
 8425TIP3    H246767   1.298   6.205   5.864  0.3334  0.6488  1.6695
 8426TIP3   OH246768   5.838   2.980   2.429 -0.0264 -0.5229  0.1257
 8426TIP3    H146769   5.867   2.975   2.520  1.9275 -2.1070 -0.5405
 8426TIP3    H246770   5.826   2.889   2.402 -1.5769 -0.0355 -0.9012
 8427TIP3   OH246771   6.533   5.741  13.672  0.6103  0.3022  0.0706
 8427TIP3    H146772   6.562   5.813  13.616 -0.5435  1.0242  0.3740
 8427TIP3    H246773   6.442   5.726  13.647  1.3652 -2.3043 -1.2611
 8428TIP3   OH246774   2.954   1.714   3.191  0.2712 -0.1594  0.3600
 8428TIP3    H146775   3.038   1.755   3.214 -0.3424  1.6310 -0.5252
 8428TIP3    H246776   2.966   1.684   3.101 -0.8017  2.2015 -0.5928
 8429TIP3   OH246777   0.147   6.092   1.646  0.0972  0.1040 -0.3764
 8429TIP3    H146778   0.207   6.115   1.718  1.2682 -0.4360 -1.1613
 8429TIP3    H246779   0.100   6.173   1.628  1.3597  0.8299 -0.4626
 8430TIP3   OH246780   1.909   3.628  14.548 -0.1226  0.2020 -0.4927
 8430TIP3    H146781   1.989   3.581  14.525 -0.2452  0.1975 -0.9112
 8430TIP3    H246782   1.863   3.570  14.607 -0.2564 -0.1892 -0.9776
 8431TIP3   OH246783   3.087   6.783   2.840  0.5207 -0.3668  0.2207
 8431TIP3    H146784   3.098   6.858   2.898 -0.7498 -0.3019  0.3917
 8431TIP3    H246785   3.159   6.790   2.778 -0.8419  2.2715 -1.1373
 8432TIP3   OH246786   1.138   3.177   3.059 -0.0655 -0.3512  0.2672
 8432TIP3    H146787   1.202   3.106   3.070  0.6403  0.1052 -0.8977
 8432TIP3    H246788   1.180   3.238   2.999 -0.2428  1.5950  2.0600
 8433TIP3   OH246789   4.130   4.727   4.590  0.6697  0.2957 -0.2128
 8433TIP3    H146790   4.154   4.646   4.634 -0.3058 -0.8627 -1.7597
 8433TIP3    H246791   4.204   4.786   4.605  1.9554 -1.2998 -0.1527
 8434TIP3   OH246792   2.257   1.194   2.179  0.1471 -0.1164 -0.1324
 8434TIP3    H146793   2.165   1.182   2.158  0.4290 -1.6919 -0.4840
 8434TIP3    H246794   2.281   1.116   2.229  0.7505  1.2615  1.7895
 8435TIP3   OH246795   2.971   2.390   1.256 -0.2694 -0.0746  0.6907
 8435TIP3    H146796   3.057   2.432   1.249 -0.3812  0.3476  1.7202
 8435TIP3    H246797   2.987   2.309   1.303 -0.4718  0.1642  1.1840
 8436TIP3   OH246798   6.351   0.291  16.326  0.3734  0.3232 -0.9209
 8436TIP3    H146799   6.384   0.289  16.416 -1.8923  0.0130 -0.0674
 8436TIP3    H246800   6.344   0.199  16.300 -0.7283  0.3568 -0.7473
 8437TIP3   OH246801   3.379   6.241  16.394  0.8556 -0.5035 -0.5745
 8437TIP3    H146802   3.436   6.177  16.436  0.6849  1.7761  3.3177
 8437TIP3    H246803   3.319   6.270  16.463 -0.2272  2.5360 -2.6628
 8438TIP3   OH246804   2.038   3.408   2.113  0.0792 -0.2959  0.1104
 8438TIP3    H146805   2.075   3.410   2.025  0.9299  1.2835  0.4787
 8438TIP3    H246806   2.065   3.323   2.148  2.7815  0.4924  0.0836
 8439TIP3   OH246807   1.353   0.875  15.728  0.0902  0.4472  0.0325
 8439TIP3    H146808   1.288   0.811  15.757  0.6074 -0.7125 -1.2586
 8439TIP3    H246809   1.338   0.882  15.633  1.2206  0.8669 -0.1208
 8440TIP3   OH246810   1.022   2.755  17.142  0.1655 -0.1717  0.2903
 8440TIP3    H146811   0.949   2.796  17.096  1.1376  0.5727 -0.6300
 8440TIP3    H246812   1.064   2.699  17.076  1.8666  1.2912  0.0925
 8441TIP3   OH246813   1.193   3.922  16.880 -0.4464  0.3695 -0.0439
 8441TIP3    H146814   1.187   3.832  16.848  1.4199  0.0365  0.4874
 8441TIP3    H246815   1.168   3.976  16.805  0.0866 -0.5331 -0.8766
 8442TIP3   OH246816   4.413   4.470   6.602  0.3928  0.0526  0.0808
 8442TIP3    H146817   4.323   4.483   6.573  0.8408  2.0006 -0.4878
 8442TIP3    H246818   4.415   4.379   6.631 -2.0288  0.2553  1.0902
 8443TIP3   OH246819   0.535   6.215   3.821 -0.0487  0.0627 -0.1251
 8443TIP3    H146820   0.457   6.219   3.875 -0.3218 -0.1858 -0.4990
 8443TIP3    H246821   0.547   6.122   3.802 -0.1157  0.1736 -0.7227
 8444TIP3   OH246822   1.988   0.273  11.244 -0.1731  0.0537  0.1327
 8444TIP3    H146823   1.955   0.293  11.332 -1.0504 -0.1161 -0.1541
 8444TIP3    H246824   2.065   0.328  11.234  0.3126 -0.3904  1.2629
 8445TIP3   OH246825   6.122   6.460  14.416 -0.4753 -0.0843 -0.0620
 8445TIP3    H146826   6.081   6.433  14.498 -1.7364 -1.7851 -1.2088
 8445TIP3    H246827   6.090   6.549  14.402  0.6483  0.6501  1.8298
 8446TIP3   OH246828   1.913   4.232  15.250  0.1695 -0.0856 -0.1155
 8446TIP3    H146829   1.839   4.282  15.286  1.2909  1.1749  0.5147
 8446TIP3    H246830   1.922   4.264  15.160  1.5946  1.7390  0.6328
 8447TIP3   OH246831   5.848   6.078  11.237  0.6993 -0.1577  0.0806
 8447TIP3    H146832   5.891   6.140  11.296 -0.5459  0.4555  0.3707
 8447TIP3    H246833   5.835   6.128  11.156 -0.3090 -0.0252  0.3147
 8448TIP3   OH246834   2.835   0.068  14.340  0.2026 -0.4641  0.0117
 8448TIP3    H146835   2.875   0.011  14.273 -0.3184 -0.8729  0.0419
 8448TIP3    H246836   2.780   0.009  14.391 -2.1002  0.4350 -1.3340
 8449TIP3   OH246837   0.085   3.732  16.131  0.3692  0.4590 -0.0373
 8449TIP3    H146838   0.061   3.646  16.099 -1.0489  1.2621 -1.1874
 8449TIP3    H246839   0.175   3.723  16.162 -0.2483 -1.7814  1.1961
 8450TIP3   OH246840   5.858   2.901  11.951 -0.0263 -0.8574  0.7584
 8450TIP3    H146841   5.845   2.869  11.862 -0.7547  0.1696  0.4794
 8450TIP3    H246842   5.941   2.947  11.948  0.0388 -0.9826  0.6550
 8451TIP3   OH246843   3.998   3.494  14.430 -0.3037 -0.8188 -0.5827
 8451TIP3    H146844   4.020   3.533  14.514 -0.9415 -1.4366 -0.1186
 8451TIP3    H246845   4.076   3.445  14.404  0.6477  1.0968 -1.3722
 8452TIP3   OH246846   5.775   2.867   3.713 -0.0577  0.2235  0.5121
 8452TIP3    H146847   5.814   2.780   3.712 -0.6522 -0.0329 -0.6448
 8452TIP3    H246848   5.843   2.924   3.678 -0.5358 -0.1559 -1.0700
 8453TIP3   OH246849   2.168   5.101  13.101  0.1276 -0.6123  0.1216
 8453TIP3    H146850   2.130   5.174  13.150  0.2194 -0.8312  0.5303
 8453TIP3    H246851   2.245   5.075  13.153  0.9713 -0.0258 -0.8201
 8454TIP3   OH246852   6.060   0.371  12.546  0.1968  0.0077 -0.6682
 8454TIP3    H146853   6.037   0.462  12.560 -0.0123 -0.2682  0.9330
 8454TIP3    H246854   5.980   0.330  12.513 -0.2789 -0.0013  0.4859
 8455TIP3   OH246855   6.406   6.457   4.128 -0.0517 -0.1723  0.0858
 8455TIP3    H146856   6.430   6.470   4.036  0.0742  0.1356  0.1625
 8455TIP3    H246857   6.425   6.541   4.170  0.5038 -0.5230  0.5248
 8456TIP3   OH246858   3.289   3.069   1.548  0.2239  0.5721  0.0139
 8456TIP3    H146859   3.213   3.011   1.548  0.6032  0.0549  0.9634
 8456TIP3    H246860   3.363   3.011   1.567  0.6798  1.2730  0.4165
 8457TIP3   OH246861   5.750   6.121   3.600 -0.4121  0.5513  0.9368
 8457TIP3    H146862   5.692   6.137   3.674  0.3214 -1.5253  2.0045
 8457TIP3    H246863   5.836   6.152   3.630 -0.5313  1.6933  0.1369
 8458TIP3   OH246864   6.155   3.708   2.537 -0.2981  0.3112  0.6303
 8458TIP3    H146865   6.168   3.628   2.487 -0.9898 -0.2313  1.2918
 8458TIP3    H246866   6.231   3.762   2.517  0.4315 -0.7202  0.5726
 8459TIP3   OH246867   6.173   4.820   1.625  0.3651  0.0854  0.1451
 8459TIP3    H146868   6.254   4.777   1.652  0.7795  1.3423  0.9640
 8459TIP3    H246869   6.194   4.913   1.626 -0.9799  0.4063  0.0106
 8460TIP3   OH246870   2.017   5.295   1.469 -0.0993 -0.6102  0.3521
 8460TIP3    H146871   2.014   5.207   1.433 -3.2581  0.1917 -1.5422
 8460TIP3    H246872   2.041   5.350   1.395  1.3660  0.2002  1.4025
 8461TIP3   OH246873   2.720   5.200   5.358 -0.3691  0.5093  0.7117
 8461TIP3    H146874   2.665   5.234   5.429 -0.3896  0.8406  0.5374
 8461TIP3    H246875   2.663   5.141   5.309  0.1523 -1.1510  2.0476
 8462TIP3   OH246876   2.268   6.175   0.033 -0.1638  0.0475  0.1706
 8462TIP3    H146877   2.344   6.232   0.044 -0.0628  0.2559 -1.4711
 8462TIP3    H246878   2.304   6.092   0.005 -0.4077 -0.4502  1.3094
 8463TIP3   OH246879   1.082   6.668  16.919 -0.4182  0.3264  0.4947
 8463TIP3    H146880   1.081   6.764  16.916  2.3985  0.3567 -0.7166
 8463TIP3    H246881   1.026   6.647  16.994 -1.3622  2.8950  0.5876
 8464TIP3   OH246882   2.142   5.771  16.295 -0.2677 -0.2018 -0.1758
 8464TIP3    H146883   2.195   5.755  16.373 -1.2131 -0.6954  0.3690
 8464TIP3    H246884   2.170   5.704  16.232  0.7616  0.4283 -0.4097
 8465TIP3   OH246885   6.265   2.160   5.155 -0.5691  0.4856  0.2334
 8465TIP3    H146886   6.230   2.087   5.206 -1.5628 -1.1445 -2.6815
 8465TIP3    H246887   6.189   2.214   5.134  0.0654  2.0439  1.7654
 8466TIP3   OH246888   6.010   3.941  15.327  0.1376  0.2344 -0.0781
 8466TIP3    H146889   6.039   3.974  15.412 -2.0081  0.0967  0.7499
 8466TIP3    H246890   5.950   3.870  15.347 -0.8098  0.5360 -1.6925
 8467TIP3   OH246891   2.305   6.308  17.034 -0.3526 -0.4810  0.2172
 8467TIP3    H146892   2.251   6.265  16.967  0.4202  0.6229 -1.1315
 8467TIP3    H246893   2.244   6.363  17.082 -0.9338 -1.3635  0.5107
 8468TIP3   OH246894   3.950   5.776  10.498 -0.2745  0.2579  0.5984
 8468TIP3    H146895   3.907   5.843  10.445 -0.8151  0.4051  1.2187
 8468TIP3    H246896   4.037   5.810  10.516  0.2557 -0.2178 -1.0102
 8469TIP3   OH246897   6.358   0.218  12.060  0.7711  0.1853 -0.6937
 8469TIP3    H146898   6.419   0.164  12.109  2.3968  3.0060  0.4977
 8469TIP3    H246899   6.276   0.213  12.110  1.2859 -0.1268  0.1305
 8470TIP3   OH246900   2.868   5.356  13.589  0.1844 -0.4895 -0.2037
 8470TIP3    H146901   2.787   5.315  13.619  0.3094  0.1825  1.0954
 8470TIP3    H246902   2.922   5.283  13.559 -0.4218 -1.0642  0.0866
 8471TIP3   OH246903   4.636   4.262   3.953 -0.5656 -0.4696 -0.0201
 8471TIP3    H146904   4.619   4.354   3.935  0.2623 -0.3304 -0.0869
 8471TIP3    H246905   4.643   4.222   3.866 -0.4840 -0.5117  0.0056
 8472TIP3   OH246906   3.149   2.305   3.394  0.6513 -0.0306 -0.3299
 8472TIP3    H146907   3.189   2.338   3.314  2.7599 -1.8701 -0.0852
 8472TIP3    H246908   3.090   2.236   3.365 -2.3885  2.5600 -0.6736
 8473TIP3   OH246909   2.793   0.346  11.291  0.2043 -0.0253 -0.1585
 8473TIP3    H146910   2.746   0.389  11.362 -0.9632  2.2291 -2.2220
 8473TIP3    H246911   2.868   0.304  11.333 -0.3777  1.3849  2.3488
 8474TIP3   OH246912   3.815   3.504   2.983  0.0166 -0.0887 -0.2151
 8474TIP3    H146913   3.816   3.435   2.917  1.2690  0.2932 -0.6027
 8474TIP3    H246914   3.903   3.542   2.979  0.2313 -0.3375  1.9663
 8475TIP3   OH246915   4.236   2.553  12.388  0.0763  0.1919  0.3114
 8475TIP3    H146916   4.329   2.574  12.392 -0.2519  1.4492  1.6047
 8475TIP3    H246917   4.216   2.550  12.294  1.2690  0.5372  0.0433
 8476TIP3   OH246918   6.507   5.163   1.666  0.0202  0.3745 -0.2138
 8476TIP3    H146919   6.541   5.081   1.631 -0.8842  0.4553 -1.2880
 8476TIP3    H246920   6.585   5.219   1.676  0.4957 -0.2404 -0.4734
 8477TIP3   OH246921   4.086   4.543   3.207 -0.2223 -0.3962  0.3758
 8477TIP3    H146922   4.119   4.613   3.262 -0.6598 -0.7340  1.0729
 8477TIP3    H246923   4.060   4.474   3.268  0.9550 -1.4975 -0.3415
 8478TIP3   OH246924   6.162   2.953  15.109 -1.0253  0.4238 -0.3425
 8478TIP3    H146925   6.233   2.891  15.128 -0.2817  1.6408  1.0166
 8478TIP3    H246926   6.136   2.985  15.195 -1.2181  2.1810 -1.0467
 8479TIP3   OH246927   0.920   5.608  13.423 -0.1223  0.1775 -0.4470
 8479TIP3    H146928   0.860   5.533  13.427 -0.2565  0.3013 -0.0754
 8479TIP3    H246929   1.007   5.569  13.430 -0.2604  0.2252  2.4010
 8480TIP3   OH246930   0.142   6.052  12.098 -0.3890  0.0233 -0.4061
 8480TIP3    H146931   0.078   6.042  12.168 -0.2023  0.0194 -0.2358
 8480TIP3    H246932   0.223   6.074  12.143 -0.1692 -0.4024 -0.5911
 8481TIP3   OH246933   5.913   5.427  11.382 -0.3522  0.9192 -0.3597
 8481TIP3    H146934   5.952   5.369  11.317  1.9377 -0.4620  2.1307
 8481TIP3    H246935   5.829   5.387  11.402 -0.5711  0.7249 -1.6137
 8482TIP3   OH246936   1.370   3.878   1.484  0.2737  0.5034  0.4702
 8482TIP3    H146937   1.429   3.847   1.415 -0.0464  0.1151  0.3654
 8482TIP3    H246938   1.289   3.901   1.438 -1.0667 -2.7420  1.0554
 8483TIP3   OH246939   2.749   0.939   1.920 -0.5482 -0.5376 -0.6289
 8483TIP3    H146940   2.775   0.921   2.010 -0.1068 -1.6380 -0.9717
 8483TIP3    H246941   2.824   0.914   1.867 -1.7908 -2.5213 -1.5192
 8484TIP3   OH246942   5.594   1.392   3.876 -0.3859  0.7148 -0.1699
 8484TIP3    H146943   5.546   1.406   3.794 -1.8843  0.1261  0.5981
 8484TIP3    H246944   5.606   1.297   3.880  1.3448  0.8828 -0.6107
 8485TIP3   OH246945   6.032   1.424  14.925 -0.6055 -0.0572 -0.1750
 8485TIP3    H146946   6.044   1.516  14.902 -1.0732 -0.3166 -1.5427
 8485TIP3    H246947   5.941   1.417  14.953 -1.1976 -0.4611 -2.0713
 8486TIP3   OH246948   3.326   4.602   3.239  0.3433 -0.1181  0.2946
 8486TIP3    H146949   3.269   4.666   3.197 -2.4442 -2.0730  0.9696
 8486TIP3    H246950   3.289   4.592   3.327  2.1190 -0.9689  0.9633
 8487TIP3   OH246951   5.741   1.718   4.826 -0.1783  0.1158 -0.4631
 8487TIP3    H146952   5.737   1.628   4.793  0.7612 -0.0907 -0.0503
 8487TIP3    H246953   5.835   1.735   4.836 -0.4394  0.1556  2.1041
 8488TIP3   OH246954   3.275   3.100   5.306 -0.1188  0.6141  0.2052
 8488TIP3    H146955   3.215   3.037   5.346  0.2168  0.3855  0.3561
 8488TIP3    H246956   3.222   3.147   5.241 -1.0070  1.9087  1.8456
 8489TIP3   OH246957   4.707   1.081  13.339 -0.0446 -0.2136  0.1909
 8489TIP3    H146958   4.729   1.108  13.250 -1.0374  0.1374  0.0455
 8489TIP3    H246959   4.618   1.112  13.352  0.5350  0.8868  1.7749
 8490TIP3   OH246960   4.353   3.438  16.348 -0.2072 -0.1964  0.3830
 8490TIP3    H146961   4.406   3.512  16.376  1.3377 -0.8219 -0.8356
 8490TIP3    H246962   4.411   3.386  16.293 -1.6409 -1.6788  0.2296
 8491TIP3   OH246963   2.308   1.362  16.195  0.2022 -0.0245 -0.0800
 8491TIP3    H146964   2.393   1.330  16.226 -0.5412 -3.2817 -1.1800
 8491TIP3    H246965   2.328   1.414  16.118  1.3211  0.6030  0.6211
 8492TIP3   OH246966   3.070   1.359   2.518  0.6150 -0.3053 -0.3798
 8492TIP3    H146967   3.060   1.264   2.513  1.0501 -0.3794  0.0515
 8492TIP3    H246968   3.077   1.377   2.612  2.2535 -0.0379 -0.5461
 8493TIP3   OH246969   6.635   5.288  11.111  0.6003 -0.4774  0.6540
 8493TIP3    H146970   6.567   5.356  11.105  1.8183  0.6992  0.0910
 8493TIP3    H246971   6.592   5.209  11.076 -0.2243  0.4428 -0.4567
 8494TIP3   OH246972   4.815   5.996   3.415  0.0235  0.4825  0.2828
 8494TIP3    H146973   4.767   6.076   3.435 -2.7242 -0.8903 -0.6318
 8494TIP3    H246974   4.782   5.968   3.330  2.6918 -0.3792 -0.5397
 8495TIP3   OH246975   0.456   5.523  16.582  0.2547  0.2376 -0.1317
 8495TIP3    H146976   0.534   5.470  16.567  0.3690 -0.2662  2.0549
 8495TIP3    H246977   0.490   5.612  16.592  0.3537  0.2957 -0.9448
 8496TIP3   OH246978   4.233   2.121  15.561  0.3507 -0.2619  0.0212
 8496TIP3    H146979   4.305   2.181  15.542  1.1993 -1.0766  0.5953
 8496TIP3    H246980   4.276   2.038  15.581 -0.7401 -0.7076  0.5762
 8497TIP3   OH246981   6.643   2.806   0.673  0.3242 -0.4509 -0.2968
 8497TIP3    H146982   6.642   2.720   0.714 -0.4047  0.0764  0.8257
 8497TIP3    H246983   6.733   2.818   0.644  0.9303 -0.7419  1.3956
 8498TIP3   OH246984   1.009   4.651  12.472  0.2186 -0.5891  0.0465
 8498TIP3    H146985   1.100   4.658  12.444  0.5897 -0.4746  1.2629
 8498TIP3    H246986   0.958   4.683  12.397  1.0828 -2.4385 -1.3618
 8499TIP3   OH246987   5.119   4.466   4.831 -0.6152 -0.1125 -0.1971
 8499TIP3    H146988   5.189   4.403   4.812 -1.2018 -1.1008  0.8645
 8499TIP3    H246989   5.038   4.418   4.817 -1.0670  0.0476  1.6740
 8500TIP3   OH246990   0.613   3.433   4.706 -0.7398  0.1987 -0.4403
 8500TIP3    H146991   0.658   3.356   4.742 -0.1691  0.4800 -0.5368
 8500TIP3    H246992   0.531   3.438   4.755 -0.7815 -0.4717 -0.4348
 8501TIP3   OH246993   3.610   5.389  15.159  0.3620  0.6094  0.3128
 8501TIP3    H146994   3.622   5.428  15.245 -0.7758 -0.5682  1.0185
 8501TIP3    H246995   3.521   5.413  15.133 -0.1097 -0.9015  0.4637
 8502TIP3   OH246996   6.583   0.406   4.257  0.1742  0.1135 -0.0332
 8502TIP3    H146997   6.622   0.328   4.219  2.9136  1.0417  0.7518
 8502TIP3    H246998   6.630   0.479   4.217 -3.7419  1.5165 -2.3116
 8503TIP3   OH246999   3.648   1.156  15.524  0.2298 -0.4891  0.5050
 8503TIP3    H147000   3.608   1.242  15.541 -0.5340 -0.9552  1.1370
 8503TIP3    H247001   3.574   1.100  15.502  0.4050 -1.5759  2.5323
 8504TIP3   OH247002   2.908   5.981   4.635  0.1791  0.7944  0.4304
 8504TIP3    H147003   2.888   5.888   4.641 -1.0756  1.0238 -0.1138
 8504TIP3    H247004   2.823   6.025   4.637  0.6662  1.8445 -1.0092
 8505TIP3   OH247005   2.270   0.321  15.419 -0.4582  0.0301  0.4548
 8505TIP3    H147006   2.270   0.367  15.335 -0.4522 -1.6345 -0.4778
 8505TIP3    H247007   2.248   0.388  15.483  1.7498  1.8454 -0.5942
 8506TIP3   OH247008   1.593   4.372   4.588 -0.0739  0.3222  0.1396
 8506TIP3    H147009   1.524   4.433   4.562 -0.2938 -0.2182 -0.5400
 8506TIP3    H247010   1.547   4.297   4.626  0.1592  0.1303  0.0420
 8507TIP3   OH247011   1.588   3.784  10.964  0.2855 -0.1191  0.4885
 8507TIP3    H147012   1.530   3.743  10.899  0.4751 -0.5679  0.5983
 8507TIP3    H247013   1.648   3.714  10.989  0.3992  0.1394  0.9318
 8508TIP3   OH247014   5.658   2.468   0.266 -0.2477 -0.1990  0.0599
 8508TIP3    H147015   5.682   2.491   0.176  0.3871  0.8647  0.4890
 8508TIP3    H247016   5.622   2.549   0.302 -1.8360 -1.0003  0.3217
 8509TIP3   OH247017   0.313   3.908  15.317  0.8198 -0.4674 -0.5263
 8509TIP3    H147018   0.287   3.822  15.285  0.6524 -0.1326 -1.2823
 8509TIP3    H247019   0.284   3.909  15.409 -4.6014  0.9712 -2.0547
 8510TIP3   OH247020   6.144   0.808  15.686  0.0617 -0.7126 -0.1648
 8510TIP3    H147021   6.206   0.754  15.735  0.4265 -0.2349 -0.0952
 8510TIP3    H247022   6.176   0.897  15.696 -0.5268 -0.4795 -0.2950
 8511TIP3   OH247023   1.148   6.301  13.804  0.0440 -0.0168 -0.0656
 8511TIP3    H147024   1.090   6.281  13.878  1.1485  0.3686  0.9237
 8511TIP3    H247025   1.186   6.386  13.827  2.0222 -0.8946 -0.0610
 8512TIP3   OH247026   0.476   1.657  16.602  0.6187  0.3493 -0.0690
 8512TIP3    H147027   0.478   1.602  16.524 -0.9684 -0.4638  0.4517
 8512TIP3    H247028   0.568   1.677  16.620  1.0618 -0.3955 -1.4788
 8513TIP3   OH247029   0.156   2.320   4.685  0.4525 -0.3476 -0.1512
 8513TIP3    H147030   0.244   2.283   4.685 -0.4830 -2.6795  0.0445
 8513TIP3    H247031   0.166   2.407   4.647  3.0074 -0.1376  0.9175
 8514TIP3   OH247032   6.455   4.007  15.923 -0.5416 -0.4476 -0.2092
 8514TIP3    H147033   6.453   4.051  15.839  0.7692 -1.7223 -0.9333
 8514TIP3    H247034   6.394   4.056  15.978 -0.2852  1.2898 -1.4465
 8515TIP3   OH247035   4.633   2.113  17.081  0.4095 -0.2511  0.3516
 8515TIP3    H147036   4.680   2.190  17.112  1.3114  0.3450 -2.3571
 8515TIP3    H247037   4.686   2.080  17.008 -1.4125 -1.8046 -0.3186
 8516TIP3   OH247038   5.808   5.363  15.541 -0.5915  0.0689  0.1051
 8516TIP3    H147039   5.791   5.356  15.635 -0.2741 -1.6441  0.0538
 8516TIP3    H247040   5.904   5.370  15.535 -0.4539 -1.7351 -0.1624
 8517TIP3   OH247041   3.748   2.953   0.829 -0.3427  0.2008 -0.5811
 8517TIP3    H147042   3.660   2.966   0.863 -1.5361 -2.3316 -2.5017
 8517TIP3    H247043   3.786   3.041   0.825 -2.5430  1.2543  0.8240
 8518TIP3   OH247044   0.594   3.386  10.745  0.6240  0.5897 -0.2658
 8518TIP3    H147045   0.538   3.455  10.779  0.8293  0.5137  0.2173
 8518TIP3    H247046   0.546   3.351  10.670  0.6669  1.4658 -0.7027
 8519TIP3   OH247047   2.561   1.432   4.248  0.0765 -0.0852 -0.3975
 8519TIP3    H147048   2.486   1.377   4.269 -0.2085  0.6506  0.5468
 8519TIP3    H247049   2.552   1.451   4.155 -1.4871  0.8881 -0.0486
 8520TIP3   OH247050   0.430   1.558  16.318 -0.0024  0.2300 -0.0214
 8520TIP3    H147051   0.349   1.510  16.302  1.1811 -1.5200 -0.7754
 8520TIP3    H247052   0.435   1.622  16.247 -1.2608  1.1137  0.6504
 8521TIP3   OH247053   4.062   0.656  11.430  0.2535 -0.3369  0.1240
 8521TIP3    H147054   4.059   0.650  11.334  0.1199 -0.5488  0.1406
 8521TIP3    H247055   3.974   0.687  11.454  0.8070  1.3646  0.0629
 8522TIP3   OH247056   2.478   5.858  12.614  0.5496  0.3890  0.4857
 8522TIP3    H147057   2.389   5.864  12.647 -0.0209 -0.0155 -0.9424
 8522TIP3    H247058   2.533   5.875  12.690 -0.7293 -0.6017  1.6450
 8523TIP3   OH247059   6.611   1.178  14.908  0.1115  0.9225 -0.2940
 8523TIP3    H147060   6.650   1.169  14.821 -0.6430  0.7134 -0.6096
 8523TIP3    H247061   6.519   1.155  14.896  0.4189 -1.1233  0.9581
 8524TIP3   OH247062   3.011   5.536  12.807  0.3465  0.2224 -0.5430
 8524TIP3    H147063   3.040   5.577  12.889  1.5167 -1.3846 -0.1241
 8524TIP3    H247064   3.086   5.483  12.780  0.6805  2.1835 -3.6646
 8525TIP3   OH247065   0.469   2.838  15.902 -0.3263 -0.0924  0.1569
 8525TIP3    H147066   0.436   2.755  15.935  0.0521 -0.5616 -0.6096
 8525TIP3    H247067   0.558   2.844  15.938 -0.9133  0.7389  1.4893
 8526TIP3   OH247068   0.767   6.216  16.763  0.2476  0.5296 -0.0399
 8526TIP3    H147069   0.759   6.305  16.797  3.0731  0.6157  0.5089
 8526TIP3    H247070   0.744   6.160  16.836 -2.4453  0.7661 -0.6466
 8527TIP3   OH247071   5.833   3.717  15.408 -0.8169 -0.0426  0.6054
 8527TIP3    H147072   5.812   3.674  15.491 -1.3486 -0.0902  0.4496
 8527TIP3    H247073   5.766   3.686  15.347 -0.3091 -0.1616  0.1060
 8528TIP3   OH247074   5.756   6.595   1.788  0.6004  0.0722 -0.2058
 8528TIP3    H147075   5.661   6.609   1.788  0.4735 -0.7508 -1.3138
 8528TIP3    H247076   5.769   6.518   1.844  0.5180 -0.4259 -0.8685
 8529TIP3   OH247077   6.179   5.703   5.369 -0.1934  0.3815 -0.2380
 8529TIP3    H147078   6.270   5.673   5.368  0.3199  1.8238  1.4546
 8529TIP3    H247079   6.177   5.775   5.306  0.3541  1.7630  1.3025
 8530TIP3   OH247080   5.114   3.711  13.469  0.2052 -0.3976  0.4271
 8530TIP3    H147081   5.056   3.664  13.529  0.5998  0.2757  1.3460
 8530TIP3    H247082   5.139   3.790  13.517 -1.3838  1.3626 -1.5404
 8531TIP3   OH247083   4.846   6.160  16.776  0.4313  0.3762 -0.3428
 8531TIP3    H147084   4.926   6.190  16.819 -0.8010 -0.4643  2.6624
 8531TIP3    H247085   4.777   6.216  16.812 -0.7903 -1.0393 -0.4304
 8532TIP3   OH247086   4.977   6.684  13.530  0.0836  0.3687  0.3702
 8532TIP3    H147087   4.969   6.749  13.600 -1.7367  0.6725 -0.0731
 8532TIP3    H247088   4.985   6.736  13.450 -2.3494  0.1309 -0.0954
 8533TIP3   OH247089   5.028   3.539   1.369 -0.7069 -0.0028  0.5016
 8533TIP3    H147090   5.103   3.598   1.385 -2.4792  1.7545  2.6580
 8533TIP3    H247091   5.049   3.460   1.419  0.1790  0.0687  0.2622
 8534TIP3   OH247092   0.440   3.847   5.835  0.2827 -0.0094  0.4269
 8534TIP3    H147093   0.432   3.872   5.927  0.5484  0.4401  0.3296
 8534TIP3    H247094   0.475   3.925   5.792 -1.0875  0.2251 -0.2916
 8535TIP3   OH247095   6.522   3.262   1.778  0.7238  0.0772  0.4649
 8535TIP3    H147096   6.585   3.284   1.847  2.0516 -0.6234 -0.5056
 8535TIP3    H247097   6.505   3.169   1.789 -0.0401  0.2282  0.6178
 8536TIP3   OH247098   3.754   6.263   5.378 -0.3885  0.4759 -0.0788
 8536TIP3    H147099   3.687   6.195   5.390 -0.9273  0.7717 -1.3173
 8536TIP3    H247100   3.705   6.340   5.350  0.5282  0.4903 -1.7136
 8537TIP3   OH247101   0.795   0.721   6.036 -0.3296  0.0416 -0.8352
 8537TIP3    H147102   0.823   0.752   5.950 -0.6133 -0.5255 -1.1406
 8537TIP3    H247103   0.706   0.756   6.046 -0.5254 -0.3880 -1.0383
 8538TIP3   OH247104   4.581   6.632   4.839  0.2770  0.1412 -0.3609
 8538TIP3    H147105   4.549   6.549   4.873  0.2969 -0.6369 -2.1876
 8538TIP3    H247106   4.528   6.699   4.883 -1.2787 -0.9389 -0.5702
 8539TIP3   OH247107   5.472   6.499   1.625 -0.1982 -0.1439 -0.5399
 8539TIP3    H147108   5.405   6.467   1.686 -0.4297 -0.6362 -1.0539
 8539TIP3    H247109   5.541   6.433   1.627  0.5253  0.6083  0.3748
 8540TIP3   OH247110   4.424   3.561   0.260  0.8911  0.0926  0.0784
 8540TIP3    H147111   4.398   3.473   0.231 -1.7096  1.4362 -1.9544
 8540TIP3    H247112   4.436   3.610   0.178 -0.0835  2.2638  1.2030
 8541TIP3   OH247113   3.117   5.797   1.079  0.2274 -0.1790  0.0371
 8541TIP3    H147114   3.142   5.729   1.016 -0.6177 -0.8083  0.3695
 8541TIP3    H247115   3.032   5.768   1.113  1.4619 -0.7815  2.7713
 8542TIP3   OH247116   4.620   1.160   0.866  0.4790  0.2465  0.3527
 8542TIP3    H147117   4.674   1.221   0.816  0.9980 -0.7267 -0.2873
 8542TIP3    H247118   4.677   1.086   0.883 -0.5323 -0.6149  0.0292
 8543TIP3   OH247119   0.049   2.416  12.518 -0.2940 -0.3450  0.3625
 8543TIP3    H147120   0.030   2.475  12.590 -0.9917 -0.1486  0.0206
 8543TIP3    H247121   0.020   2.330  12.547 -0.3068 -0.3184  0.4263
 8544TIP3   OH247122   2.386   6.104  16.655  0.4276  0.2408 -0.0401
 8544TIP3    H147123   2.438   6.069  16.582  0.3596 -0.2192  0.1300
 8544TIP3    H247124   2.310   6.145  16.613  0.0188 -0.6548 -0.1987
 8545TIP3   OH247125   3.157   6.493  15.553  0.2968 -0.1344 -0.2027
 8545TIP3    H147126   3.098   6.429  15.592 -1.8804  1.3632 -0.9600
 8545TIP3    H247127   3.169   6.559  15.621  0.5228 -0.0682 -0.3061
 8546TIP3   OH247128   4.148   3.548  16.001 -0.1252  0.3220 -0.2220
 8546TIP3    H147129   4.212   3.477  16.006  0.0560  0.4919 -0.1035
 8546TIP3    H247130   4.084   3.526  16.069 -1.4816 -1.0989 -1.9445
 8547TIP3   OH247131   2.412   2.102   3.052 -0.0903  0.6076 -0.6796
 8547TIP3    H147132   2.454   2.068   3.131 -2.3475  0.7424  0.6064
 8547TIP3    H247133   2.458   2.184   3.035  0.0996  0.8191  0.7712
 8548TIP3   OH247134   1.174   4.511  16.238 -0.7429  0.0600  0.2307
 8548TIP3    H147135   1.155   4.466  16.320 -0.2396  2.2212  1.5727
 8548TIP3    H247136   1.260   4.479  16.212  0.5551  1.7711  2.2810
 8549TIP3   OH247137   1.043   3.657   2.218  0.1366  0.4601 -0.7719
 8549TIP3    H147138   1.061   3.692   2.305  1.2302 -0.0497 -0.7804
 8549TIP3    H247139   1.021   3.565   2.234  2.0247 -0.0829 -1.1697
 8550TIP3   OH247140   6.320   5.957  16.257  0.0794 -0.4126  0.0863
 8550TIP3    H147141   6.347   5.871  16.226  0.0678  1.0547 -4.3872
 8550TIP3    H247142   6.400   5.995  16.293  0.0269 -2.3132  2.3161
 8551TIP3   OH247143   4.803   6.671   4.031  0.2690  0.0612  0.4346
 8551TIP3    H147144   4.749   6.662   4.109  1.9828 -1.8818  1.4599
 8551TIP3    H247145   4.811   6.765   4.017 -3.4837  0.3821  0.1309
 8552TIP3   OH247146   6.083   2.159  16.442 -0.0299  0.7320 -0.0697
 8552TIP3    H147147   6.035   2.135  16.521 -1.7885  0.4164 -1.2246
 8552TIP3    H247148   6.164   2.107  16.447  0.4830  1.6737  2.1394
 8553TIP3   OH247149   2.023   0.353  14.274 -0.4484 -0.1668 -0.1899
 8553TIP3    H147150   1.969   0.321  14.201 -1.1286  2.0745 -0.7135
 8553TIP3    H247151   2.111   0.323  14.253 -0.4904  1.1078 -2.4060
 8554TIP3   OH247152   1.924   4.652  13.634  0.1773  0.1898 -0.1988
 8554TIP3    H147153   1.872   4.722  13.673 -2.1284 -1.8284  0.4580
 8554TIP3    H247154   2.008   4.656  13.680 -0.9769  0.6355  1.9063
 8555TIP3   OH247155   0.042   4.078  14.945  0.3397 -0.1013 -0.8017
 8555TIP3    H147156   0.094   4.142  14.895 -1.3063  0.6923 -1.5119
 8555TIP3    H247157  -0.043   4.078  14.903  0.2228 -2.5693 -0.6086
 8556TIP3   OH247158   0.695   1.340   0.723  0.3237 -0.5023  0.9606
 8556TIP3    H147159   0.648   1.395   0.660  3.1748  0.3273 -0.5588
 8556TIP3    H247160   0.632   1.323   0.792 -2.4214 -0.0783 -1.3390
 8557TIP3   OH247161   3.494   3.634  16.433 -0.6334  0.0043 -0.4153
 8557TIP3    H147162   3.487   3.576  16.508 -0.4102  1.1917  0.5401
 8557TIP3    H247163   3.563   3.596  16.379 -0.0959 -0.3064  0.4874
 8558TIP3   OH247164   0.335   3.371   1.964 -0.3525  0.2479  0.6668
 8558TIP3    H147165   0.423   3.388   1.932 -0.0612 -1.0665  0.7419
 8558TIP3    H247166   0.283   3.358   1.885  0.0704 -1.5588  0.6601
 8559TIP3   OH247167   1.734   5.848  11.376 -0.1422 -0.3625 -0.7303
 8559TIP3    H147168   1.704   5.768  11.419  1.1847 -0.6526 -0.2933
 8559TIP3    H247169   1.755   5.907  11.449  1.6026 -0.6623 -0.9734
 8560TIP3   OH247170   3.240   2.144  11.663  0.0494 -0.3974  0.1342
 8560TIP3    H147171   3.221   2.057  11.630 -1.4025 -0.0926  0.1224
 8560TIP3    H247172   3.333   2.157  11.645 -0.2895 -0.9568 -2.1339
 8561TIP3   OH247173   1.463   1.853  17.188 -0.1053  0.0508 -0.8644
 8561TIP3    H147174   1.534   1.917  17.178  0.0766  0.4046  2.1704
 8561TIP3    H247175   1.506   1.768  17.191 -0.0614  0.0417 -1.6566
 8562TIP3   OH247176   2.473   4.484  10.615 -0.1302 -0.4584 -0.0181
 8562TIP3    H147177   2.475   4.425  10.540  2.1805  0.9413 -1.1053
 8562TIP3    H247178   2.526   4.441  10.682  1.3351  0.2446 -0.7168
 8563TIP3   OH247179   6.301   1.850  16.986  0.4702  0.5206 -0.4865
 8563TIP3    H147180   6.229   1.913  16.983  0.1436  0.1747 -0.1445
 8563TIP3    H247181   6.306   1.815  16.897  0.5050  0.8646 -0.6214
 8564TIP3   OH247182   6.151   1.951   5.343 -0.5119  0.0556  0.2300
 8564TIP3    H147183   6.110   2.027   5.383  0.6628  0.9647 -0.2798
 8564TIP3    H247184   6.240   1.949   5.377 -0.3911 -0.8370 -0.0986
 8565TIP3   OH247185   6.729   0.710   4.372 -0.1413  0.0187 -0.2710
 8565TIP3    H147186   6.743   0.623   4.408 -2.0222 -0.5476 -0.8344
 8565TIP3    H247187   6.716   0.695   4.278  1.1244  1.0907 -0.6377
 8566TIP3   OH247188   3.644   1.124   6.140  0.0542  0.0336  0.7253
 8566TIP3    H147189   3.614   1.048   6.190  0.7766 -0.0260  1.0812
 8566TIP3    H247190   3.644   1.196   6.203  1.7995 -0.2265  1.0709
 8567TIP3   OH247191   6.668   2.376  15.271  0.5966  0.6158  0.0027
 8567TIP3    H147192   6.754   2.402  15.241  0.0231  0.4799 -1.7770
 8567TIP3    H247193   6.607   2.430  15.221 -0.3783  0.2576  0.7839
 8568TIP3   OH247194   4.859   6.437  11.224 -0.4660  0.2902 -0.3396
 8568TIP3    H147195   4.779   6.482  11.250  0.8696  1.4127  2.0480
 8568TIP3    H247196   4.852   6.349  11.263 -0.1899  0.6664  0.5691
 8569TIP3   OH247197   5.782   5.268  12.448  0.3315  0.2364 -0.2819
 8569TIP3    H147198   5.869   5.227  12.457 -0.2201 -0.9311 -0.1920
 8569TIP3    H247199   5.800   5.351  12.404  1.2634 -0.9493 -2.2079
 8570TIP3   OH247200   6.673   5.857  15.337 -0.5128 -0.0045 -0.2227
 8570TIP3    H147201   6.616   5.913  15.389  0.3479  0.8873 -0.2197
 8570TIP3    H247202   6.625   5.843  15.256 -0.6386  0.9655 -0.3286
 8571TIP3   OH247203   3.685   5.271  12.921  0.4456 -0.8266  0.0535
 8571TIP3    H147204   3.595   5.241  12.928  0.2783 -0.1695  0.7075
 8571TIP3    H247205   3.733   5.195  12.887 -0.0675 -1.6713  1.1931
 8572TIP3   OH247206   1.057   6.308  16.783 -0.3705  0.2036  0.0600
 8572TIP3    H147207   0.965   6.303  16.760 -0.0920  0.0906 -1.0769
 8572TIP3    H247208   1.066   6.253  16.861 -0.9098 -1.3264 -0.9377
 8573TIP3   OH247209   5.093   3.842  15.416 -0.3348 -0.6528  0.6561
 8573TIP3    H147210   5.106   3.873  15.327 -0.6592 -0.3087  0.7261
 8573TIP3    H247211   5.009   3.880  15.442 -0.6566 -1.4668  0.7972
 8574TIP3   OH247212   5.995   4.129  10.864  0.3205  0.6712 -0.2793
 8574TIP3    H147213   5.938   4.204  10.845 -0.6019 -0.1388 -0.7183
 8574TIP3    H247214   6.040   4.112  10.782 -0.5304 -0.1514 -0.5851
 8575TIP3   OH247215   1.488   4.664   2.175 -0.1236 -0.5307 -0.1615
 8575TIP3    H147216   1.412   4.632   2.223 -0.1037  0.4542  0.5433
 8575TIP3    H247217   1.557   4.670   2.241  0.0766  0.2382 -0.4366
 8576TIP3   OH247218   4.156   2.310  12.959  0.0139  0.3470  0.7809
 8576TIP3    H147219   4.145   2.264  13.042 -1.1639  2.3486  1.7878
 8576TIP3    H247220   4.074   2.293  12.912  0.7620 -0.9523 -0.0745
 8577TIP3   OH247221   4.583   4.243   1.878 -0.7071 -0.5142  0.5931
 8577TIP3    H147222   4.546   4.330   1.891 -0.9992 -0.6223  0.4873
 8577TIP3    H247223   4.554   4.217   1.791  1.6298  0.3897 -0.4994
 8578TIP3   OH247224   3.472   6.196  15.066  0.0103  0.7244  0.7590
 8578TIP3    H147225   3.472   6.251  14.988  1.3055  1.8890  1.5731
 8578TIP3    H247226   3.486   6.256  15.139 -0.8102 -0.3992  1.8821
 8579TIP3   OH247227   6.226   2.167   3.604  0.0290 -0.4483  0.1289
 8579TIP3    H147228   6.276   2.130   3.676 -0.1601  0.3931  0.6961
 8579TIP3    H247229   6.161   2.100   3.583  1.7058 -1.7615 -0.9599
 8580TIP3   OH247230   1.675   5.767   3.326 -0.3796 -0.3426 -0.2873
 8580TIP3    H147231   1.688   5.764   3.421  2.0950 -1.6962 -0.6327
 8580TIP3    H247232   1.743   5.826   3.294 -0.5106 -0.7439 -1.3126
 8581TIP3   OH247233   2.352   3.614  12.937  0.2179 -0.2165  0.8763
 8581TIP3    H147234   2.259   3.606  12.954  0.1173  1.8919  1.4831
 8581TIP3    H247235   2.381   3.684  12.995  1.6059  1.1829 -1.4261
 8582TIP3   OH247236   5.510   6.170  11.860 -0.0528 -0.0877 -0.0570
 8582TIP3    H147237   5.563   6.092  11.877  0.7338  0.4441 -0.0225
 8582TIP3    H247238   5.496   6.168  11.765  0.2208 -0.1128 -0.0992
 8583TIP3   OH247239   3.362   0.714   4.547 -0.3727 -0.2725 -0.5139
 8583TIP3    H147240   3.443   0.691   4.502  1.0762  1.8667  0.8661
 8583TIP3    H247241   3.379   0.692   4.639 -2.0606 -1.5085 -0.4682
 8584TIP3   OH247242   2.585   6.773  15.846  0.4967 -0.4346 -0.1355
 8584TIP3    H147243   2.572   6.862  15.879  0.1845 -0.7170  0.5018
 8584TIP3    H247244   2.613   6.723  15.923  0.2460 -0.9864 -0.4062
 8585TIP3   OH247245   6.505   5.180   3.008 -0.2937  0.4289  0.8540
 8585TIP3    H147246   6.591   5.138   3.010 -0.0052  0.9591 -0.2470
 8585TIP3    H247247   6.515   5.259   3.060 -0.0565  0.5956  0.5544
 8586TIP3   OH247248   6.716   1.081   5.698 -0.1588  0.5174 -0.0801
 8586TIP3    H147249   6.800   1.064   5.742  0.2572 -0.6082 -1.2825
 8586TIP3    H247250   6.655   1.095   5.770  0.9879  1.0150  0.8295
 8587TIP3   OH247251   3.618   5.704   4.948 -0.4177  0.5736  0.3544
 8587TIP3    H147252   3.554   5.726   4.881 -0.3024  1.6504  0.5792
 8587TIP3    H247253   3.595   5.761   5.022  0.5314  0.6605  0.5892
 8588TIP3   OH247254   3.089   1.101   4.666  0.1572 -0.0494  0.3327
 8588TIP3    H147255   3.159   1.154   4.627  0.9029 -1.1351  0.1722
 8588TIP3    H247256   3.032   1.078   4.593  0.8381 -0.9861  0.0827
 8589TIP3   OH247257   1.656   5.782   3.919  0.4309 -0.1419 -0.2660
 8589TIP3    H147258   1.734   5.734   3.893  1.2597  0.9099  0.2328
 8589TIP3    H247259   1.688   5.870   3.939 -0.7543  0.0820  0.6832
 8590TIP3   OH247260   5.413   1.984   5.860 -0.0889 -0.6195  0.2099
 8590TIP3    H147261   5.406   1.921   5.932  2.3492 -0.6994  0.4035
 8590TIP3    H247262   5.329   1.976   5.814 -2.4756  0.8163  4.0916
 8591TIP3   OH247263   0.717   3.874  16.760 -0.5773  0.3411 -0.0921
 8591TIP3    H147264   0.803   3.892  16.721 -0.6272  1.7778  0.4363
 8591TIP3    H247265   0.661   3.853  16.686  0.0023  0.3271 -0.5302
 8592TIP3   OH247266   4.346   5.758   0.870 -0.7435  0.2557 -0.2713
 8592TIP3    H147267   4.415   5.720   0.925  0.8175 -0.5251 -2.7274
 8592TIP3    H247268   4.348   5.852   0.892  1.3848  0.3155 -0.5741
 8593TIP3   OH247269   1.560   4.646   5.917 -0.2647 -0.0625 -0.4521
 8593TIP3    H147270   1.470   4.649   5.887 -0.1637  1.1741 -0.6578
 8593TIP3    H247271   1.571   4.557   5.951 -1.4112 -0.3673 -0.8504
 8594TIP3   OH247272   5.443   6.548   3.515  0.1580  0.1742 -0.4576
 8594TIP3    H147273   5.507   6.477   3.509  1.8812  1.4119  2.2597
 8594TIP3    H247274   5.479   6.618   3.461  0.3148  0.3126 -0.1736
 8595TIP3   OH247275   1.996   3.979  12.353 -0.4859 -0.1265  0.1108
 8595TIP3    H147276   2.077   3.936  12.327 -0.5194 -1.6213  2.2949
 8595TIP3    H247277   2.008   4.071  12.330  0.2371 -0.9624 -3.1855
 8596TIP3   OH247278   5.005   3.276   0.277  0.2971 -0.0786  0.2663
 8596TIP3    H147279   4.918   3.304   0.304 -0.2556 -1.3609 -0.1712
 8596TIP3    H247280   5.065   3.329   0.331 -0.7529 -1.9995  3.4667
 8597TIP3   OH247281   6.210   0.056   7.010 -0.2140 -0.8018 -0.0597
 8597TIP3    H147282   6.131   0.051   7.064 -0.2135  0.4194  0.0745
 8597TIP3    H247283   6.279   0.020   7.065  0.0445  1.6467  1.3048
 8598TIP3   OH247284   6.497   3.642   6.441 -0.2539 -0.9198 -0.3645
 8598TIP3    H147285   6.431   3.572   6.450 -0.4580 -0.5816  0.9675
 8598TIP3    H247286   6.580   3.599   6.465 -0.5382 -0.4599  1.5458
 8599TIP3   OH247287   4.927   4.283  12.134  0.2319 -0.3586 -0.2692
 8599TIP3    H147288   4.868   4.224  12.087  1.6056 -0.1499 -2.3201
 8599TIP3    H247289   4.868   4.344  12.179 -1.1537 -1.1394 -0.9654
 8600TIP3   OH247290   4.766   4.864   0.247 -0.7290  0.5851 -0.5407
 8600TIP3    H147291   4.838   4.854   0.309 -0.8781  1.3393 -0.2328
 8600TIP3    H247292   4.773   4.955   0.218 -2.3695  1.0619  0.5076
 8601TIP3   OH247293   4.990   1.431   4.125 -0.0603 -0.2752  0.6209
 8601TIP3    H147294   4.972   1.512   4.173  0.1597 -0.7342  1.4731
 8601TIP3    H247295   5.081   1.441   4.095  0.2670 -0.5897  1.4921
 8602TIP3   OH247296   2.434   4.590  15.164  0.3329  0.3212  0.2168
 8602TIP3    H147297   2.410   4.678  15.136 -1.2229  0.6480  2.3870
 8602TIP3    H247298   2.526   4.598  15.190  0.1545  1.3909  0.5795
 8603TIP3   OH247299   2.730   3.541  15.888 -0.1296  0.1261 -0.2817
 8603TIP3    H147300   2.806   3.491  15.859 -0.7384 -0.0995 -1.5259
 8603TIP3    H247301   2.667   3.533  15.816 -1.5748 -0.2185  0.9818
 8604TIP3   OH247302   2.638   1.174  13.162 -0.1352 -0.2083 -0.4617
 8604TIP3    H147303   2.612   1.150  13.073 -0.5928  1.8470 -0.9105
 8604TIP3    H247304   2.728   1.204  13.153  0.2492 -1.2057 -0.0005
 8605TIP3   OH247305   4.948   0.531   5.886 -0.1594  0.1117  0.3755
 8605TIP3    H147306   4.927   0.491   5.802 -0.1858 -0.2796  0.5683
 8605TIP3    H247307   4.863   0.543   5.929 -0.4414  3.1290 -0.9179
 8606TIP3   OH247308   4.587   5.934  11.336  0.3883  0.2293 -0.2094
 8606TIP3    H147309   4.516   5.991  11.309 -0.3009 -0.5254 -0.0201
 8606TIP3    H247310   4.658   5.951  11.274 -0.1037  0.6874 -0.6426
 8607TIP3   OH247311   1.100   0.932  13.435 -0.1350 -0.6792 -0.1723
 8607TIP3    H147312   1.140   0.951  13.520 -0.3419  2.2432 -0.6854
 8607TIP3    H247313   1.166   0.955  13.371 -1.6982  1.9153 -0.9374
 8608TIP3   OH247314   6.820   4.598   3.507  0.3140 -0.0448 -0.2729
 8608TIP3    H147315   6.795   4.560   3.422  0.0403 -0.8970  0.1844
 8608TIP3    H247316   6.908   4.633   3.492  0.5273 -0.7556 -0.7383
 8609TIP3   OH247317   4.632   5.193   2.023  0.0573 -0.2385  0.2379
 8609TIP3    H147318   4.628   5.141   1.942  0.4224  0.6128 -0.3444
 8609TIP3    H247319   4.689   5.143   2.081 -0.7285 -1.1792  0.2049
 8610TIP3   OH247320   5.651   3.365   4.476  0.1003 -0.1969  0.4925
 8610TIP3    H147321   5.670   3.441   4.421  0.2764 -0.8391 -0.3595
 8610TIP3    H247322   5.708   3.296   4.440  0.2647 -0.6073  1.5284
 8611TIP3   OH247323   2.507   6.605   1.368  0.0930 -0.6501 -0.0567
 8611TIP3    H147324   2.479   6.682   1.318 -0.0441  1.0289  2.4660
 8611TIP3    H247325   2.593   6.584   1.333  0.8523  1.7018  0.2676
 8612TIP3   OH247326   1.090   3.606  12.542 -0.4892  0.1294 -0.4062
 8612TIP3    H147327   1.066   3.535  12.483  0.4882 -1.2641  0.8346
 8612TIP3    H247328   1.184   3.619  12.528 -0.5685  0.8664 -0.2831
 8613TIP3   OH247329   3.666   4.834   3.270  0.2295 -0.6730  0.0372
 8613TIP3    H147330   3.722   4.817   3.345  0.4162  3.4875  0.9036
 8613TIP3    H247331   3.725   4.865   3.201 -0.6342  1.1277  0.0845
 8614TIP3   OH247332   4.430   2.343  16.277 -0.5411  0.1763 -0.3531
 8614TIP3    H147333   4.485   2.269  16.301  1.8224  0.9295 -3.0514
 8614TIP3    H247334   4.371   2.309  16.210 -1.8299 -0.0907  0.9129
 8615TIP3   OH247335   6.005   6.384   4.389 -0.7814 -0.1328 -0.3805
 8615TIP3    H147336   6.100   6.378   4.383 -0.7664  0.4910 -0.9610
 8615TIP3    H247337   5.972   6.316   4.330 -0.6857 -0.1708 -0.3889
 8616TIP3   OH247338   1.155   2.320  11.231  0.5693 -0.4052 -0.4221
 8616TIP3    H147339   1.178   2.269  11.153 -0.9862 -0.3759 -0.9280
 8616TIP3    H247340   1.127   2.404  11.196  1.0833  0.0504  0.2648
 8617TIP3   OH247341   0.732   0.465   0.191  0.1409  0.0629 -0.3318
 8617TIP3    H147342   0.677   0.457   0.113 -0.1861  1.0796 -0.2198
 8617TIP3    H247343   0.813   0.505   0.160  0.6027 -0.9215 -0.4017
 8618TIP3   OH247344   4.810   2.102  12.365 -0.1796 -0.5126 -0.0102
 8618TIP3    H147345   4.746   2.155  12.317 -1.7104 -2.7525 -0.5219
 8618TIP3    H247346   4.895   2.129  12.330 -0.7916  2.3690  0.5355
 8619TIP3   OH247347   1.813   4.828   0.899 -0.1919 -0.0068  0.3705
 8619TIP3    H147348   1.789   4.739   0.924  0.1762 -0.0238  0.6814
 8619TIP3    H247349   1.735   4.864   0.859 -0.3790 -0.4328  0.3506
 8620TIP3   OH247350   5.574   2.128  13.653 -0.4788 -0.0082  0.4624
 8620TIP3    H147351   5.582   2.200  13.715  0.2258 -0.1104  0.4968
 8620TIP3    H247352   5.620   2.159  13.574 -1.2087  0.0504  0.0603
 8621TIP3   OH247353   1.010   1.902  16.381  0.0338  0.4362 -0.3839
 8621TIP3    H147354   1.059   1.830  16.342  0.8105  0.7954 -0.0869
 8621TIP3    H247355   1.066   1.978  16.370 -2.1460  1.6913 -3.6304
 8622TIP3   OH247356   3.102   6.189  17.152 -0.2354 -0.2342 -0.4439
 8622TIP3    H147357   3.174   6.242  17.187  0.5325 -1.3490 -0.3288
 8622TIP3    H247358   3.102   6.209  17.058  2.1367 -2.4254 -0.9708
 8623TIP3   OH247359   4.751   4.839  14.802  0.2116 -0.0197 -0.0892
 8623TIP3    H147360   4.761   4.924  14.845 -0.5669  0.3316 -0.5968
 8623TIP3    H247361   4.688   4.855  14.732  2.6557 -0.1974 -2.4187
 8624TIP3   OH247362   5.942   6.150  14.837  0.0992  0.1797  0.2340
 8624TIP3    H147363   6.030   6.113  14.841 -0.1727 -0.5705 -0.4948
 8624TIP3    H247364   5.941   6.200  14.755  0.1581  1.0087  0.7357
 8625TIP3   OH247365   5.577   6.382   1.186  0.2830  0.1017 -0.7495
 8625TIP3    H147366   5.615   6.463   1.153 -1.5390  0.4518 -2.0493
 8625TIP3    H247367   5.515   6.409   1.253  0.5188 -0.3143 -0.3543
 8626TIP3   OH247368   0.920   5.770   2.597  0.0604 -0.0714  0.0057
 8626TIP3    H147369   1.001   5.732   2.632 -0.7800 -0.2162  1.7851
 8626TIP3    H247370   0.946   5.856   2.566  1.1016 -0.4844 -0.2947
 8627TIP3   OH247371   1.369   0.408  14.754  0.3450 -0.2875 -0.3714
 8627TIP3    H147372   1.301   0.374  14.812 -1.3686 -1.4604 -2.9830
 8627TIP3    H247373   1.449   0.364  14.783 -0.0274  0.7515  2.4176
 8628TIP3   OH247374   4.966   3.879  11.879  0.5939 -0.9469  0.2049
 8628TIP3    H147375   5.022   3.956  11.887  0.9201 -1.0795 -0.7524
 8628TIP3    H247376   4.891   3.909  11.827  0.9654 -1.3987 -0.6024
 8629TIP3   OH247377   5.386   2.812  15.280 -0.0262  0.2053 -0.7156
 8629TIP3    H147378   5.482   2.818  15.280 -0.0181  0.6616  1.8078
 8629TIP3    H247379   5.357   2.896  15.315 -1.3126 -0.3102 -0.5372
 8630TIP3   OH247380   2.041   1.226   6.157  0.1956  0.0700  0.0917
 8630TIP3    H147381   2.125   1.271   6.164  1.7565 -2.7700  0.5386
 8630TIP3    H247382   2.025   1.191   6.244 -0.0796 -1.6993 -0.6498
 8631TIP3   OH247383   3.891   6.797  17.127  0.1360 -0.2447 -0.3681
 8631TIP3    H147384   3.976   6.755  17.123 -0.0349 -0.3631 -3.5628
 8631TIP3    H247385   3.910   6.891  17.120  0.0615 -0.1791  0.2272
 8632TIP3   OH247386   5.296   5.585  12.415 -0.4389 -0.2281 -0.6300
 8632TIP3    H147387   5.387   5.582  12.385 -0.1745 -0.5058  0.1988
 8632TIP3    H247388   5.286   5.508  12.472  0.2515  2.4575  3.3311
 8633TIP3   OH247389   4.259   1.290  15.177 -0.6188 -0.0323  0.1512
 8633TIP3    H147390   4.351   1.317  15.168 -0.1112 -1.8383 -0.2280
 8633TIP3    H247391   4.263   1.205  15.221 -2.2132  0.5977  1.5988
 8634TIP3   OH247392   3.660   1.013   3.422 -0.0719  0.1618 -0.4447
 8634TIP3    H147393   3.639   1.106   3.417  2.1770  0.8184  1.5862
 8634TIP3    H247394   3.709   0.995   3.342 -1.4610  0.4252 -1.3797
 8635TIP3   OH247395   5.133   3.923   3.087  0.3179  0.6079 -0.0677
 8635TIP3    H147396   5.084   3.994   3.128 -0.5026 -0.7564  1.3963
 8635TIP3    H247397   5.095   3.915   3.000 -1.2594  0.3629  0.6277
 8636TIP3   OH247398   5.494   3.838   1.674  0.0376 -0.1382  0.2944
 8636TIP3    H147399   5.558   3.808   1.739 -0.6094  0.7726  1.3804
 8636TIP3    H247400   5.478   3.930   1.697 -0.4777  0.0940 -0.9356
 8637TIP3   OH247401   0.895   3.819  13.391 -0.0877  0.0079  0.0052
 8637TIP3    H147402   0.842   3.853  13.318 -0.8360  1.5146  1.2407
 8637TIP3    H247403   0.859   3.732  13.408 -1.7485  0.7606  0.3944
 8638TIP3   OH247404   3.661   5.477   5.462 -0.5281  0.4006 -0.0057
 8638TIP3    H147405   3.589   5.465   5.400 -0.3138  0.2238 -0.2219
 8638TIP3    H247406   3.687   5.389   5.488 -0.1076  0.4469 -0.2579
 8639TIP3   OH247407   3.970   2.417  14.174 -0.3712  0.2224  0.4650
 8639TIP3    H147408   3.920   2.498  14.166 -0.3631 -0.0967 -3.2442
 8639TIP3    H247409   4.006   2.421  14.263 -1.0760  3.8554  0.6718
 8640TIP3   OH247410   1.854   3.851   0.630 -0.6198 -1.1522  0.1552
 8640TIP3    H147411   1.845   3.790   0.557 -0.4127 -0.0818 -0.7741
 8640TIP3    H247412   1.851   3.795   0.708  1.2289 -2.5278 -0.7225
 8641TIP3   OH247413   1.725   4.697   1.873 -0.6059 -0.2777 -0.1196
 8641TIP3    H147414   1.715   4.773   1.816 -3.6503 -0.4409  0.1245
 8641TIP3    H247415   1.673   4.628   1.832 -0.0040 -1.4389  1.0243
 8642TIP3   OH247416   4.075   2.722   4.259  0.4310 -0.7705 -0.0345
 8642TIP3    H147417   3.981   2.741   4.261  0.2383 -1.3672 -2.2957
 8642TIP3    H247418   4.081   2.629   4.236  1.5782 -0.4373 -1.1741
 8643TIP3   OH247419   4.151   0.744  16.667 -0.2246 -0.0049 -0.0482
 8643TIP3    H147420   4.192   0.675  16.616 -0.8261  0.2193 -0.8405
 8643TIP3    H247421   4.106   0.698  16.738  0.9847 -0.2808  0.5412
 8644TIP3   OH247422   6.812   5.416  16.354 -0.2522 -0.0245 -0.2536
 8644TIP3    H147423   6.905   5.414  16.373  0.0221 -0.4774 -1.6034
 8644TIP3    H247424   6.772   5.450  16.434  1.2405  2.0127 -0.3479
 8645TIP3   OH247425   2.029   2.201  16.457 -0.0857  0.2039 -0.5628
 8645TIP3    H147426   1.972   2.187  16.382 -0.7745 -2.9497  0.4633
 8645TIP3    H247427   2.116   2.214  16.419 -0.3799 -1.5962 -1.9458
 8646TIP3   OH247428   6.513   4.374  14.829 -0.2440  0.4471 -0.4776
 8646TIP3    H147429   6.531   4.467  14.813  2.2490  0.7112  3.3348
 8646TIP3    H247430   6.433   4.374  14.882  0.4571  0.5038  0.5871
 8647TIP3   OH247431   5.942   5.896   2.706 -0.0540  0.2345 -0.2739
 8647TIP3    H147432   5.969   5.808   2.678 -0.0235 -0.0084  0.4862
 8647TIP3    H247433   5.981   5.955   2.641  1.8512 -0.1539  0.4668
 8648TIP3   OH247434   3.645   6.623   5.499  0.4694 -0.2394 -0.0258
 8648TIP3    H147435   3.637   6.680   5.422 -0.3479  1.4584  1.2955
 8648TIP3    H247436   3.561   6.631   5.543  1.0308 -1.0139  1.1944
 8649TIP3   OH247437   0.556   5.622  11.071  0.0067 -0.0162  0.4252
 8649TIP3    H147438   0.638   5.669  11.082  2.3362 -3.6825 -0.4743
 8649TIP3    H247439   0.553   5.599  10.978 -2.3767  0.6344  0.2979
 8650TIP3   OH247440   1.536   0.282  16.419 -0.3421  0.4661  0.5582
 8650TIP3    H147441   1.497   0.199  16.391  1.2548 -0.1595  0.1171
 8650TIP3    H247442   1.617   0.257  16.464 -0.7551  1.6991  2.0214
 8651TIP3   OH247443   4.763   1.880   0.504  0.0392  0.9233 -0.1813
 8651TIP3    H147444   4.710   1.958   0.522  0.0837  1.1989 -1.2539
 8651TIP3    H247445   4.722   1.840   0.427 -0.4288 -0.5221  0.7848
 8652TIP3   OH247446   6.053   2.709   6.152 -0.0553  0.0911 -0.4310
 8652TIP3    H147447   5.971   2.660   6.153 -1.9597  3.1464 -0.5205
 8652TIP3    H247448   6.079   2.714   6.244 -0.6536  0.1978 -0.2692
 8653TIP3   OH247449   6.805   6.533  10.758 -0.3277 -0.5503 -0.0018
 8653TIP3    H147450   6.816   6.438  10.757  0.0431 -0.5047 -0.7421
 8653TIP3    H247451   6.882   6.566  10.805 -0.4445 -0.6105  0.2347
 8654TIP3   OH247452   3.883   3.593  11.129  0.7932  0.3319  0.1170
 8654TIP3    H147453   3.821   3.581  11.057 -0.0453 -1.5877  1.1329
 8654TIP3    H247454   3.913   3.683  11.119 -0.0606  0.4171 -2.0441
 8655TIP3   OH247455   3.557   2.319  13.697 -0.0860  0.0719  0.3309
 8655TIP3    H147456   3.563   2.304  13.602 -1.0287  1.6745  0.0047
 8655TIP3    H247457   3.496   2.252  13.728 -0.2838 -0.0445 -0.3018
 8656TIP3   OH247458   2.419   5.770  13.033 -0.8644 -0.0064 -0.5508
 8656TIP3    H147459   2.359   5.835  13.070 -1.7614 -1.1546  0.0139
 8656TIP3    H247460   2.385   5.686  13.063 -0.3234 -0.8181 -2.1824
 8657TIP3   OH247461   4.893   6.815   2.530 -0.2115  0.4792  0.3523
 8657TIP3    H147462   4.836   6.739   2.531  0.2897  0.0970  0.2944
 8657TIP3    H247463   4.837   6.888   2.556 -0.6088  0.0300  0.7679
 8658TIP3   OH247464   3.730   6.613   4.586  0.1190 -0.3769 -0.6046
 8658TIP3    H147465   3.825   6.600   4.583 -0.0701 -1.6779 -3.1203
 8658TIP3    H247466   3.695   6.524   4.587 -1.0819  0.1060  1.0432
 8659TIP3   OH247467   6.651   6.541   5.361 -0.9077 -0.2108 -0.4132
 8659TIP3    H147468   6.577   6.601   5.362 -0.2108  0.6741 -1.1132
 8659TIP3    H247469   6.617   6.463   5.317 -1.1582  0.5688 -1.6377
 8660TIP3   OH247470   6.532   5.337  17.133 -0.1631 -0.4974 -0.7389
 8660TIP3    H147471   6.517   5.405  17.199  1.4987 -3.1877  2.6017
 8660TIP3    H247472   6.616   5.359  17.094  0.4657 -0.6853  0.4758
 8661TIP3   OH247473   0.698   0.330   1.929  0.2785 -0.1282  0.2325
 8661TIP3    H147474   0.763   0.392   1.895 -0.6136  0.3625 -0.6142
 8661TIP3    H247475   0.615   0.363   1.896 -0.2414 -1.6015  0.0350
 8662TIP3   OH247476   4.532   4.256   0.842 -0.2548  0.1785 -0.0360
 8662TIP3    H147477   4.542   4.341   0.885  0.4451  0.0836 -0.0141
 8662TIP3    H247478   4.512   4.195   0.912  0.1275  0.1632  0.0606
 8663TIP3   OH247479   6.394   5.551   5.453 -0.2767 -0.4296  0.0484
 8663TIP3    H147480   6.395   5.456   5.439  1.0657 -0.4760  0.4324
 8663TIP3    H247481   6.409   5.562   5.546  1.5076  0.2173 -0.3024
 8664TIP3   OH247482   4.679   4.762  16.047  0.1542 -0.1052 -0.1889
 8664TIP3    H147483   4.688   4.668  16.060 -2.1585 -0.4749 -1.0678
 8664TIP3    H247484   4.626   4.771  15.968  1.7056  1.9584 -1.0546
 8665TIP3   OH247485   0.625   5.999  12.150 -0.3527  0.1562 -0.7425
 8665TIP3    H147486   0.703   6.013  12.204  0.6691  0.1345 -2.1830
 8665TIP3    H247487   0.572   5.936  12.199  0.8401 -0.3282 -0.0700
 8666TIP3   OH247488   5.118   1.592  14.849 -0.1059  0.2321  0.0411
 8666TIP3    H147489   5.075   1.542  14.919  1.3702  0.0588  0.8658
 8666TIP3    H247490   5.047   1.637  14.804 -1.1974 -0.5042  0.9866
 8667TIP3   OH247491   0.596   0.790   2.518  0.1678 -0.0887 -0.4969
 8667TIP3    H147492   0.618   0.760   2.430  2.0990  1.1171 -0.4691
 8667TIP3    H247493   0.636   0.725   2.576  0.2270 -0.0456 -0.4896
 8668TIP3   OH247494   5.788   1.610  16.978  0.0466 -0.0129 -0.1890
 8668TIP3    H147495   5.831   1.690  17.007 -0.3905  0.1530  0.0103
 8668TIP3    H247496   5.698   1.618  17.010 -0.3295 -0.0328 -1.2060
 8669TIP3   OH247497   4.652   2.829   1.208  0.0660 -0.2117  0.4254
 8669TIP3    H147498   4.614   2.822   1.120 -1.5023 -1.4213  1.1774
 8669TIP3    H247499   4.624   2.915   1.240  1.4508  0.6511 -0.6051
 8670TIP3   OH247500   4.201   4.088   2.618  0.2499  0.0687  0.5572
 8670TIP3    H147501   4.160   4.111   2.535  0.4859 -0.1330  0.3850
 8670TIP3    H247502   4.133   4.042   2.666 -0.1129  0.8161  0.7616
 8671TIP3   OH247503   4.600   4.573   0.319  0.3462 -0.0367  0.5158
 8671TIP3    H147504   4.548   4.552   0.397 -1.7459  0.4698 -0.7168
 8671TIP3    H247505   4.592   4.668   0.309  3.3477  0.3830  1.5500
 8672TIP3   OH247506   6.315   4.471   1.556 -0.0830  0.3651  0.2243
 8672TIP3    H147507   6.301   4.556   1.596 -0.7264 -0.1989  1.1960
 8672TIP3    H247508   6.292   4.484   1.464  0.2960  1.3620  0.2635
 8673TIP3   OH247509   3.551   5.056  17.284 -0.4072  0.2589 -0.3882
 8673TIP3    H147510   3.514   5.144  17.274 -0.4513  0.1806 -0.9520
 8673TIP3    H247511   3.638   5.062  17.245 -0.5154 -0.0139 -0.6807
 8674TIP3   OH247512   3.365   1.801   5.337  0.3912  0.3737  0.0701
 8674TIP3    H147513   3.393   1.832   5.250 -0.2249 -0.1007 -0.3015
 8674TIP3    H247514   3.271   1.784   5.327  0.6766 -1.4298  0.3140
 8675TIP3   OH247515   3.791   5.503  11.525 -0.2679  0.6079  0.2190
 8675TIP3    H147516   3.767   5.418  11.563  0.3042 -0.1928 -1.1522
 8675TIP3    H247517   3.733   5.513  11.450  0.9297  0.5266 -0.7414
 8676TIP3   OH247518   1.877   4.205   4.733 -0.0673  0.1049 -0.1416
 8676TIP3    H147519   1.910   4.115   4.722 -1.2918 -0.2997 -0.5862
 8676TIP3    H247520   1.864   4.236   4.643 -0.7101  0.3253  0.0303
 8677TIP3   OH247521   4.774   2.624   0.948  0.2879 -0.7036  0.2270
 8677TIP3    H147522   4.709   2.592   0.886 -0.4157 -1.7556  1.4946
 8677TIP3    H247523   4.723   2.670   1.015  1.0835  0.9245 -0.2535
 8678TIP3   OH247524   0.771   2.447  16.254  0.0329  0.3087  0.5037
 8678TIP3    H147525   0.801   2.435  16.344 -0.8387 -0.9907  0.6364
 8678TIP3    H247526   0.700   2.512  16.261  0.2151  0.4878  0.7011
 8679TIP3   OH247527   6.443   1.732   4.931 -0.4428  0.1410 -0.8552
 8679TIP3    H147528   6.390   1.758   5.006  0.6134  1.2163 -0.4571
 8679TIP3    H247529   6.387   1.747   4.855 -1.0324  0.3840 -0.3750
 8680TIP3   OH247530   3.511   0.650  16.496 -0.0483  0.0706 -0.4086
 8680TIP3    H147531   3.599   0.684  16.512 -0.4959  1.0577  0.0052
 8680TIP3    H247532   3.462   0.671  16.576 -0.3988 -1.3478 -0.2350
 8681TIP3   OH247533   4.047   4.325  17.226 -0.4686  0.1310 -0.2656
 8681TIP3    H147534   4.046   4.368  17.312 -0.4516 -1.0299  0.3295
 8681TIP3    H247535   4.135   4.342  17.192 -1.0898  2.2307 -0.9151
 8682TIP3   OH247536   0.800   1.893  16.917  0.7496 -0.0383 -0.1731
 8682TIP3    H147537   0.766   1.912  17.004  0.9035  1.8432 -0.4797
 8682TIP3    H247538   0.774   1.969  16.864  2.6630 -0.0376 -1.1774
 8683TIP3   OH247539   5.238   6.411   1.741 -0.3339 -0.1248 -0.3509
 8683TIP3    H147540   5.238   6.499   1.780 -0.4952 -0.2295 -0.1111
 8683TIP3    H247541   5.147   6.397   1.715 -0.1157  0.1729 -1.2954
 8684TIP3   OH247542   1.830   5.967   3.224  0.3959 -0.2570 -0.2794
 8684TIP3    H147543   1.861   6.046   3.269  0.9386 -0.7918  0.3060
 8684TIP3    H247544   1.825   5.992   3.132 -1.6060  1.1408  0.1630
 8685TIP3   OH247545   4.363   5.880   1.909 -0.1329 -0.4301  0.0479
 8685TIP3    H147546   4.296   5.812   1.920 -2.9118  1.4235 -4.1711
 8685TIP3    H247547   4.374   5.888   1.814  3.3550  1.9947  0.5529
 8686TIP3   OH247548   6.081   4.603  14.995 -0.2611  0.0688  0.0234
 8686TIP3    H147549   6.134   4.591  14.916 -1.4928  0.6701 -0.9074
 8686TIP3    H247550   5.991   4.604  14.963 -0.7360  0.8532  1.3732
 8687TIP3   OH247551   4.646   6.296  13.355 -0.1620 -0.4445 -0.0685
 8687TIP3    H147552   4.687   6.209  13.345  3.2834  0.9380  1.3516
 8687TIP3    H247553   4.580   6.283  13.423  1.0562 -1.7396  0.9138
 8688TIP3   OH247554   5.246   2.685   3.570  0.0093 -0.4850 -0.7410
 8688TIP3    H147555   5.328   2.730   3.588  0.1587 -0.1414 -2.2034
 8688TIP3    H247556   5.263   2.634   3.491 -1.4390  0.2966 -1.5834
 8689TIP3   OH247557   4.808   1.601  12.789  0.1761  0.1322  0.1353
 8689TIP3    H147558   4.876   1.620  12.724  0.0736  0.2329  0.0559
 8689TIP3    H247559   4.802   1.680  12.842 -1.0085  0.7337 -0.8777
 8690TIP3   OH247560   4.435   4.811  15.404 -0.3765  0.2569  0.6135
 8690TIP3    H147561   4.374   4.882  15.386 -0.3595  0.8553  2.8037
 8690TIP3    H247562   4.517   4.854  15.426 -0.3915 -0.4172  2.0499
 8691TIP3   OH247563   6.045   5.410  15.084 -0.0114  0.0143  0.9552
 8691TIP3    H147564   6.087   5.325  15.067 -1.5394 -0.2214 -2.1438
 8691TIP3    H247565   5.989   5.394  15.160 -1.9602 -2.4718 -0.8975
 8692TIP3   OH247566   1.568   0.152   3.708 -0.3508  0.4171  0.0092
 8692TIP3    H147567   1.481   0.117   3.686  0.8831 -2.6945 -0.1610
 8692TIP3    H247568   1.589   0.210   3.634 -1.9025  0.5553 -0.3622
 8693TIP3   OH247569   1.865   6.167  12.320  0.3414  0.1466  0.3750
 8693TIP3    H147570   1.843   6.251  12.359 -0.9941 -0.0531  0.0918
 8693TIP3    H247571   1.859   6.182  12.225 -0.2567 -0.3435  0.3287
 8694TIP3   OH247572   6.228   4.830   0.894 -0.3046  0.4673  0.5871
 8694TIP3    H147573   6.187   4.916   0.885 -0.9234  0.2442  1.3086
 8694TIP3    H247574   6.208   4.787   0.811 -0.2002  0.9269  0.3174
 8695TIP3   OH247575   3.819   2.175   0.796 -0.4844  0.6860 -0.0557
 8695TIP3    H147576   3.901   2.207   0.758 -0.3450  0.4953  0.0759
 8695TIP3    H247577   3.758   2.171   0.723 -0.3050  0.6049 -0.2010
 8696TIP3   OH247578   5.933   2.658   3.232  0.1416 -0.4486 -0.3924
 8696TIP3    H147579   5.957   2.746   3.261 -0.4132  0.2290 -1.9013
 8696TIP3    H247580   5.850   2.670   3.185  0.3529 -1.6804 -1.1188
 8697TIP3   OH247581   0.362   1.184   4.577 -0.3258  0.0985  0.3409
 8697TIP3    H147582   0.315   1.215   4.654  0.9049  2.4573  0.2073
 8697TIP3    H247583   0.329   1.238   4.505  0.9531  0.2730 -0.1408
 8698TIP3   OH247584   3.981   4.240  11.413 -0.6732  0.0340 -0.3830
 8698TIP3    H147585   3.979   4.312  11.476 -0.3561  0.4659 -0.8576
 8698TIP3    H247586   3.914   4.263  11.348 -2.0170 -1.1299  0.5601
 8699TIP3   OH247587   1.147   2.782  13.789  0.1271 -0.3834  0.2727
 8699TIP3    H147588   1.221   2.742  13.834  1.1382  1.1556  0.0167
 8699TIP3    H247589   1.150   2.747  13.700  0.1034 -0.8715  0.4615
 8700TIP3   OH247590   5.630   1.955  14.160  0.1412  0.3214 -0.0040
 8700TIP3    H147591   5.607   1.931  14.249  1.9491 -0.2205  0.3373
 8700TIP3    H247592   5.691   1.888  14.131  0.5754  1.1931 -1.1896
 8701TIP3   OH247593   0.043   6.732  11.432 -0.6288 -0.4676  0.1332
 8701TIP3    H147594   0.023   6.720  11.525 -1.8878  3.1124  0.4239
 8701TIP3    H247595   0.118   6.791  11.432 -1.4633  0.6261 -1.1067
 8702TIP3   OH247596   2.404   5.817   0.948 -0.2571  0.7267 -0.3682
 8702TIP3    H147597   2.497   5.802   0.932 -0.6307  0.1872 -2.3048
 8702TIP3    H247598   2.397   5.910   0.969  0.8015  0.6156  0.4785
 8703TIP3   OH247599   5.054   3.205  13.883 -0.2294 -0.4580 -0.2305
 8703TIP3    H147600   5.145   3.182  13.902 -0.3712  0.8587  2.1822
 8703TIP3    H247601   5.009   3.121  13.876  0.6942 -1.0790  1.0712
 8704TIP3   OH247602   4.963   3.827   1.097 -0.1455 -0.3395  0.5013
 8704TIP3    H147603   5.048   3.783   1.095  0.0263  0.0159 -0.2341
 8704TIP3    H247604   4.903   3.765   1.055 -0.4606 -1.0039  1.8872
 8705TIP3   OH247605   4.626   5.157   6.219  0.4967  0.3465 -0.1085
 8705TIP3    H147606   4.586   5.100   6.154  0.3882 -1.5145  1.5505
 8705TIP3    H247607   4.583   5.242   6.206 -1.9347 -0.8641 -0.2837
 8706TIP3   OH247608   2.430   2.573  14.710 -0.5030 -0.4935  0.4119
 8706TIP3    H147609   2.418   2.480  14.693 -0.3626 -0.5050  0.3774
 8706TIP3    H247610   2.348   2.613  14.680  0.7713 -0.1758 -2.8755
 8707TIP3   OH247611   3.672   6.596  12.813  0.1743  0.4705  0.2425
 8707TIP3    H147612   3.588   6.587  12.766  0.8531 -0.6729 -0.8054
 8707TIP3    H247613   3.651   6.576  12.904 -0.5703 -0.5894 -0.1448
 8708TIP3   OH247614   2.784   3.686  16.750 -0.2114  1.0098 -0.4063
 8708TIP3    H147615   2.714   3.638  16.795  0.9422  0.1586  0.4972
 8708TIP3    H247616   2.764   3.778  16.765 -0.2999  0.7426  1.1232
 8709TIP3   OH247617   2.411   4.934   3.355  0.3463  0.2637 -0.0057
 8709TIP3    H147618   2.478   4.875   3.320  0.0503  0.5702 -1.0855
 8709TIP3    H247619   2.331   4.882   3.358 -0.1788  0.9061 -2.0018
 8710TIP3   OH247620   5.447   3.707  11.351  0.1854 -0.3880 -0.3095
 8710TIP3    H147621   5.538   3.702  11.320  0.7063  0.9601  0.9220
 8710TIP3    H247622   5.421   3.616  11.363  1.3562 -0.7930 -0.7302
 8711TIP3   OH247623   6.767   3.032  14.639 -0.1204  0.0460 -0.1168
 8711TIP3    H147624   6.743   3.119  14.607  1.3297 -0.3704 -2.5231
 8711TIP3    H247625   6.708   2.972  14.593  0.6332 -0.4138 -0.5067
 8712TIP3   OH247626   4.967   5.562   4.030  0.3587  0.0830  0.1789
 8712TIP3    H147627   5.044   5.616   4.046  0.0604  0.5407  0.1107
 8712TIP3    H247628   4.932   5.543   4.117 -0.4866  1.4200  0.1558
 8713TIP3   OH247629   3.595   5.751  11.368 -0.3633 -0.3076  0.2985
 8713TIP3    H147630   3.597   5.804  11.448 -0.5698 -0.0119  0.1101
 8713TIP3    H247631   3.542   5.803  11.307 -1.3566 -1.1544  0.4205
 8714TIP3   OH247632   5.180   2.775   0.941 -0.1942  0.2783  0.0614
 8714TIP3    H147633   5.131   2.856   0.930 -1.2503 -0.4282 -0.4825
 8714TIP3    H247634   5.203   2.773   1.034  0.8996  1.7933 -0.1540
 8715TIP3   OH247635   0.896   3.683  16.074 -0.6709  0.3589 -0.2250
 8715TIP3    H147636   0.876   3.772  16.105  1.3940  0.2207  1.6510
 8715TIP3    H247637   0.941   3.696  15.991 -0.9668  1.0536 -0.2800
 8716TIP3   OH247638   0.907   6.764   4.622 -0.1193 -0.0659 -0.0128
 8716TIP3    H147639   0.865   6.739   4.540  0.3378 -0.2759 -0.1888
 8716TIP3    H247640   0.948   6.849   4.604 -0.3462  0.0723  0.1165
 8717TIP3   OH247641   3.605   0.952   2.291 -0.2824 -0.1511 -0.1383
 8717TIP3    H147642   3.677   1.004   2.326 -0.4137  0.5762 -0.9394
 8717TIP3    H247643   3.619   0.864   2.328  1.3935 -0.1801 -0.8089
 8718TIP3   OH247644   5.466   2.162  11.716 -0.4733  0.3943 -0.0840
 8718TIP3    H147645   5.476   2.237  11.656 -3.4368  1.0388  0.1590
 8718TIP3    H247646   5.547   2.162  11.767  0.5063  2.1313 -1.5430
 8719TIP3   OH247647   3.284   3.391   1.156 -0.0366  0.2248  0.3346
 8719TIP3    H147648   3.329   3.394   1.071  0.6234 -0.7247  0.6337
 8719TIP3    H247649   3.349   3.421   1.219  0.1145 -0.9000  0.7379
 8720TIP3   OH247650   4.555   2.498  16.446  1.1022  0.1073  0.5701
 8720TIP3    H147651   4.494   2.468  16.379  0.6756  0.7541  0.6563
 8720TIP3    H247652   4.556   2.593  16.436  1.6465  0.1439  0.9545
 8721TIP3   OH247653   3.822   4.350  13.013  0.1805  0.3335 -0.2937
 8721TIP3    H147654   3.909   4.354  13.053 -0.2404  2.2107  0.5260
 8721TIP3    H247655   3.839   4.358  12.919  0.8437  1.9335 -0.0586
 8722TIP3   OH247656   5.922   2.528   1.486 -0.4503 -0.9758  0.4722
 8722TIP3    H147657   5.931   2.523   1.581 -3.9052 -0.1299  0.9165
 8722TIP3    H247658   5.960   2.613   1.463 -0.5732 -0.7107  1.2400
 8723TIP3   OH247659   2.918   3.647   1.467  0.3650  0.8040  0.4039
 8723TIP3    H147660   2.855   3.612   1.530  0.2338 -0.5947 -0.4821
 8723TIP3    H247661   2.991   3.678   1.520  0.1396 -0.1287  1.2632
 8724TIP3   OH247662   4.555   3.215  12.465 -0.5576  0.1792  0.3983
 8724TIP3    H147663   4.616   3.277  12.504  0.8565 -1.5109  0.9814
 8724TIP3    H247664   4.569   3.134  12.515 -1.6871 -0.8533 -0.9234
 8725TIP3   OH247665   5.406   0.380  12.157  0.3540 -0.6608  0.6289
 8725TIP3    H147666   5.449   0.457  12.195 -2.0292  1.2724 -0.3953
 8725TIP3    H247667   5.419   0.389  12.063 -1.5215 -0.4627  0.3555
 8726TIP3   OH247668   0.812   5.068  11.475  0.3181  0.1931  0.0362
 8726TIP3    H147669   0.764   4.985  11.479 -2.3050  1.7362  2.6126
 8726TIP3    H247670   0.756   5.125  11.423  1.2886  0.8315 -0.2969
 8727TIP3   OH247671   0.029   4.880  12.210 -0.2135  0.2618  0.3359
 8727TIP3    H147672   0.069   4.919  12.287 -2.2836 -1.6259  2.4583
 8727TIP3    H247673  -0.065   4.879  12.229 -0.5945 -1.9889 -1.3742
 8728TIP3   OH247674   1.096   5.598  12.445  0.2655  0.5095 -0.1326
 8728TIP3    H147675   1.165   5.543  12.407 -0.8430 -0.4878 -0.7322
 8728TIP3    H247676   1.039   5.536  12.491 -1.1454  1.1240 -1.0301
 8729TIP3   OH247677   6.719   5.151  11.623 -0.0063 -0.2997 -0.2800
 8729TIP3    H147678   6.642   5.102  11.594 -0.3780  0.0502  0.0884
 8729TIP3    H247679   6.722   5.227  11.565  0.9085 -1.0433 -1.2295
 8730TIP3   OH247680   6.357   1.819  11.155  0.2959  0.0678 -0.2577
 8730TIP3    H147681   6.305   1.896  11.130 -0.2312  0.2519  1.3232
 8730TIP3    H247682   6.409   1.849  11.230  0.8794 -0.8288 -0.2958
 8731TIP3   OH247683   4.977   1.021   4.478 -0.7654  0.1206 -0.5687
 8731TIP3    H147684   5.029   1.054   4.404 -0.1803  0.2270 -0.1124
 8731TIP3    H247685   5.028   0.947   4.511 -0.8331  0.3249 -0.0152
 8732TIP3   OH247686   5.763   4.655   1.167  0.4908 -0.1036 -0.5738
 8732TIP3    H147687   5.812   4.698   1.097  1.9886 -0.4992  0.1825
 8732TIP3    H247688   5.797   4.694   1.248  1.6045 -2.3586  0.1036
 8733TIP3   OH247689   0.901   5.654  15.187  0.7698  0.3053 -0.6353
 8733TIP3    H147690   0.979   5.647  15.242 -0.0519 -0.8768  0.4186
 8733TIP3    H247691   0.840   5.591  15.225  0.0645 -0.2902 -2.7193
 8734TIP3   OH247692   0.314   6.318   2.680  0.4120 -0.5223  0.3993
 8734TIP3    H147693   0.334   6.374   2.605  1.8349  0.1330  1.2344
 8734TIP3    H247694   0.220   6.325   2.691  0.3619  0.3985 -0.5503
 8735TIP3   OH247695   2.259   5.627   4.253 -0.7539 -0.3999  0.3499
 8735TIP3    H147696   2.295   5.626   4.342  0.6834 -0.1079 -0.2070
 8735TIP3    H247697   2.278   5.715   4.221 -2.5391 -0.0461  0.2555
 8736TIP3   OH247698   0.733   4.995   6.342  0.4422  0.1505 -0.6586
 8736TIP3    H147699   0.803   4.948   6.387 -0.1815  0.1579  0.3237
 8736TIP3    H247700   0.660   4.933   6.341 -0.2820  0.9893  0.3736
 8737TIP3   OH247701   2.954   2.523   5.208  0.5112 -0.2962 -0.2036
 8737TIP3    H147702   2.986   2.435   5.189 -0.1624 -0.6942  0.4729
 8737TIP3    H247703   2.963   2.532   5.302 -0.4068 -0.0457 -0.1318
 8738TIP3   OH247704   3.892   1.579  11.562  0.6029 -0.0943 -0.2316
 8738TIP3    H147705   3.867   1.587  11.655  0.2574 -1.5747 -0.1848
 8738TIP3    H247706   3.987   1.576  11.563  0.6099  0.1921  0.0495
 8739TIP3   OH247707   0.360   0.051  11.903  0.2146 -0.6586 -0.2861
 8739TIP3    H147708   0.444   0.048  11.947 -0.9741 -2.5748  1.9613
 8739TIP3    H247709   0.362  -0.023  11.842  0.7077  0.1863 -1.3062
 8740TIP3   OH247710   0.344   3.830  16.441 -0.2326 -0.2279 -0.7530
 8740TIP3    H147711   0.391   3.774  16.503 -1.7937 -0.4505  0.2658
 8740TIP3    H247712   0.252   3.813  16.459 -0.7509  2.6946 -0.4151
 8741TIP3   OH247713   0.363   5.118   4.841 -0.2877 -0.3167  0.1038
 8741TIP3    H147714   0.302   5.063   4.792 -2.1637  0.6432  1.2701
 8741TIP3    H247715   0.325   5.123   4.929  0.0538  2.4413  0.1471
 8742TIP3   OH247716   4.623   0.694   0.266  0.2175 -0.0648 -0.1015
 8742TIP3    H147717   4.715   0.712   0.287  0.0043 -0.9021  1.5985
 8742TIP3    H247718   4.614   0.599   0.277 -0.5718 -0.1526 -1.4125
 8743TIP3   OH247719   4.465   1.907  14.906 -0.0072 -0.2840 -0.4421
 8743TIP3    H147720   4.405   1.943  14.971 -0.2668 -0.1592 -0.7440
 8743TIP3    H247721   4.552   1.933  14.936 -0.1485  0.0313 -0.3051
 8744TIP3   OH247722   1.221   2.674  15.792  0.2973 -0.0597 -0.1969
 8744TIP3    H147723   1.276   2.690  15.715 -0.0644  0.8070 -0.2687
 8744TIP3    H247724   1.284   2.658  15.862  0.6510  1.0005 -0.2622
 8745TIP3   OH247725   1.236   0.495  12.511  0.3460 -0.1955  0.0534
 8745TIP3    H147726   1.273   0.490  12.422 -0.8641 -0.1211 -0.4577
 8745TIP3    H247727   1.205   0.407  12.529  0.5715 -0.2038  0.4040
 8746TIP3   OH247728   0.904   2.664   0.840  0.2087 -0.6813  0.1635
 8746TIP3    H147729   0.868   2.723   0.906 -0.7941  0.9865 -1.8108
 8746TIP3    H247730   0.828   2.615   0.808  0.9768 -2.8849  1.5500
 8747TIP3   OH247731   0.567   1.998   4.839 -0.1480 -0.4801 -0.0153
 8747TIP3    H147732   0.611   2.025   4.920 -0.5672  0.5218 -0.1246
 8747TIP3    H247733   0.567   1.902   4.843 -0.0830 -0.4377  1.1346
 8748TIP3   OH247734   1.853   0.720  16.102 -0.6126  0.5189 -0.4954
 8748TIP3    H147735   1.915   0.650  16.081  0.6364  0.9310  1.6426
 8748TIP3    H247736   1.864   0.784  16.031 -0.1127 -0.3777 -1.2402
 8749TIP3   OH247737   5.451   4.177  13.124 -0.0093  0.5152 -0.4583
 8749TIP3    H147738   5.545   4.162  13.117  0.0309  0.1314  0.7731
 8749TIP3    H247739   5.412   4.106  13.071  0.3625  0.0649 -0.1348
 8750TIP3   OH247740   6.133   1.210   3.361  0.4395 -0.0715  0.4870
 8750TIP3    H147741   6.061   1.268   3.337 -0.1699 -0.8236  0.5089
 8750TIP3    H247742   6.097   1.122   3.355  1.3467 -0.4521  0.5231
 8751TIP3   OH247743   0.434   0.132   0.560  0.6520 -0.3656  0.6034
 8751TIP3    H147744   0.368   0.129   0.629 -1.1492  0.7764 -1.0089
 8751TIP3    H247745   0.501   0.192   0.593 -1.1886  1.7709  0.5488
 8752TIP3   OH247746   5.928   2.147   5.858 -0.0651 -0.4533  0.1850
 8752TIP3    H147747   5.879   2.142   5.776 -0.8484  0.6624  0.5711
 8752TIP3    H247748   5.936   2.056   5.886 -2.4585 -0.6519  0.3964
 8753TIP3   OH247749   3.131   5.622  17.145  0.1380  0.1494  0.3055
 8753TIP3    H147750   3.077   5.699  17.128  0.8342  0.4935 -0.3319
 8753TIP3    H247751   3.221   5.652  17.137  0.4133 -0.9719 -1.0550
 8754TIP3   OH247752   2.680   5.953  13.285 -0.1090  0.0455 -0.1549
 8754TIP3    H147753   2.771   5.976  13.305 -0.2166 -0.8444  1.4215
 8754TIP3    H247754   2.655   6.013  13.214  2.1522 -0.6774 -1.5990
 8755TIP3   OH247755   2.598   2.346  16.509  0.3054 -0.7313 -0.0216
 8755TIP3    H147756   2.506   2.354  16.532  0.3448  1.8575 -0.6448
 8755TIP3    H247757   2.608   2.255  16.479 -1.7771 -1.3465  1.1198
 8756TIP3   OH247758   0.736   5.167   1.726  0.0030  0.5601  0.4810
 8756TIP3    H147759   0.646   5.168   1.758 -0.3731 -0.6864 -0.5142
 8756TIP3    H247760   0.730   5.132   1.637  1.4688  0.4988  0.3933
 8757TIP3   OH247761   5.005   0.083   5.893 -0.1246  0.8385 -0.2867
 8757TIP3    H147762   5.036   0.098   5.803 -0.3368 -0.0041 -0.5042
 8757TIP3    H247763   4.910   0.096   5.887 -0.2431 -0.0453 -0.3633
 8758TIP3   OH247764   5.316   2.798   0.171  0.1965 -0.2394 -0.6719
 8758TIP3    H147765   5.364   2.830   0.248 -2.4337 -0.1860  1.0191
 8758TIP3    H247766   5.258   2.871   0.147  0.1869 -0.6764 -2.0233
 8759TIP3   OH247767   2.374   4.025  12.736 -0.1849  0.0915 -0.3159
 8759TIP3    H147768   2.347   3.954  12.678  0.4196 -0.1437 -0.3173
 8759TIP3    H247769   2.469   4.015  12.744 -0.3523 -0.3475  1.3247
 8760TIP3   OH247770   4.971   1.085   2.000  0.1871 -0.8051  0.2414
 8760TIP3    H147771   5.035   1.140   2.046 -1.3381  1.5434 -0.3621
 8760TIP3    H247772   5.023   1.012   1.965  2.9224  2.0310 -1.8719
 8761TIP3   OH247773   1.005   3.272   4.702  0.0414  0.3034  0.5321
 8761TIP3    H147774   0.995   3.356   4.746  0.9912  0.3812  0.6009
 8761TIP3    H247775   1.022   3.210   4.772 -2.3959 -0.2689  0.6701
 8762TIP3   OH247776   1.767   5.364   3.418 -0.1532  0.4866 -0.0647
 8762TIP3    H147777   1.839   5.425   3.399  0.2573  0.0086 -0.0536
 8762TIP3    H247778   1.789   5.327   3.503  0.1990 -0.5462 -0.5981
 8763TIP3   OH247779   5.445   2.783  16.023  0.0245  0.3701  0.1674
 8763TIP3    H147780   5.477   2.810  16.109  0.4079  0.8080 -0.1071
 8763TIP3    H247781   5.512   2.722  15.990  2.0443  3.3438 -1.5573
 8764TIP3   OH247782   3.835   2.023   0.413 -0.3387  0.2675  0.1036
 8764TIP3    H147783   3.795   1.950   0.365 -0.4317  1.3411 -1.5081
 8764TIP3    H247784   3.911   2.047   0.360  0.0754  0.8948  0.9896
 8765TIP3   OH247785   5.498   5.685   6.820 -0.1660  0.2899  0.4892
 8765TIP3    H147786   5.569   5.749   6.810  0.2296 -0.3402 -0.6876
 8765TIP3    H247787   5.419   5.739   6.826  0.3202  0.9580  1.0951
 8766TIP3   OH247788   2.551   3.276  14.242  0.5804 -0.1518 -0.3957
 8766TIP3    H147789   2.464   3.272  14.282  1.1268  0.1596  0.8447
 8766TIP3    H247790   2.596   3.199  14.275  0.7599 -0.3502 -1.0939
 8767TIP3   OH247791   0.839   0.394  15.276 -0.1290 -0.0821 -1.0702
 8767TIP3    H147792   0.876   0.306  15.280 -1.2250 -0.4895  0.7670
 8767TIP3    H247793   0.750   0.382  15.243  0.0928  0.4597 -1.8696
 8768TIP3   OH247794   5.560   3.176  12.843  0.3475 -0.8776 -0.4677
 8768TIP3    H147795   5.608   3.213  12.769  0.2537 -0.2522 -0.2167
 8768TIP3    H247796   5.495   3.118  12.803  0.4200 -0.6848 -0.8656
 8769TIP3   OH247797   5.896   0.257  16.009 -0.3591 -0.4685 -0.2722
 8769TIP3    H147798   5.808   0.290  16.028 -1.0984 -2.0800 -0.8413
 8769TIP3    H247799   5.895   0.166  16.039  0.8499 -0.7515 -1.0366
 8770TIP3   OH247800   6.498   2.729   1.397 -0.0371  0.3207  0.4308
 8770TIP3    H147801   6.446   2.790   1.449  1.1618  1.1549  0.6719
 8770TIP3    H247802   6.568   2.783   1.359 -0.3439 -0.4608 -1.2841
 8771TIP3   OH247803   5.825   0.354  14.684  0.2344  0.0419 -0.7626
 8771TIP3    H147804   5.735   0.336  14.711  0.2964  1.9371  0.8168
 8771TIP3    H247805   5.816   0.395  14.598 -0.3833 -0.1501 -0.7935
 8772TIP3   OH247806   5.069   0.689  11.520  0.8078 -0.1946 -0.0962
 8772TIP3    H147807   5.102   0.747  11.451 -1.0176 -0.3027 -1.0840
 8772TIP3    H247808   4.988   0.730  11.549  0.4577 -1.2877  0.4981
 8773TIP3   OH247809   6.718   0.336   1.905 -0.7247 -0.3833  0.3512
 8773TIP3    H147810   6.679   0.354   1.820  1.4243  2.1135 -0.1648
 8773TIP3    H247811   6.706   0.418   1.954  0.2255 -0.9774  1.5893
 8774TIP3   OH247812   6.483   5.464  14.624  0.1460  0.0835 -0.1106
 8774TIP3    H147813   6.572   5.463  14.589 -0.1607 -0.1433 -0.8963
 8774TIP3    H247814   6.429   5.498  14.553 -0.9054 -3.0917 -0.8982
 8775TIP3   OH247815   2.693   0.141   0.023  0.4164 -0.1942 -0.2313
 8775TIP3    H147816   2.656   0.067  -0.025  1.1351 -1.8994  1.7869
 8775TIP3    H247817   2.630   0.212   0.011 -2.1139 -2.2297  0.8505
 8776TIP3   OH247818   1.591   2.006   5.593 -0.1797  0.1155 -0.1185
 8776TIP3    H147819   1.548   2.090   5.606  0.9100  0.6188  0.2244
 8776TIP3    H247820   1.675   2.013   5.639  0.1238 -0.9897 -0.4711
 8777TIP3   OH247821   2.096   2.826  14.147 -0.3269  0.1882  0.3947
 8777TIP3    H147822   2.100   2.889  14.219 -3.8321  0.8738  0.1006
 8777TIP3    H247823   2.048   2.751  14.183 -1.8800  0.4272 -1.1372
 8778TIP3   OH247824   6.098   5.150   5.279 -0.4731 -0.1482 -0.2632
 8778TIP3    H147825   6.098   5.232   5.328  2.7969 -0.0194 -0.3819
 8778TIP3    H247826   6.112   5.176   5.189 -1.1620 -0.7484 -0.5496
 8779TIP3   OH247827   5.114   0.800   1.463 -0.0084  0.1539  0.3926
 8779TIP3    H147828   5.110   0.896   1.459  0.3589  0.1007 -1.5054
 8779TIP3    H247829   5.177   0.776   1.395  1.6695 -1.3171  2.3914
 8780TIP3   OH247830   1.748   4.987  14.108  0.1962 -0.0582  0.0366
 8780TIP3    H147831   1.803   4.924  14.153  0.1512 -0.1587 -0.0478
 8780TIP3    H247832   1.691   4.934  14.052  1.3220  0.1336 -1.3362
 8781TIP3   OH247833   4.751   0.889  12.322  0.2482  0.1515 -0.3271
 8781TIP3    H147834   4.791   0.857  12.403 -0.3529 -0.3818 -0.2482
 8781TIP3    H247835   4.782   0.980  12.315 -0.3487  0.4571  0.9198
 8782TIP3   OH247836   3.293   4.526  14.708  0.3415  0.4488  0.1100
 8782TIP3    H147837   3.199   4.518  14.690  0.5707  0.9030 -1.2843
 8782TIP3    H247838   3.300   4.605  14.761 -0.1053  0.1781  0.5860
 8783TIP3   OH247839   2.403   5.638   4.504  0.4807  0.6514 -0.2210
 8783TIP3    H147840   2.401   5.727   4.470 -1.4731  0.7759  0.1235
 8783TIP3    H247841   2.421   5.648   4.598 -2.5124  0.9152  0.3705
 8784TIP3   OH247842   1.390   4.057   1.242 -0.1203  0.3486 -0.4672
 8784TIP3    H147843   1.300   4.029   1.230 -0.3727  0.0500  1.8759
 8784TIP3    H247844   1.383   4.141   1.288  0.7699 -0.0929  0.5176
 8785TIP3   OH247845   0.666   2.728  13.211  0.1343 -0.1852  0.6163
 8785TIP3    H147846   0.679   2.725  13.305 -0.0640  0.2978  0.6647
 8785TIP3    H247847   0.754   2.726  13.173  0.1890 -1.0116  0.7930
 8786TIP3   OH247848   4.055   6.236  11.001 -0.4433 -0.2960  0.4266
 8786TIP3    H147849   3.993   6.172  11.036 -2.0870  2.2016  2.2101
 8786TIP3    H247850   4.132   6.229  11.057  0.1619 -1.9840 -0.5578
 8787TIP3   OH247851   1.355   5.614  16.230 -0.3229  0.3722 -0.1966
 8787TIP3    H147852   1.261   5.596  16.223 -0.3660  0.7827 -0.6957
 8787TIP3    H247853   1.363   5.665  16.311 -0.6552  1.1217 -0.6250
 8788TIP3   OH247854   5.770   2.798  11.490 -0.0940  0.1688  0.1383
 8788TIP3    H147855   5.797   2.838  11.407  0.0787 -1.6936 -0.7138
 8788TIP3    H247856   5.751   2.873  11.547  2.9824  1.5155 -0.5049
 8789TIP3   OH247857   1.869   1.597  14.508  0.4744 -0.8114 -0.2014
 8789TIP3    H147858   1.933   1.646  14.456  0.1809 -1.3081 -1.0492
 8789TIP3    H247859   1.863   1.645  14.591  1.0245 -0.0561 -0.5908
 8790TIP3   OH247860   1.379   5.132  10.503  0.1252  0.3909 -0.0902
 8790TIP3    H147861   1.432   5.111  10.426  0.0857  1.2163 -0.3509
 8790TIP3    H247862   1.305   5.181  10.468 -2.2507 -2.9912 -0.0677
 8791TIP3   OH247863   0.693   3.481   5.391 -0.0338  0.1872  0.5298
 8791TIP3    H147864   0.726   3.492   5.302  0.4126 -0.8593  0.5640
 8791TIP3    H247865   0.601   3.508   5.387 -0.2677 -0.7469 -0.4523
 8792TIP3   OH247866   5.374   5.823   5.464 -0.2292 -0.5710  0.0476
 8792TIP3    H147867   5.364   5.912   5.496  0.6624  0.8249 -3.3304
 8792TIP3    H247868   5.344   5.768   5.537  0.3104  2.3950  2.6315
 8793TIP3   OH247869   0.962   3.810  16.608  0.7549 -0.1985 -0.1662
 8793TIP3    H147870   1.011   3.884  16.572  0.1991  0.2485 -0.0079
 8793TIP3    H247871   1.019   3.774  16.675  1.0608  0.0376 -0.2994
 8794TIP3   OH247872   2.533   3.448  10.056 -0.3785  0.2470 -0.3327
 8794TIP3    H147873   2.549   3.359  10.087 -0.0692  0.5482  0.3879
 8794TIP3    H247874   2.580   3.504  10.118 -1.6484  0.9814 -0.0113
 8795TIP3   OH247875   4.578   2.621   3.707  0.1219  0.4439  0.2888
 8795TIP3    H147876   4.616   2.706   3.686 -0.2040  0.6439  0.5119
 8795TIP3    H247877   4.650   2.559   3.694  0.4814  0.8035  0.5522
 8796TIP3   OH247878   1.939   5.067   4.489  0.6066  0.7284  0.2329
 8796TIP3    H147879   2.027   5.041   4.461  0.5521  1.1558 -0.3535
 8796TIP3    H247880   1.888   4.986   4.483  0.5066  0.8889 -1.3072
 8797TIP3   OH247881   0.805   1.739   2.959  0.5043 -0.1830  0.1016
 8797TIP3    H147882   0.799   1.741   3.054  2.1723  3.4223  0.2187
 8797TIP3    H247883   0.899   1.726   2.942  0.3381  0.0827 -1.0344
 8798TIP3   OH247884   1.878   3.349   1.816  0.7974 -0.0592  0.3603
 8798TIP3    H147885   1.790   3.315   1.805  0.8187  0.4619 -1.5835
 8798TIP3    H247886   1.868   3.444   1.815  1.3858  0.0043 -0.1401
 8799TIP3   OH247887   0.055   3.783  16.905 -0.4406  0.0071 -0.6196
 8799TIP3    H147888   0.055   3.700  16.857  1.4652 -0.3180 -0.1216
 8799TIP3    H247889  -0.026   3.781  16.956 -1.1716 -0.8490 -1.7903
 8800TIP3   OH247890   4.384   2.212   1.541  0.0099 -0.4537 -0.2049
 8800TIP3    H147891   4.319   2.153   1.503  0.5938 -2.1784  1.3883
 8800TIP3    H247892   4.333   2.283   1.579 -0.9547 -1.7298  0.9236
 8801TIP3   OH247893   2.870   3.282  15.407  0.0114  0.7633 -0.1731
 8801TIP3    H147894   2.951   3.316  15.445  0.4424 -0.5176  0.0640
 8801TIP3    H247895   2.852   3.202  15.457 -1.4948  1.1346 -0.1104
 8802TIP3   OH247896   6.547   5.600  14.859 -0.1392  0.6836 -0.2150
 8802TIP3    H147897   6.566   5.534  14.926  0.3495  1.0754  0.0330
 8802TIP3    H247898   6.517   5.549  14.783 -1.5115  0.2915  0.5834
 8803TIP3   OH247899   6.678   4.971   2.308  0.0074 -0.1751  0.7502
 8803TIP3    H147900   6.728   4.938   2.233 -0.1006 -1.4183  1.2138
 8803TIP3    H247901   6.633   4.894   2.343 -0.4639  0.5161  1.7020
 8804TIP3   OH247902   1.588   4.948   1.343 -0.1693 -0.1723  0.5776
 8804TIP3    H147903   1.582   4.993   1.259  2.0765 -1.9116 -0.5832
 8804TIP3    H247904   1.520   4.881   1.340  2.1052 -2.4576 -1.3236
 8805TIP3   OH247905   2.190   6.299  14.079 -0.1378  0.3612 -0.0371
 8805TIP3    H147906   2.098   6.301  14.052 -0.2825  0.2814  0.4451
 8805TIP3    H247907   2.187   6.277  14.172  0.2744  2.2662  0.4490
 8806TIP3   OH247908   5.355   2.050   2.238  0.2209  0.4188  0.0009
 8806TIP3    H147909   5.414   1.980   2.266  1.6079  0.3642 -2.8483
 8806TIP3    H247910   5.282   2.005   2.194  0.1529  0.6649 -0.1427
 8807TIP3   OH247911   0.469   6.544  10.865  0.2751 -0.2286 -0.5509
 8807TIP3    H147912   0.541   6.553  10.928  1.5982 -2.2073 -1.6901
 8807TIP3    H247913   0.485   6.613  10.800  0.9791 -0.4317 -0.6060
 8808TIP3   OH247914   2.353   0.721  12.324 -0.3596 -0.1731  0.1905
 8808TIP3    H147915   2.400   0.640  12.301  0.9268  0.9614 -1.2788
 8808TIP3    H247916   2.397   0.752  12.404 -0.2265 -0.4110  0.2110
 8809TIP3   OH247917   3.799   3.691   1.085  0.0805 -0.3145  0.5577
 8809TIP3    H147918   3.861   3.759   1.111  0.0469 -0.7994  1.9712
 8809TIP3    H247919   3.828   3.664   0.998  0.0010  1.6037 -0.0695
 8810TIP3   OH247920   0.258   0.104   0.756 -0.5377 -0.2066  0.3540
 8810TIP3    H147921   0.193   0.033   0.757  0.3180 -1.0889 -3.0515
 8810TIP3    H247922   0.315   0.085   0.831 -2.5173 -0.9859  1.7096
 8811TIP3   OH247923   6.444   2.730   4.582  0.1864 -0.3036  0.0837
 8811TIP3    H147924   6.387   2.801   4.555 -0.1746 -0.9073 -0.7725
 8811TIP3    H247925   6.532   2.765   4.574  0.0200 -0.0312 -0.5533
 8812TIP3   OH247926   6.158   4.463  13.926 -0.1045 -0.4755 -0.2580
 8812TIP3    H147927   6.143   4.482  14.018  3.4632 -1.8636  0.7157
 8812TIP3    H247928   6.100   4.523  13.878 -0.6135  1.5858  2.8418
 8813TIP3   OH247929   1.486   1.907  12.818 -0.9798 -0.0118 -0.1249
 8813TIP3    H147930   1.437   1.899  12.737 -0.1945 -0.3043 -0.5857
 8813TIP3    H247931   1.486   1.818  12.855 -0.2810 -0.1509 -0.4440
 8814TIP3   OH247932   2.657   1.185   5.780  0.1419 -0.4026 -0.3163
 8814TIP3    H147933   2.712   1.199   5.703  1.4809 -0.2229  0.6595
 8814TIP3    H247934   2.686   1.101   5.815  0.1630 -0.0554  0.5037
 8815TIP3   OH247935   1.459   1.004   5.348 -0.2824  0.2114 -0.0674
 8815TIP3    H147936   1.534   0.962   5.389  2.2194  1.3649 -3.2534
 8815TIP3    H247937   1.415   0.934   5.300  0.5209  0.1172 -0.6676
 8816TIP3   OH247938   3.607   6.505   1.408 -0.0433 -0.7345 -0.1599
 8816TIP3    H147939   3.530   6.546   1.446 -0.9028 -2.3570 -0.1225
 8816TIP3    H247940   3.575   6.424   1.369  1.1076  0.0515 -2.8859
 8817TIP3   OH247941   3.170   1.115   2.413  0.5039 -0.1036  0.5956
 8817TIP3    H147942   3.239   1.070   2.462 -0.8808 -2.6836  0.2291
 8817TIP3    H247943   3.204   1.119   2.323  0.3409 -1.0251  0.4916
 8818TIP3   OH247944   6.558   6.350  12.430  0.1562  0.2798  0.2042
 8818TIP3    H147945   6.477   6.394  12.403  0.4882  0.6571 -0.1818
 8818TIP3    H247946   6.529   6.282  12.491 -0.7110 -1.2944 -1.9045
 8819TIP3   OH247947   3.115   5.631   3.558 -0.3656  0.2130  0.4212
 8819TIP3    H147948   3.044   5.675   3.604 -1.4750  0.7368 -1.6971
 8819TIP3    H247949   3.177   5.701   3.536 -0.8196  0.3034 -0.6018
 8820TIP3   OH247950   5.514   0.761  12.693  0.0439 -0.2193 -0.4781
 8820TIP3    H147951   5.590   0.816  12.713  0.5748 -0.6850 -1.1656
 8820TIP3    H247952   5.502   0.708  12.772 -0.8715  1.3071  0.4425
 8821TIP3   OH247953   6.223   6.433   0.556  0.6836 -0.4915  0.4582
 8821TIP3    H147954   6.161   6.380   0.505  0.5088 -0.4513  0.6309
 8821TIP3    H247955   6.170   6.473   0.625  0.8567 -0.2649  0.4604
 8822TIP3   OH247956   2.684   4.591  16.824  0.3429  0.4566  0.3588
 8822TIP3    H147957   2.763   4.641  16.843  1.3592 -1.0495  0.2132
 8822TIP3    H247958   2.689   4.516  16.883  0.3774 -1.0264 -1.4886
 8823TIP3   OH247959   6.189   1.611  12.909 -0.1306 -0.2465 -0.3121
 8823TIP3    H147960   6.198   1.517  12.921  1.6429 -0.3752 -2.2822
 8823TIP3    H247961   6.219   1.649  12.992  2.3364 -1.3374 -0.6636
 8824TIP3   OH247962   2.432   1.544  13.190 -0.1536 -0.1177 -0.3965
 8824TIP3    H147963   2.367   1.498  13.244  0.1698  0.2493  0.3160
 8824TIP3    H247964   2.493   1.582  13.253  0.2138  0.3470 -1.0233
 8825TIP3   OH247965   4.155   2.507   6.549 -0.2945 -0.4285  0.1217
 8825TIP3    H147966   4.131   2.526   6.640 -1.1097  0.8535 -0.3547
 8825TIP3    H247967   4.197   2.587   6.518  0.3756 -1.0155 -0.5074
 8826TIP3   OH247968   3.235   6.316  11.880  0.7520  0.2284  0.0626
 8826TIP3    H147969   3.257   6.240  11.827  0.0363 -0.0522  0.1697
 8826TIP3    H247970   3.141   6.328  11.869  0.6919  0.5131  0.8177
 8827TIP3   OH247971   5.714   5.792  13.303 -0.1727  0.0641 -0.6938
 8827TIP3    H147972   5.693   5.703  13.275 -0.7619  0.1399 -0.4947
 8827TIP3    H247973   5.683   5.797  13.393  0.9150  0.1058 -0.3189
 8828TIP3   OH247974   5.398   0.969  11.834 -0.5884 -0.1984 -0.0585
 8828TIP3    H147975   5.334   1.006  11.774  0.7504 -1.5385 -2.4235
 8828TIP3    H247976   5.369   0.879  11.847  0.1095 -0.4465 -0.1708
 8829TIP3   OH247977   1.256   6.221   1.052 -0.4221 -0.2476 -0.5514
 8829TIP3    H147978   1.243   6.183   1.139  2.8468 -2.6084 -0.9757
 8829TIP3    H247979   1.307   6.300   1.068  0.3913 -0.8127 -0.3219
 8830TIP3   OH247980   4.505   1.250  10.695 -1.1674  0.0886  0.3607
 8830TIP3    H147981   4.481   1.249  10.603 -4.4578 -0.1323  1.1773
 8830TIP3    H247982   4.441   1.308  10.736 -0.2348 -0.4516  2.6590
 8831TIP3   OH247983   2.572   2.842  16.153  0.2456 -0.8043 -0.6855
 8831TIP3    H147984   2.596   2.867  16.063  1.7620 -0.3561 -0.1561
 8831TIP3    H247985   2.630   2.769  16.174  0.9477  0.0982  0.5003
 8832TIP3   OH247986   2.178   4.561  12.529  0.2468  0.1304  0.0071
 8832TIP3    H147987   2.166   4.467  12.522  1.6052 -0.0878  0.4142
 8832TIP3    H247988   2.095   4.594  12.565 -0.3975 -0.8395 -0.5895
 8833TIP3   OH247989   5.293   4.690  11.234  0.2503  0.0022 -0.1709
 8833TIP3    H147990   5.374   4.644  11.259  0.8621 -0.1906 -2.3241
 8833TIP3    H247991   5.248   4.628  11.177 -1.1937  0.3117  0.6135
 8834TIP3   OH247992   5.122   0.415  14.709  0.0525  0.5243 -0.0533
 8834TIP3    H147993   5.051   0.455  14.760 -1.6444 -0.8625 -1.2938
 8834TIP3    H247994   5.143   0.481  14.643 -0.4246  0.7597  0.0219
 8835TIP3   OH247995   6.308   1.487  16.322  0.0011 -0.5918  0.4813
 8835TIP3    H147996   6.329   1.580  16.325 -0.4709 -0.3933 -1.5490
 8835TIP3    H247997   6.342   1.451  16.405  4.2269  0.5259 -0.6505
 8836TIP3   OH247998   2.204   6.264  16.520  0.0298 -0.8004 -0.8915
 8836TIP3    H147999   2.212   6.358  16.500 -0.0680 -0.8592 -1.2069
 8836TIP3    H248000   2.133   6.233  16.464 -0.4659 -0.9028 -0.2144
 8837TIP3   OH248001   4.509   1.017  15.690 -0.0400  0.5312 -0.4207
 8837TIP3    H148002   4.496   0.937  15.740 -0.1964  0.4271 -0.6253
 8837TIP3    H248003   4.431   1.024  15.635  0.8085 -0.1640 -1.7595
 8838TIP3   OH248004   1.151   5.191   2.640  0.2114  0.4498 -0.4121
 8838TIP3    H148005   1.238   5.184   2.601  1.0562  0.6336  1.3651
 8838TIP3    H248006   1.090   5.183   2.567  1.7188 -0.1589 -1.6119
 8839TIP3   OH248007   2.379   1.472   4.894  0.1319 -0.1579 -0.5233
 8839TIP3    H148008   2.436   1.467   4.818  1.0148  1.1144  0.0284
 8839TIP3    H248009   2.438   1.492   4.967 -0.8696  0.0582  0.2429
 8840TIP3   OH248010   3.102   1.533  11.688 -0.1755 -0.1522 -0.0118
 8840TIP3    H148011   3.098   1.478  11.766 -0.2082 -0.9006 -0.5381
 8840TIP3    H248012   3.012   1.538  11.657  0.0477 -1.1094 -0.8594
 8841TIP3   OH248013   1.612   6.163   1.916 -0.7057  0.2276 -0.1874
 8841TIP3    H148014   1.670   6.104   1.867  0.6387 -1.3788  3.1881
 8841TIP3    H248015   1.645   6.250   1.895 -0.9450 -0.3123 -3.0417
 8842TIP3   OH248016   4.147   0.018   0.598 -0.1888  0.1976 -0.5222
 8842TIP3    H148017   4.214  -0.037   0.556 -1.0392 -0.7383 -0.6843
 8842TIP3    H248018   4.089   0.043   0.527 -0.0701  0.9351 -0.3646
 8843TIP3   OH248019   3.731   4.955  11.155  0.4902 -0.0529 -0.2130
 8843TIP3    H148020   3.643   4.992  11.167 -0.3440 -1.4990 -1.6390
 8843TIP3    H248021   3.768   5.004  11.082 -0.9187 -2.3956 -2.6351
 8844TIP3   OH248022   4.801   6.579  11.824  0.4319 -0.5657  0.0861
 8844TIP3    H148023   4.838   6.561  11.738  1.3519 -2.2375  0.8190
 8844TIP3    H248024   4.864   6.638  11.866  0.1316  0.0069 -0.2558
 8845TIP3   OH248025   3.140   4.287  16.301 -0.3216  0.2640  0.4300
 8845TIP3    H148026   3.073   4.227  16.334  0.2159 -0.1532  0.7620
 8845TIP3    H248027   3.209   4.286  16.367  1.8262 -2.3200 -1.7560
 8846TIP3   OH248028   3.950   3.741  17.287 -0.2002  0.1330  0.3504
 8846TIP3    H148029   4.033   3.777  17.317 -0.2659 -0.6146  1.4372
 8846TIP3    H248030   3.964   3.647  17.281 -0.8567  0.0406  0.1814
 8847TIP3   OH248031   5.821   5.689   6.778  0.5578 -0.6480 -0.4284
 8847TIP3    H148032   5.749   5.748   6.754  0.3745 -0.7786 -0.2017
 8847TIP3    H248033   5.890   5.748   6.808  0.8649 -0.4694 -1.4538
 8848TIP3   OH248034   5.034   2.892  12.906  0.5964 -0.2804 -0.6043
 8848TIP3    H148035   5.081   2.852  12.979  0.8643  0.5855 -0.2972
 8848TIP3    H248036   5.067   2.847  12.828 -0.7026 -2.1892 -0.0980
 8849TIP3   OH248037   2.446   0.201  13.305 -0.2629 -0.7314 -0.1861
 8849TIP3    H148038   2.514   0.228  13.243  0.9559 -1.4040  0.8527
 8849TIP3    H248039   2.464   0.251  13.384 -2.5510  1.0404 -0.7349
 8850TIP3   OH248040   4.089   2.461   3.052 -0.6345  0.2505 -0.1764
 8850TIP3    H148041   4.113   2.516   3.127 -0.6036 -0.1597  0.1182
 8850TIP3    H248042   4.057   2.380   3.092  0.9217 -0.6041 -0.6351
 8851TIP3   OH248043   0.758   4.512   3.565 -0.4123  0.2701 -0.0566
 8851TIP3    H148044   0.727   4.432   3.607 -1.5822  0.9486  0.4095
 8851TIP3    H248045   0.848   4.493   3.538 -0.0033 -0.5364  1.8101
 8852TIP3   OH248046   0.270   6.314   1.103 -0.4181 -0.2937 -0.0756
 8852TIP3    H148047   0.270   6.332   1.197 -0.3831 -0.9468  0.0464
 8852TIP3    H248048   0.238   6.224   1.095  1.2438 -0.8526 -0.5689
 8853TIP3   OH248049   6.004   1.488   4.374  0.1366  0.5977  0.1570
 8853TIP3    H148050   5.911   1.487   4.394 -0.0714  0.0359 -0.8544
 8853TIP3    H248051   6.012   1.544   4.297  0.4131 -0.8068 -0.8487
 8854TIP3   OH248052   0.272   0.557  16.703  0.1822 -0.3112  0.8790
 8854TIP3    H148053   0.286   0.486  16.765 -0.1619 -1.0417  0.1289
 8854TIP3    H248054   0.177   0.569  16.701  0.1975 -0.2409  0.5457
 8855TIP3   OH248055   6.649   0.551   6.079  0.2997  0.1991 -0.1471
 8855TIP3    H148056   6.666   0.631   6.129  0.7141  1.3763 -2.1010
 8855TIP3    H248057   6.691   0.567   5.994 -2.5741 -0.6714 -1.7837
 8856TIP3   OH248058   1.383   2.231  11.382  0.5712 -0.0012  0.3288
 8856TIP3    H148059   1.321   2.236  11.310  0.7847  1.1358  0.2155
 8856TIP3    H248060   1.337   2.183  11.451 -0.1645  0.2029 -0.0221
 8857TIP3   OH248061   6.165   2.781   2.627  0.6602 -0.1318  0.2225
 8857TIP3    H148062   6.177   2.723   2.702  1.7183  1.2788  1.1507
 8857TIP3    H248063   6.253   2.793   2.592  0.3751  0.4913 -0.2906
 8858TIP3   OH248064   2.068   4.568  16.233  0.7459 -0.0914  0.2277
 8858TIP3    H148065   2.117   4.562  16.151 -0.3645  1.4250 -0.5633
 8858TIP3    H248066   1.987   4.520  16.216 -1.3688  3.7697 -1.0186
 8859TIP3   OH248067   6.742   4.125   2.270  0.0303 -0.4763 -0.1932
 8859TIP3    H148068   6.703   4.083   2.346  1.7327  0.1367  1.0400
 8859TIP3    H248069   6.819   4.072   2.249  0.9856  0.7727  0.0649
 8860TIP3   OH248070   6.501   6.782   2.379 -0.4234  0.0573  0.5073
 8860TIP3    H148071   6.438   6.723   2.337 -0.5186  0.9382 -0.6148
 8860TIP3    H248072   6.540   6.729   2.449  0.7120 -1.8807 -1.5256
 8861TIP3   OH248073   5.034   6.706   6.172 -0.1186 -0.3664  0.4133
 8861TIP3    H148074   5.009   6.676   6.259 -2.8538  0.2130 -0.1036
 8861TIP3    H248075   4.978   6.782   6.155  1.5170  0.5311 -1.2111
 8862TIP3   OH248076   3.144   1.858   1.979 -0.1600  0.3417  0.4752
 8862TIP3    H148077   3.091   1.864   2.059 -0.9218 -0.3599  0.0270
 8862TIP3    H248078   3.217   1.801   2.004 -0.0968  0.5742  0.8315
 8863TIP3   OH248079   3.005   3.769  16.555 -0.2907  0.2991  0.5518
 8863TIP3    H148080   3.095   3.741  16.574 -0.6875 -1.0350  0.4767
 8863TIP3    H248081   2.952   3.730  16.624 -0.8054  1.2366  0.7060
 8864TIP3   OH248082   4.835   5.362  14.857  0.1349  0.2490 -0.3431
 8864TIP3    H148083   4.857   5.423  14.787 -1.0094 -0.1771 -1.0948
 8864TIP3    H248084   4.812   5.419  14.931  1.0795  0.7010 -0.3829
 8865TIP3   OH248085   3.143   0.597  13.838 -0.1058  0.0110  0.1886
 8865TIP3    H148086   3.106   0.534  13.776 -1.0822 -0.8346  1.5973
 8865TIP3    H248087   3.184   0.543  13.905 -0.4168  0.8815  1.0938
 8866TIP3   OH248088   2.917   2.241   3.185  0.4323 -0.2784 -0.1808
 8866TIP3    H148089   2.981   2.279   3.126 -0.5245  1.1975 -0.2914
 8866TIP3    H248090   2.961   2.165   3.223  1.4585 -0.5603 -1.8979
 8867TIP3   OH248091   3.596   5.883   5.692 -0.0533 -0.3180  0.0926
 8867TIP3    H148092   3.526   5.937   5.730 -0.6162 -1.4072  0.6228
 8867TIP3    H248093   3.557   5.844   5.615  0.3145 -0.0842 -0.2149
 8868TIP3   OH248094   4.177   4.537  10.634  0.0033  0.1953 -0.5768
 8868TIP3    H148095   4.172   4.533  10.730  0.5979 -0.4334 -0.5708
 8868TIP3    H248096   4.114   4.605  10.610  0.0314  0.5348  0.2780
 8869TIP3   OH248097   5.317   2.089  13.548 -0.1683 -0.6723 -0.3582
 8869TIP3    H148098   5.406   2.076  13.580  0.1673  0.1345 -0.9565
 8869TIP3    H248099   5.312   2.182  13.527 -0.0700 -1.3602 -3.6197
 8870TIP3   OH248100   4.487   2.647  12.353 -0.4870 -0.1475 -0.3485
 8870TIP3    H148101   4.460   2.677  12.440 -2.4324  0.8154 -1.2473
 8870TIP3    H248102   4.561   2.703  12.330 -0.1322 -0.2346  0.5858
 8871TIP3   OH248103   0.997   5.132   1.744  0.1013  0.8184 -0.0806
 8871TIP3    H148104   0.911   5.157   1.711 -0.0539  3.1643  1.9450
 8871TIP3    H248105   0.981   5.101   1.833  1.3471  1.2291  0.3000
 8872TIP3   OH248106   0.861   5.023   0.719  0.6080 -0.1060 -0.0204
 8872TIP3    H148107   0.803   5.041   0.645  1.6214  2.1526 -0.2992
 8872TIP3    H248108   0.801   5.006   0.792 -0.3956 -1.4452 -1.1201
 8873TIP3   OH248109   5.225   6.585   5.419 -0.3770 -0.2025 -0.3835
 8873TIP3    H148110   5.278   6.576   5.498  0.2638 -3.1829 -1.0793
 8873TIP3    H248111   5.288   6.600   5.349 -0.6674 -0.6761 -0.7556
 8874TIP3   OH248112   0.859   0.020   5.811  0.0033  0.1951 -0.4460
 8874TIP3    H148113   0.880   0.109   5.784  0.3330  0.9557  2.2421
 8874TIP3    H248114   0.857   0.023   5.906 -0.4090 -2.5831 -0.3238
 8875TIP3   OH248115   6.795   2.558   2.773  0.5134 -0.3706 -0.0744
 8875TIP3    H148116   6.720   2.498   2.770  0.1805  0.0343  0.1643
 8875TIP3    H248117   6.779   2.612   2.850  1.4703 -0.8361  0.4616
 8876TIP3   OH248118   0.390   6.153   1.796  0.0417  0.2629  0.1462
 8876TIP3    H148119   0.441   6.089   1.846 -1.1179 -0.5513  0.3108
 8876TIP3    H248120   0.440   6.165   1.715  1.0767  0.3437  0.7807
 8877TIP3   OH248121   1.427   0.609   6.641 -0.1292  0.5577 -0.1545
 8877TIP3    H148122   1.391   0.693   6.670  0.8208  0.3040  1.7924
 8877TIP3    H248123   1.521   0.616   6.657 -0.2679 -1.6103  1.9308
 8878TIP3   OH248124   2.609   3.408  15.413  0.1894 -0.0884  0.2145
 8878TIP3    H148125   2.615   3.438  15.322 -0.2233  0.2128  0.2852
 8878TIP3    H248126   2.700   3.399  15.441  0.3189 -0.0965 -0.2017
 8879TIP3   OH248127   4.701   5.757  15.429 -0.3752  0.4075 -0.1652
 8879TIP3    H148128   4.726   5.774  15.520  0.4287 -0.9568 -0.1298
 8879TIP3    H248129   4.783   5.736  15.385 -0.8998  0.0414 -0.9732
 8880TIP3   OH248130   0.046   5.836  13.185  0.5277  0.2258  0.1005
 8880TIP3    H148131  -0.026   5.878  13.232 -0.8388  0.4101 -2.0863
 8880TIP3    H248132   0.112   5.820  13.252  1.1971  5.9660  1.0826
 8881TIP3   OH248133   2.603   6.593   5.668  0.0546 -0.1689 -0.2647
 8881TIP3    H148134   2.529   6.652   5.650 -0.1497 -0.1556  0.5974
 8881TIP3    H248135   2.643   6.629   5.747  0.1432 -0.9820  0.0567
 8882TIP3   OH248136   3.366   0.818  12.773 -0.5262  0.4238  0.3769
 8882TIP3    H148137   3.344   0.868  12.694 -0.9779 -0.0080  0.2242
 8882TIP3    H248138   3.460   0.832  12.785 -0.3983  0.2639 -0.4001
 8883TIP3   OH248139   0.346   5.377   3.665 -0.6161  0.0179  0.0805
 8883TIP3    H148140   0.335   5.287   3.696 -0.5172  0.2738  0.8604
 8883TIP3    H248141   0.433   5.379   3.625 -0.3876 -0.0864  0.5742
 8884TIP3   OH248142   3.517   2.606  13.305 -0.7502  0.1598  0.0602
 8884TIP3    H148143   3.499   2.592  13.212  1.7597  1.5634 -0.6947
 8884TIP3    H248144   3.582   2.676  13.306  0.0315 -0.5450  2.8354
 8885TIP3   OH248145   1.239   0.944   5.096  0.2529 -0.0176  0.0585
 8885TIP3    H148146   1.187   1.023   5.078 -0.7581 -0.9836 -1.3458
 8885TIP3    H248147   1.303   0.940   5.025 -0.8635 -1.4193 -0.8992
 8886TIP3   OH248148   1.182   6.348   5.931  0.0077  0.1471  0.3520
 8886TIP3    H148149   1.222   6.414   5.988 -1.2180  0.6258  0.6682
 8886TIP3    H248150   1.103   6.390   5.897  1.4424  0.4031 -2.8561
 8887TIP3   OH248151   6.389   5.649  13.240 -0.5150  0.3388  0.0816
 8887TIP3    H148152   6.433   5.581  13.291 -1.0569  0.2691  0.4615
 8887TIP3    H248153   6.409   5.627  13.149  2.5614  1.9182  0.3363
 8888TIP3   OH248154   1.323   0.613  12.249  0.3298 -0.3386 -0.1799
 8888TIP3    H148155   1.412   0.578  12.239  0.6154  0.2633  0.2082
 8888TIP3    H248156   1.330   0.704  12.221 -0.0837 -0.1819  0.2205
 8889TIP3   OH248157   5.694   3.766   2.609  0.0396  0.5296  0.2688
 8889TIP3    H148158   5.736   3.722   2.536  1.8756  0.9450  1.0485
 8889TIP3    H248159   5.650   3.696   2.657  1.2424 -0.1781  0.3695
 8890TIP3   OH248160   6.115   2.380   4.257 -0.4395 -0.5222 -0.2771
 8890TIP3    H148161   6.102   2.373   4.352 -0.1081  0.9168 -0.1030
 8890TIP3    H248162   6.206   2.355   4.243 -0.0624  0.6341 -0.0120
 8891TIP3   OH248163   3.301   1.214   5.957 -0.4309 -0.5728 -0.1052
 8891TIP3    H148164   3.320   1.120   5.951 -0.6414 -0.5034 -2.1071
 8891TIP3    H248165   3.233   1.220   6.024  1.5001 -1.5533  1.9962
 8892TIP3   OH248166   3.078   0.007   4.464 -0.4846  0.3520 -0.0871
 8892TIP3    H148167   2.992   0.050   4.465  0.5236  2.4439 -0.4498
 8892TIP3    H248168   3.111   0.019   4.553  1.0930  3.1076 -0.9762
 8893TIP3   OH248169   3.701   1.158   5.870  0.3023 -0.3836 -0.2648
 8893TIP3    H148170   3.696   1.250   5.893  0.4580 -0.1298 -1.2513
 8893TIP3    H248171   3.693   1.112   5.954  2.7552  0.5697  0.5291
 8894TIP3   OH248172   5.519   1.084   1.858 -0.1068 -0.3911 -0.3246
 8894TIP3    H148173   5.485   1.011   1.807 -0.3043 -1.2377  0.9786
 8894TIP3    H248174   5.611   1.091   1.833 -0.6868  0.5165 -2.2778
 8895TIP3   OH248175   1.022   1.987  13.977 -0.0034 -0.0772 -0.0404
 8895TIP3    H148176   1.037   1.952  13.889 -0.5405  1.2428 -0.6743
 8895TIP3    H248177   1.108   2.019  14.005  0.6556 -2.5004  0.8445
 8896TIP3   OH248178   2.062   5.713  15.069 -0.1454  0.2021  0.4425
 8896TIP3    H148179   2.043   5.722  15.163 -2.0457 -0.0203  0.1128
 8896TIP3    H248180   1.981   5.741  15.026  0.1339 -1.2255 -1.0730
 8897TIP3   OH248181   2.104   0.426   0.798  0.0547 -0.1774 -0.2001
 8897TIP3    H148182   2.108   0.365   0.871 -1.1821  0.3273  0.2984
 8897TIP3    H248183   2.131   0.510   0.836 -2.8288  0.5799  0.2357
 8898TIP3   OH248184   6.466   5.892  11.595 -0.5989 -0.2378  0.0560
 8898TIP3    H148185   6.451   5.817  11.537 -2.9692  0.1799  0.0843
 8898TIP3    H248186   6.395   5.888  11.658  0.0270  1.2834  0.8700
 8899TIP3   OH248187   0.826   4.050  14.574 -0.0442  0.5290 -0.0800
 8899TIP3    H148188   0.771   4.026  14.499 -1.4272 -0.8664  1.3395
 8899TIP3    H248189   0.764   4.075  14.642  1.2037  1.6748  0.6609
 8900TIP3   OH248190   0.363   2.842  11.103  0.7848 -0.1263  0.0288
 8900TIP3    H148191   0.284   2.844  11.158 -0.5859 -1.5554 -1.7961
 8900TIP3    H248192   0.353   2.918  11.046  1.6696  0.7452  1.0237
 8901TIP3   OH248193   2.497   0.635  16.557 -0.1006  0.3137 -0.2261
 8901TIP3    H148194   2.588   0.659  16.541 -0.4828  0.1111 -2.8853
 8901TIP3    H248195   2.502   0.553  16.606  1.1572  0.0936 -0.6993
 8902TIP3   OH248196   6.770   1.785   1.870 -0.6781  0.2270 -0.6659
 8902TIP3    H148197   6.806   1.824   1.790  0.3603  1.1122  0.2367
 8902TIP3    H248198   6.694   1.839   1.891 -2.1987 -1.2302 -2.1785
 8903TIP3   OH248199   5.337   2.928  12.302  1.1755  0.4345 -0.0961
 8903TIP3    H148200   5.421   2.884  12.311  0.9554 -0.0517 -0.4064
 8903TIP3    H248201   5.302   2.898  12.218 -0.4181 -1.3098  1.1514
 8904TIP3   OH248202   3.755   5.694  11.776 -0.0634 -0.0319  0.6849
 8904TIP3    H148203   3.764   5.660  11.687  0.8091 -1.0341  1.1470
 8904TIP3    H248204   3.712   5.624  11.825  2.5410 -0.8550  1.8562
 8905TIP3   OH248205   1.894   1.162   3.165 -0.4853 -0.1636 -0.0708
 8905TIP3    H148206   1.811   1.197   3.198 -0.4769  0.1039 -0.3365
 8905TIP3    H248207   1.906   1.080   3.213 -0.6809  0.0211  0.2951
 8906TIP3   OH248208   2.933   6.158  12.082 -0.2417  0.3547  0.5626
 8906TIP3    H148209   2.950   6.158  12.176 -2.8426 -1.1486  1.1035
 8906TIP3    H248210   2.839   6.177  12.075 -0.2532 -0.3546 -1.6632
 8907TIP3   OH248211   4.121   0.324  12.201 -0.1802 -0.3526 -0.2864
 8907TIP3    H148212   4.182   0.342  12.273 -0.2677 -1.5057  0.0924
 8907TIP3    H248213   4.105   0.409  12.161 -1.7886  0.6900  2.3926
 8908TIP3   OH248214   4.789   0.724   3.343  0.8222  0.1910 -0.5526
 8908TIP3    H148215   4.787   0.759   3.432 -0.2816 -0.6375 -0.2359
 8908TIP3    H248216   4.793   0.629   3.355 -0.3342  0.0326 -1.3745
 8909TIP3   OH248217   2.039   5.714  12.489  0.4737  0.6029 -0.0054
 8909TIP3    H148218   2.086   5.663  12.422  0.3939 -0.5599  0.8090
 8909TIP3    H248219   1.963   5.749  12.444  0.7732  0.3820 -0.6935
 8910TIP3   OH248220   0.822   6.588   4.024 -0.5655 -0.5279  0.2676
 8910TIP3    H148221   0.758   6.651   4.059  1.8278  1.3582  1.4296
 8910TIP3    H248222   0.809   6.509   4.077 -1.7646 -0.0922  0.6459
 8911TIP3   OH248223   2.638   3.409   4.835  0.6478 -0.2486 -0.0867
 8911TIP3    H148224   2.715   3.353   4.825  1.8242  1.5939 -1.6614
 8911TIP3    H248225   2.661   3.470   4.905 -1.2832 -2.7146  2.8203
 8912TIP3   OH248226   3.583   0.257   1.579 -0.8167  0.5168 -0.4838
 8912TIP3    H148227   3.569   0.317   1.653  0.8805  0.1571  0.1254
 8912TIP3    H248228   3.562   0.311   1.502  0.9157  1.9999  0.0391
 8913TIP3   OH248229   6.799   3.879  11.855 -0.1252  0.1926 -0.0469
 8913TIP3    H148230   6.739   3.835  11.916 -0.5705 -0.7171 -1.1302
 8913TIP3    H248231   6.745   3.899  11.779  0.9183 -0.5870 -1.0092
 8914TIP3   OH248232   2.922   1.652  12.910  0.3413 -0.6828 -0.4897
 8914TIP3    H148233   2.986   1.581  12.915  2.8909  1.5517 -0.1303
 8914TIP3    H248234   2.921   1.677  12.817  1.6366  0.6742 -0.1669
 8915TIP3   OH248235   1.321   6.321   3.398 -0.3517  0.3764 -0.2448
 8915TIP3    H148236   1.258   6.352   3.463  1.7637 -0.3268  2.2129
 8915TIP3    H248237   1.272   6.255   3.348 -1.2883 -1.0252  2.3809
 8916TIP3   OH248238   5.687   6.367   2.756  0.2543 -0.4690  0.5495
 8916TIP3    H148239   5.759   6.314   2.792  0.8322 -0.3023 -0.3437
 8916TIP3    H248240   5.609   6.312   2.767  0.9822 -1.8963 -1.1797
 8917TIP3   OH248241   1.068   5.469  15.029  0.6524 -0.1252 -0.5681
 8917TIP3    H148242   1.131   5.459  15.100  0.0928  0.6168  0.0490
 8917TIP3    H248243   1.121   5.490  14.952  1.0700  2.0516  0.2679
 8918TIP3   OH248244   3.736   6.207   5.833  0.4661 -0.2704 -0.1410
 8918TIP3    H148245   3.773   6.144   5.771 -1.1127 -0.7491 -0.6153
 8918TIP3    H248246   3.715   6.284   5.780 -0.2555 -0.4245 -0.0839
 8919TIP3   OH248247   3.596   4.833   4.613  0.2528  0.1729  0.4426
 8919TIP3    H148248   3.537   4.763   4.641  1.0914 -1.3742 -1.5300
 8919TIP3    H248249   3.628   4.871   4.694 -2.0208 -0.1952  1.5421
 8920TIP3   OH248250   5.312   0.817   2.995 -0.1758  0.4745  0.3013
 8920TIP3    H148251   5.251   0.756   2.954  1.3041  0.5905 -2.1868
 8920TIP3    H248252   5.375   0.762   3.042  1.1161  0.0370 -1.8790
 8921TIP3   OH248253   3.026   2.719  13.322 -0.3626  0.3615  0.1849
 8921TIP3    H148254   2.970   2.772  13.379  0.1117  0.7873  0.2591
 8921TIP3    H248255   3.062   2.782  13.260 -0.3381  0.0094 -0.1595
 8922TIP3   OH248256   4.138   3.510  12.822 -0.4657 -0.0684  0.2093
 8922TIP3    H148257   4.104   3.428  12.855 -0.9547 -0.4501 -1.1974
 8922TIP3    H248258   4.060   3.565  12.810 -0.0377  1.0403  2.2659
 8923TIP3   OH248259   2.005   0.022   1.259  0.0304  0.0211  0.3536
 8923TIP3    H148260   1.924   0.032   1.308 -0.5156 -1.2573 -0.2723
 8923TIP3    H248261   2.071   0.001   1.325 -0.4023 -0.1952  0.7212
 8924TIP3   OH248262   2.991   0.595   1.064 -0.4085  0.0407 -0.2180
 8924TIP3    H148263   3.024   0.592   0.974  2.2540 -1.3371  0.7596
 8924TIP3    H248264   2.981   0.504   1.089  1.2776  0.3374  1.6872
 8925TIP3   OH248265   2.831   6.048  13.599 -0.6714 -0.5770 -0.0552
 8925TIP3    H148266   2.897   6.080  13.661 -0.1888 -1.4120 -0.1307
 8925TIP3    H248267   2.763   6.116  13.599  0.3712  0.4797 -0.2769
 8926TIP3   OH248268   6.435   1.835   6.757 -0.1100 -0.4129 -0.8985
 8926TIP3    H148269   6.434   1.817   6.662 -0.3403  0.8452 -1.1363
 8926TIP3    H248270   6.343   1.845   6.781 -0.2327 -3.0504 -0.0666
 8927TIP3   OH248271   4.901   6.406  13.602 -0.5715 -0.3606 -0.2281
 8927TIP3    H148272   4.947   6.471  13.550  1.4165 -1.2518  0.3573
 8927TIP3    H248273   4.852   6.456  13.667  0.8867  0.5553  0.1761
 8928TIP3   OH248274   3.529   4.536  11.309  0.0378  0.4755  0.4742
 8928TIP3    H148275   3.557   4.583  11.231  1.0763 -0.4453  0.2832
 8928TIP3    H248276   3.468   4.469  11.277  1.7788 -1.0218  0.2210
 8929TIP3   OH248277   4.982   6.699   5.172 -0.4723 -0.6554 -0.0198
 8929TIP3    H148278   5.059   6.643   5.158 -2.1282 -2.9085 -0.3728
 8929TIP3    H248279   4.960   6.732   5.085 -0.8882 -1.3597 -0.1871
 8930TIP3   OH248280   5.704   1.091   3.431 -0.1176  0.5253 -0.1335
 8930TIP3    H148281   5.625   1.090   3.485  0.4656  0.5206  0.7395
 8930TIP3    H248282   5.710   1.003   3.396 -2.0033  1.2814 -2.4566
 8931TIP3   OH248283   3.886   2.302  10.382 -0.4753  0.4673  0.3128
 8931TIP3    H148284   3.914   2.282  10.292 -2.9096 -0.0189 -0.3715
 8931TIP3    H248285   3.910   2.225  10.432 -1.2683 -0.2576 -0.4102
 8932TIP3   OH248286   0.914   6.286   2.545 -0.3752 -0.0761 -0.4314
 8932TIP3    H148287   0.961   6.330   2.474  2.0400 -1.4260  0.2708
 8932TIP3    H248288   0.904   6.196   2.515 -0.4471 -0.3505  0.4041
 8933TIP3   OH248289   4.253   0.875   5.481 -0.2655  0.2096 -0.2946
 8933TIP3    H148290   4.275   0.782   5.480 -1.9160 -0.2126  0.1675
 8933TIP3    H248291   4.334   0.919   5.505  0.6396 -1.0791 -0.9517
 8934TIP3   OH248292   5.890   2.168  12.308 -0.1168  0.0732  0.7347
 8934TIP3    H148293   5.834   2.094  12.286  2.1571 -1.6035  0.3935
 8934TIP3    H248294   5.924   2.147  12.395 -0.2355  1.2042  1.0544
 8935TIP3   OH248295   3.976   4.454  16.621  0.6325  0.1638  0.2069
 8935TIP3    H148296   3.902   4.462  16.561  0.7171  0.5040  0.1494
 8935TIP3    H248297   3.946   4.391  16.686  0.9193 -1.0074 -0.7688
 8936TIP3   OH248298   2.746   5.025   1.214 -0.0217  0.1156  0.7061
 8936TIP3    H148299   2.783   4.952   1.262  1.4569  0.9526  0.8566
 8936TIP3    H248300   2.715   5.086   1.281  1.0320  0.7768  0.5919
 8937TIP3   OH248301   6.239   4.089   2.273 -0.1987 -0.0608  0.8482
 8937TIP3    H148302   6.206   4.018   2.219 -1.7193  1.0126  0.3484
 8937TIP3    H248303   6.175   4.099   2.343 -1.1499  2.2196 -0.2896
 8938TIP3   OH248304   3.028   4.990  12.658 -0.1934 -0.3630 -0.1910
 8938TIP3    H148305   2.961   4.962  12.720 -1.3991 -0.1606 -1.3727
 8938TIP3    H248306   3.108   4.998  12.711 -0.9162 -1.3527  1.0797
 8939TIP3   OH248307   3.988   4.203   0.763  0.3942  0.0169  0.3530
 8939TIP3    H148308   3.954   4.160   0.685  1.3405  0.4617 -0.3150
 8939TIP3    H248309   3.983   4.137   0.831 -0.3425 -0.4071 -0.1159
 8940TIP3   OH248310   2.065   6.134   6.164  0.5027  0.1237 -0.1488
 8940TIP3    H148311   2.060   6.197   6.092  0.7311  1.0644  0.6505
 8940TIP3    H248312   2.152   6.146   6.202  0.7665 -1.0728 -0.3373
 8941TIP3   OH248313   4.849   3.863   5.727  0.0937  0.3922 -0.0389
 8941TIP3    H148314   4.857   3.800   5.655  0.5643  1.2938 -0.7897
 8941TIP3    H248315   4.754   3.869   5.743  0.0747 -0.7778  0.2906
 8942TIP3   OH248316   0.019   4.076  16.053 -0.0375 -0.6752  0.5185
 8942TIP3    H148317   0.106   4.056  16.018  0.2866  0.4788  0.6393
 8942TIP3    H248318  -0.003   4.161  16.015 -2.2013 -2.0709 -1.5510
 8943TIP3   OH248319   3.865   2.606  13.552 -0.6069  0.8257  0.4782
 8943TIP3    H148320   3.806   2.543  13.510 -0.4408  0.5128  0.7131
 8943TIP3    H248321   3.888   2.565  13.635  1.3726  0.1403 -0.3899
 8944TIP3   OH248322   4.514   4.278  16.537  0.1143 -0.1459  0.2763
 8944TIP3    H148323   4.477   4.338  16.603 -0.6597 -1.0218  0.6566
 8944TIP3    H248324   4.587   4.235  16.582  0.2011 -0.0286  0.2487
 8945TIP3   OH248325   4.624   0.564  12.089  0.0665  0.4291  0.0934
 8945TIP3    H148326   4.699   0.609  12.052  0.4706 -0.3733 -0.0813
 8945TIP3    H248327   4.657   0.520  12.167 -0.4788  1.0073  0.6533
 8946TIP3   OH248328   3.241   1.193   0.026 -1.4053 -0.4642  0.1973
 8946TIP3    H148329   3.263   1.163   0.115  0.5927  0.1448 -0.0691
 8946TIP3    H248330   3.283   1.130  -0.032 -0.8636  0.3779 -0.3298
 8947TIP3   OH248331   3.715   5.564  10.566 -0.5448 -0.5847  0.1225
 8947TIP3    H148332   3.761   5.534  10.488 -0.1199  0.3915 -0.0161
 8947TIP3    H248333   3.684   5.652  10.543  1.2672  0.5070  1.7096
 8948TIP3   OH248334   3.279   4.715  15.851 -0.7305 -0.4964  0.1481
 8948TIP3    H148335   3.244   4.759  15.928 -0.9887  1.0003 -0.7983
 8948TIP3    H248336   3.322   4.784  15.801 -0.6826 -1.4110 -1.1154
 8949TIP3   OH248337   5.135   3.138  11.786 -0.5205  0.1186  0.0361
 8949TIP3    H148338   5.140   3.233  11.789 -1.4129  0.1307  1.8065
 8949TIP3    H248339   5.071   3.118  11.718  1.9766  0.6784 -2.5544
 8950TIP3   OH248340   6.422   1.920   1.303  0.4627  0.6809 -0.8402
 8950TIP3    H148341   6.459   1.991   1.356  0.8299  0.2457 -0.5000
 8950TIP3    H248342   6.387   1.963   1.225  1.9179  1.0816 -1.2912
 8951TIP3   OH248343   3.309   2.792   1.329  0.0430  0.3018 -0.5760
 8951TIP3    H148344   3.235   2.784   1.269 -0.4662 -3.2548  0.4409
 8951TIP3    H248345   3.269   2.805   1.415  0.6545  0.0425 -0.2499
 8952TIP3   OH248346   4.160   0.227   2.778  0.4728  0.6249  0.0074
 8952TIP3    H148347   4.075   0.271   2.776  0.3066  0.2995 -0.4210
 8952TIP3    H248348   4.224   0.297   2.779  0.2189  0.8768 -1.0662
 8953TIP3   OH248349   0.305   3.333  16.174  0.6706  0.3252  0.2655
 8953TIP3    H148350   0.223   3.374  16.203 -0.4436 -0.8402 -1.1906
 8953TIP3    H248351   0.365   3.407  16.161  0.2364  1.0945  2.4725
 8954TIP3   OH248352   4.253   6.658   6.437  0.3202 -0.4956  0.1388
 8954TIP3    H148353   4.257   6.602   6.514  0.2955 -0.0171  0.4886
 8954TIP3    H248354   4.170   6.637   6.395  0.4885 -0.9966  0.0623
 8955TIP3   OH248355   4.287   0.484   2.432 -0.4257  0.1821 -0.4008
 8955TIP3    H148356   4.281   0.529   2.348  0.7087  1.4499  0.1879
 8955TIP3    H248357   4.292   0.554   2.497  0.1362 -0.7856  0.6140
 8956TIP3   OH248358   3.750   0.165  14.619 -0.0449  0.4077 -0.0485
 8956TIP3    H148359   3.781   0.117  14.696  2.2077 -0.0540 -1.2055
 8956TIP3    H248360   3.698   0.101  14.570  1.2585 -0.2829 -0.5526
 8957TIP3   OH248361   2.002   2.205  15.565  0.2970  0.3040  0.1385
 8957TIP3    H148362   2.033   2.115  15.556 -0.9492 -0.1374  0.2209
 8957TIP3    H248363   1.965   2.209  15.653  1.7955  1.3503  0.7389
 8958TIP3   OH248364   4.434   1.471  11.364  0.2334 -0.1860  0.1992
 8958TIP3    H148365   4.401   1.559  11.350  1.0337 -0.2800 -2.3856
 8958TIP3    H248366   4.510   1.482  11.422  0.2155  0.7815  0.0373
 8959TIP3   OH248367   5.147   1.022  15.103  0.2307 -0.0558  0.3573
 8959TIP3    H148368   5.091   1.059  15.172  0.6758  1.1946  0.0571
 8959TIP3    H248369   5.233   1.059  15.121  1.1776 -2.7092  1.3763
 8960TIP3   OH248370   3.974   3.775   0.579 -0.5297 -0.0666  0.0280
 8960TIP3    H148371   4.027   3.703   0.545 -0.6030 -0.1822  0.1571
 8960TIP3    H248372   3.906   3.788   0.513 -2.2943 -2.0885  1.3592
 8961TIP3   OH248373   6.711   2.438   4.318 -0.2908 -0.8043 -0.2061
 8961TIP3    H148374   6.698   2.400   4.405  1.5026 -0.0311  0.4055
 8961TIP3    H248375   6.801   2.469   4.318 -0.6708  0.3653 -1.9009
 8962TIP3   OH248376   5.718   6.014  15.808 -0.0979 -0.2653 -0.1734
 8962TIP3    H148377   5.697   6.044  15.897 -1.3187  0.4018 -0.6643
 8962TIP3    H248378   5.809   5.984  15.813 -0.2874 -0.6137  1.3897
 8963TIP3   OH248379   1.591   0.200   2.535 -0.6209  0.5536  0.2998
 8963TIP3    H148380   1.569   0.272   2.594  0.7418  0.9470  0.3417
 8963TIP3    H248381   1.551   0.224   2.451  0.1427  1.5488  0.2127
 8964TIP3   OH248382   0.754   6.730  17.041  0.1353  0.3665 -0.0588
 8964TIP3    H148383   0.773   6.808  17.093  0.3767 -0.4468  1.1017
 8964TIP3    H248384   0.816   6.665  17.072  0.2811 -0.1469 -1.3824
 8965TIP3   OH248385   0.675   3.037   3.606 -0.5394 -0.6149 -0.3219
 8965TIP3    H148386   0.731   3.015   3.531 -0.4053 -0.8824 -0.1433
 8965TIP3    H248387   0.729   3.017   3.683 -0.1302  1.0836 -0.1541
 8966TIP3   OH248388   1.791   4.562  12.884  0.0135 -0.7267  0.8023
 8966TIP3    H148389   1.863   4.539  12.826  0.1464 -1.1762  1.1421
 8966TIP3    H248390   1.833   4.604  12.959 -0.2408  0.8970  0.0748
 8967TIP3   OH248391   1.012   0.281   5.853  0.2319  0.0548 -0.1193
 8967TIP3    H148392   1.105   0.296   5.836  0.2713  0.0982  0.1257
 8967TIP3    H248393   1.009   0.258   5.946 -0.0553  0.4780 -0.0272
 8968TIP3   OH248394   0.980   5.927  14.650  0.2371 -0.1888 -0.1296
 8968TIP3    H148395   0.982   6.007  14.702 -0.0827 -0.2093 -0.0844
 8968TIP3    H248396   0.975   5.857  14.715 -0.5043 -0.1979 -0.2007
 8969TIP3   OH248397   6.366   5.089   2.763  0.2836 -0.3195 -0.2967
 8969TIP3    H148398   6.394   5.112   2.852 -0.0593 -0.6527 -0.1027
 8969TIP3    H248399   6.391   5.165   2.710  0.0521  0.0816  0.1688
 8970TIP3   OH248400   1.805   1.522   1.870  0.4145  0.2250 -1.0931
 8970TIP3    H148401   1.735   1.457   1.868  1.2607 -0.7326 -0.2735
 8970TIP3    H248402   1.886   1.471   1.869  1.0921  1.1954  0.6595
 8971TIP3   OH248403   5.437   2.973   2.830 -0.5186  0.2644  0.2269
 8971TIP3    H148404   5.362   2.988   2.772  0.1448  0.3093 -0.6276
 8971TIP3    H248405   5.493   3.050   2.818 -0.3826  0.2882  0.9491
 8972TIP3   OH248406   5.337   4.754   0.228 -0.4373 -0.4318  0.8980
 8972TIP3    H148407   5.249   4.773   0.258 -0.6951  0.0896 -0.1602
 8972TIP3    H248408   5.343   4.795   0.142  1.1904  0.4583  1.3947
 8973TIP3   OH248409   4.527   1.373   5.230  0.2004 -0.0238 -0.0245
 8973TIP3    H148410   4.545   1.321   5.308  0.7985  0.9083  0.4609
 8973TIP3    H248411   4.596   1.348   5.169 -0.5810 -1.1610 -0.4813
 8974TIP3   OH248412   3.970   3.614  15.721 -0.5866  0.3237  0.1088
 8974TIP3    H148413   3.956   3.708  15.709  3.6249  0.6017 -4.4611
 8974TIP3    H248414   3.924   3.574  15.647 -0.0010 -0.9671  0.4336
 8975TIP3   OH248415   4.675   2.934  13.324  0.3306  0.1825 -0.5646
 8975TIP3    H148416   4.705   2.872  13.257 -0.5949 -0.1395 -0.6852
 8975TIP3    H248417   4.705   2.896  13.406 -0.6988 -0.7003 -0.5956
 8976TIP3   OH248418   6.169   0.344   1.635  0.1585  0.1346  0.3388
 8976TIP3    H148419   6.183   0.292   1.556  1.6232  1.6569 -0.4348
 8976TIP3    H248420   6.105   0.410   1.609 -0.8410 -0.5695  0.9929
 8977TIP3   OH248421   4.120   6.646   1.146  0.1441  0.3227  0.0886
 8977TIP3    H148422   4.038   6.635   1.098  0.3738 -0.5625 -0.1049
 8977TIP3    H248423   4.099   6.709   1.215 -0.1590  1.7264 -1.2427
 8978TIP3   OH248424   3.985   4.297  14.797  0.6360  0.1217  0.0209
 8978TIP3    H148425   3.981   4.223  14.737 -1.3940 -0.9129  1.3647
 8978TIP3    H248426   4.078   4.320  14.801  1.3103 -2.3847 -0.4090
 8979TIP3   OH248427   2.608   4.804   4.664  0.4563  0.2775  0.2258
 8979TIP3    H148428   2.679   4.741   4.672 -0.6899 -0.9322  1.1154
 8979TIP3    H248429   2.651   4.887   4.643  1.8441 -1.2016 -3.1660
 8980TIP3   OH248430   0.828   4.442   2.619 -0.6181  0.5473 -0.2090
 8980TIP3    H148431   0.913   4.400   2.635 -0.8873 -0.1410 -0.5471
 8980TIP3    H248432   0.836   4.477   2.530 -1.5258 -1.6518 -1.1994
 8981TIP3   OH248433   0.599   4.167   2.016  0.1271  0.2908  0.4952
 8981TIP3    H148434   0.684   4.207   1.998  0.2206 -0.6341 -1.1600
 8981TIP3    H248435   0.536   4.221   1.968 -0.2428  0.9424  1.6735
 8982TIP3   OH248436   2.497   6.409  10.289  0.3207 -0.3891 -0.3909
 8982TIP3    H148437   2.488   6.350  10.364 -1.0361  1.6020  1.0692
 8982TIP3    H248438   2.424   6.388  10.232  0.4619 -0.8573 -0.3970
 8983TIP3   OH248439   3.810   0.342  12.076  0.1125  0.2045 -0.1442
 8983TIP3    H148440   3.879   0.318  12.138 -0.0445 -0.8707 -0.3827
 8983TIP3    H248441   3.737   0.369  12.132 -0.3988 -1.7716  0.1762
 8984TIP3   OH248442   4.719   4.268  17.157  0.4427  0.2890  0.3687
 8984TIP3    H148443   4.777   4.265  17.233  0.7455  1.6017  0.2141
 8984TIP3    H248444   4.728   4.358  17.124 -0.3265 -0.0202 -0.7121
 8985TIP3   OH248445   4.638   2.311   4.854  0.7023 -0.5798 -0.6319
 8985TIP3    H148446   4.549   2.315   4.890  0.5268  0.3620 -1.1494
 8985TIP3    H248447   4.694   2.345   4.925  0.4211  0.7364 -1.0337
 8986TIP3   OH248448   4.561   1.995   4.933 -0.1133 -0.2794 -0.4843
 8986TIP3    H148449   4.632   2.059   4.938 -0.9504  0.6738 -0.6908
 8986TIP3    H248450   4.497   2.034   4.874 -0.9552 -0.9919 -0.0601
 8987TIP3   OH248451   6.380   3.773  16.083 -0.4324  0.1551 -0.3568
 8987TIP3    H148452   6.377   3.791  16.176  0.4164  1.6541 -0.6083
 8987TIP3    H248453   6.435   3.842  16.046  0.5282 -1.3253 -1.7514
 8988TIP3   OH248454   5.675   2.995  15.888  0.1855  0.9234  0.5266
 8988TIP3    H148455   5.727   2.936  15.942 -0.2900  0.1518  0.1462
 8988TIP3    H248456   5.639   2.939  15.819  2.3234  2.2248 -1.7406
 8989TIP3   OH248457   1.403   3.918  15.799  0.1904  0.2126 -0.1768
 8989TIP3    H148458   1.420   3.846  15.859 -0.4332 -0.3914 -0.7158
 8989TIP3    H248459   1.436   3.888  15.714  1.2444  1.1342 -0.1119
 8990TIP3   OH248460   1.416   3.506  15.730  0.3259 -0.2022 -0.2006
 8990TIP3    H148461   1.429   3.414  15.752  1.5049 -0.1967 -0.8479
 8990TIP3    H248462   1.429   3.511  15.635  1.8247  0.8825  0.0473
 8991TIP3   OH248463   0.105   1.410   4.450 -0.1317 -0.7308  0.4074
 8991TIP3    H148464   0.030   1.360   4.483 -0.6482  1.9615  3.6017
 8991TIP3    H248465   0.069   1.494   4.424  1.8035  0.9089  2.7561
 8992TIP3   OH248466   2.675   2.687  11.726 -0.4489 -0.3681  0.3499
 8992TIP3    H148467   2.760   2.643  11.731 -0.6496 -0.6522  1.4525
 8992TIP3    H248468   2.635   2.654  11.646 -0.2084 -1.4786  0.6896
 8993TIP3   OH248469   1.207   6.724  12.333 -0.3452 -0.0783 -0.1316
 8993TIP3    H148470   1.229   6.786  12.403  1.5899  0.3928 -1.1287
 8993TIP3    H248471   1.145   6.772  12.278 -0.2346  0.3257  0.0928
 8994TIP3   OH248472   0.299   5.728   1.007 -0.0632 -0.1691  0.0549
 8994TIP3    H148473   0.372   5.741   0.946  0.0177 -1.3505 -0.1078
 8994TIP3    H248474   0.329   5.767   1.089 -0.2348  1.5684 -0.6911
 8995TIP3   OH248475   4.044   2.480   3.769 -0.5939 -0.1994 -0.1280
 8995TIP3    H148476   4.133   2.508   3.792 -1.0562  0.6830  0.6061
 8995TIP3    H248477   4.051   2.450   3.678  0.4635 -0.2035 -0.0529
 8996TIP3   OH248478   3.742   1.017  16.669  0.0594 -0.1550 -0.2800
 8996TIP3    H148479   3.719   1.034  16.760  1.0709  2.4361 -0.4485
 8996TIP3    H248480   3.718   0.926  16.654  0.4867 -0.8166  2.7500
 8997TIP3   OH248481   5.616   5.920  15.523 -0.1072 -0.2821  0.0885
 8997TIP3    H148482   5.666   5.999  15.543  0.1451 -0.3341 -0.3289
 8997TIP3    H248483   5.681   5.850  15.524  0.0053 -0.2285 -1.3195
 8998TIP3   OH248484   5.989   0.567  16.943 -0.1957 -0.9096  0.0842
 8998TIP3    H148485   5.999   0.550  16.849 -1.1054 -1.6952  0.1221
 8998TIP3    H248486   5.895   0.557  16.959 -0.3559  1.2233  0.7012
 8999TIP3   OH248487   3.373   1.339   2.791  0.5413 -0.5281 -0.2475
 8999TIP3    H148488   3.379   1.252   2.830  0.1595 -2.1755 -3.7131
 8999TIP3    H248489   3.279   1.359   2.791  0.2624 -1.6428 -2.5131
 9000TIP3   OH248490   4.509   5.579  16.737  0.6486 -0.2838  0.0401
 9000TIP3    H148491   4.415   5.570  16.749  0.5656 -0.1920 -0.5110
 9000TIP3    H248492   4.531   5.663  16.778 -0.1125  1.4644 -2.9064
 9001TIP3   OH248493   5.543   6.166  17.128 -0.1138  0.2402  0.3008
 9001TIP3    H148494   5.544   6.124  17.042  0.2425  1.0193 -0.0817
 9001TIP3    H248495   5.600   6.111  17.183  0.5421  0.3514 -0.2606
 9002TIP3   OH248496   5.510   0.987   3.172  0.6235  0.2835 -0.1956
 9002TIP3    H148497   5.605   0.977   3.185  0.6879  0.0848 -0.7933
 9002TIP3    H248498   5.474   0.902   3.196  0.7752 -0.1846 -1.5841
 9003TIP3   OH248499   1.492   2.220   6.088  0.4423 -0.1639 -0.6402
 9003TIP3    H148500   1.542   2.148   6.127  0.1250  0.7241  1.4544
 9003TIP3    H248501   1.558   2.284   6.062  0.6696 -0.8405 -1.7594
 9004TIP3   OH248502   5.368   1.315   1.950  0.0405  0.0662 -0.1441
 9004TIP3    H148503   5.451   1.348   1.984  0.3727  2.5809 -3.1760
 9004TIP3    H248504   5.394   1.244   1.890 -0.1728 -0.7931  0.7785
 9005TIP3   OH248505   1.523   3.242   0.292 -0.7263 -0.6708 -0.0097
 9005TIP3    H148506   1.471   3.313   0.255 -0.5070 -0.4642  0.0738
 9005TIP3    H248507   1.525   3.260   0.386 -1.9487 -1.6343  0.2110
 9006TIP3   OH248508   4.892   3.392  11.401 -0.9655 -0.8999 -0.1145
 9006TIP3    H148509   4.917   3.416  11.311 -1.1175 -1.2784 -0.2597
 9006TIP3    H248510   4.947   3.447  11.456  0.5631 -2.0851 -0.4316
 9007TIP3   OH248511   4.346   5.364   4.595  0.0705 -0.4992 -0.0230
 9007TIP3    H148512   4.279   5.373   4.662 -0.1110 -1.9852  0.0194
 9007TIP3    H248513   4.372   5.454   4.575 -1.3482  0.0562  0.5346
 9008TIP3   OH248514   6.799   2.693  13.177  0.2211 -0.6645 -0.3160
 9008TIP3    H148515   6.757   2.775  13.147 -0.6871 -0.9100  0.2574
 9008TIP3    H248516   6.754   2.625  13.128  1.1317 -0.8112 -0.9513
 9009TIP3   OH248517   2.321   6.410   3.446  0.2301  0.4413 -0.1307
 9009TIP3    H148518   2.306   6.489   3.497  0.2699  0.7155 -0.5353
 9009TIP3    H248519   2.273   6.341   3.492  2.1310  0.1974  1.5592
 9010TIP3   OH248520   0.450   0.420  15.006 -0.4348 -0.2434  0.1511
 9010TIP3    H148521   0.397   0.444  15.082 -2.4301 -1.7595 -0.6966
 9010TIP3    H248522   0.495   0.340  15.033  0.9341  0.6870  0.6452
 9011TIP3   OH248523   1.112   1.952  11.223 -0.2395 -0.0048  0.0010
 9011TIP3    H148524   1.078   2.021  11.166 -0.8134  0.3781  0.7871
 9011TIP3    H248525   1.034   1.915  11.265  0.0679 -1.1502 -0.4319
 9012TIP3   OH248526   4.832   2.802   3.646 -0.1274  0.5173  0.5149
 9012TIP3    H148527   4.897   2.767   3.707  1.5523  0.9837 -0.9380
 9012TIP3    H248528   4.882   2.821   3.567 -2.0474  0.9624 -0.6278
 9013TIP3   OH248529   2.715   6.330  13.874  0.2466 -0.0687 -0.3190
 9013TIP3    H148530   2.696   6.305  13.784  0.6167 -1.6403  0.0213
 9013TIP3    H248531   2.670   6.265  13.928 -3.3349  3.1661  0.7880
 9014TIP3   OH248532   4.060   1.869  11.615 -0.0654 -0.6809 -0.4128
 9014TIP3    H148533   4.153   1.881  11.595  0.2787 -1.9225  0.3903
 9014TIP3    H248534   4.049   1.774  11.622 -1.4503 -0.5620 -0.7234
 9015TIP3   OH248535   3.304   3.337  11.841 -0.2135  0.3375  0.7330
 9015TIP3    H148536   3.352   3.269  11.888 -0.9081 -1.2857 -0.8598
 9015TIP3    H248537   3.343   3.340  11.754 -0.5488  1.6181  0.6034
 9016TIP3   OH248538   4.104   3.296   4.838  0.0580 -0.0663 -0.6271
 9016TIP3    H148539   4.113   3.374   4.783  0.2681 -0.1690 -0.7415
 9016TIP3    H248540   4.175   3.238   4.809  0.8634  0.3385  0.5215
 9017TIP3   OH248541   1.132   1.043   3.552  0.0072 -0.4694 -0.4409
 9017TIP3    H148542   1.039   1.062   3.548 -0.0453  0.7879  4.0527
 9017TIP3    H248543   1.175   1.128   3.549  0.8020 -0.8026  0.8304
 9018TIP3   OH248544   3.247   0.253   2.847 -0.2249  0.2145 -0.3938
 9018TIP3    H148545   3.305   0.330   2.841  1.2851 -0.9244 -0.6129
 9018TIP3    H248546   3.306   0.178   2.846 -1.8293 -1.0706 -2.6984
 9019TIP3   OH248547   4.676   2.392  13.859  0.2868 -0.1391  0.1555
 9019TIP3    H148548   4.593   2.345  13.852  0.4188 -0.7113  2.1047
 9019TIP3    H248549   4.693   2.425  13.770 -2.0977  0.1620 -0.2100
 9020TIP3   OH248550   5.972   5.766  12.698  0.1989  0.0994 -0.3451
 9020TIP3    H148551   5.895   5.797  12.745  1.1829  0.6132  0.9327
 9020TIP3    H248552   5.991   5.681  12.737 -0.2546 -0.4538 -1.2931
 9021TIP3   OH248553   4.949   1.569  16.642 -0.0179  0.2661  0.1210
 9021TIP3    H148554   4.861   1.540  16.664 -0.9039  2.1961 -0.7472
 9021TIP3    H248555   5.002   1.490  16.645 -1.5197 -0.7059  1.9145
 9022TIP3   OH248556   0.513   0.807   3.757  0.3354 -0.2533  0.2884
 9022TIP3    H148557   0.497   0.715   3.779  0.9812 -1.2071 -2.9396
 9022TIP3    H248558   0.433   0.852   3.784 -1.0162 -2.1921 -0.3487
 9023TIP3   OH248559   0.688   6.637   5.698 -0.5810 -0.6970 -0.4606
 9023TIP3    H148560   0.600   6.675   5.697 -0.6626 -0.8909 -0.7203
 9023TIP3    H248561   0.743   6.705   5.735 -1.2654 -1.4831  2.1496
 9024TIP3   OH248562   5.627   4.261   5.249  0.1487 -0.1564  0.2593
 9024TIP3    H148563   5.539   4.295   5.268  0.4541  1.1456 -0.5975
 9024TIP3    H248564   5.671   4.262   5.334  0.6414  3.1183  0.0565
 9025TIP3   OH248565   5.997   0.648  15.243  0.0069 -0.1953 -0.4667
 9025TIP3    H148566   6.021   0.658  15.335  1.0181 -0.2371 -0.7187
 9025TIP3    H248567   5.914   0.600  15.244  0.6611 -1.3215  0.3737
 9026TIP3   OH248568   3.314   1.649   6.352  0.1682 -0.3489  0.3590
 9026TIP3    H148569   3.229   1.631   6.393 -0.4394  0.8610 -0.3220
 9026TIP3    H248570   3.355   1.715   6.409  0.8376 -1.2400  0.9153
 9027TIP3   OH248571   0.681   2.733   2.987 -0.8454  0.7017  0.6010
 9027TIP3    H148572   0.707   2.775   2.905 -2.0279 -1.4417 -0.9191
 9027TIP3    H248573   0.758   2.740   3.044  0.2238  1.6058 -0.9315
 9028TIP3   OH248574   3.298   4.460  13.726 -0.2080 -0.1492 -0.1224
 9028TIP3    H148575   3.273   4.454  13.634  1.0978 -1.0750 -0.4226
 9028TIP3    H248576   3.345   4.379  13.744 -0.1407  0.1814  1.2691
 9029TIP3   OH248577   0.670   0.637   0.396  0.0786 -0.7424 -0.4221
 9029TIP3    H148578   0.686   0.572   0.327 -0.4756  0.1304 -1.3933
 9029TIP3    H248579   0.711   0.717   0.363  0.6271 -0.5553  0.7030
 9030TIP3   OH248580   6.579   5.329   6.661 -0.5619  0.1728  0.0184
 9030TIP3    H148581   6.584   5.420   6.691 -0.1238  0.3803 -0.6689
 9030TIP3    H248582   6.613   5.277   6.734 -1.3674  0.5178  0.6324
 9031TIP3   OH248583   1.431   6.573  16.473 -0.1011  0.4378 -0.3097
 9031TIP3    H148584   1.440   6.661  16.509 -0.1596 -0.0644  0.9611
 9031TIP3    H248585   1.447   6.515  16.547 -1.2947 -0.6126 -0.8489
 9032TIP3   OH248586   1.284   4.406  15.122 -0.3057 -0.4519  0.5112
 9032TIP3    H148587   1.315   4.316  15.113  2.2352  0.3141  1.2134
 9032TIP3    H248588   1.207   4.398  15.178 -0.6877 -2.2756 -0.2131
 9033TIP3   OH248589   4.355   2.634   1.880  0.0151  0.0979  0.4659
 9033TIP3    H148590   4.266   2.664   1.901  0.2271  0.0898  1.3796
 9033TIP3    H248591   4.412   2.707   1.903  0.4110 -0.5356  1.5425
 9034TIP3   OH248592   2.616   0.981  16.220 -0.0749 -0.0812  0.8249
 9034TIP3    H148593   2.705   0.949  16.211 -0.3833 -0.4164 -1.4559
 9034TIP3    H248594   2.563   0.917  16.173 -1.0362  2.2037 -1.3130
 9035TIP3   OH248595   4.079   0.775  15.300 -0.4465 -0.5396 -0.1649
 9035TIP3    H148596   3.999   0.809  15.342 -1.2455 -2.0418 -0.4471
 9035TIP3    H248597   4.047   0.732  15.221  0.7566 -0.3523 -0.7622
 9036TIP3   OH248598   5.587   4.774  13.108  0.1628 -0.1165  0.0272
 9036TIP3    H148599   5.674   4.772  13.067 -0.5275  0.3883 -1.4992
 9036TIP3    H248600   5.584   4.695  13.162  1.2480 -0.5875 -0.5809
 9037TIP3   OH248601   2.478   2.101   4.394  0.0587 -0.0744 -0.1532
 9037TIP3    H148602   2.461   2.176   4.337 -1.5643 -1.7585 -1.9830
 9037TIP3    H248603   2.445   2.025   4.344  0.6467 -1.8658  2.0936
 9038TIP3   OH248604   5.595   3.688  13.807  0.1955 -0.6863  0.6960
 9038TIP3    H148605   5.527   3.752  13.783 -0.4046 -1.3262  0.6666
 9038TIP3    H248606   5.664   3.701  13.743 -0.2812 -0.6237  0.1907
 9039TIP3   OH248607   1.767   1.972  16.096 -0.4964  0.0807  0.1757
 9039TIP3    H148608   1.761   1.877  16.105 -0.3885  0.2297  1.9033
 9039TIP3    H248609   1.677   2.003  16.108 -0.5848  0.1903 -0.6938
 9040TIP3   OH248610   4.694   0.985   4.374 -0.5053  0.0239  0.0060
 9040TIP3    H148611   4.776   1.034   4.371 -1.8082  2.3385  0.6315
 9040TIP3    H248612   4.675   0.974   4.467 -0.3387 -1.5111 -0.1295
 9041TIP3   OH248613   1.910   0.331  11.504  0.0275 -0.0054 -0.0788
 9041TIP3    H148614   1.976   0.340  11.572 -0.3936  1.1439  0.1960
 9041TIP3    H248615   1.875   0.420  11.492  0.1640 -0.1649 -1.8602
 9042TIP3   OH248616   2.190   5.999   0.460 -0.1578  0.1286 -0.1633
 9042TIP3    H148617   2.150   5.928   0.410 -0.5757 -0.0395  0.4076
 9042TIP3    H248618   2.200   5.964   0.549  1.5306  0.0740 -0.3643
 9043TIP3   OH248619   1.500   2.137   4.215  0.4845  0.1680  0.4347
 9043TIP3    H148620   1.543   2.218   4.188 -0.3101 -0.5113 -3.0247
 9043TIP3    H248621   1.568   2.071   4.207 -0.1198 -0.2640 -1.3343
 9044TIP3   OH248622   0.994   6.819   6.831 -0.0616 -0.4688  0.4066
 9044TIP3    H148623   0.904   6.805   6.861  0.0756 -1.5096  0.3421
 9044TIP3    H248624   1.041   6.850   6.909 -0.3841 -0.3052  0.5350
 9045TIP3   OH248625   6.666   4.291  11.679 -0.4049  0.4945 -0.1527
 9045TIP3    H148626   6.681   4.278  11.773 -0.8048 -2.1369 -0.4071
 9045TIP3    H248627   6.754   4.305  11.643 -0.1561  0.6701  0.5151
 9046TIP3   OH248628   6.463   0.954  15.910 -0.2416  0.8309 -0.2520
 9046TIP3    H148629   6.546   0.929  15.868 -0.1780  0.5586  0.0303
 9046TIP3    H248630   6.406   0.979  15.838  0.7310  2.9341 -0.3155
 9047TIP3   OH248631   5.508   0.667   3.582  0.3201  0.0913 -0.6680
 9047TIP3    H148632   5.448   0.616   3.635  0.8266  0.4622  0.2753
 9047TIP3    H248633   5.545   0.731   3.642 -0.4403  1.6981 -1.8616
 9048TIP3   OH248634   5.284   3.917   4.843 -0.3204  0.1033  0.2704
 9048TIP3    H148635   5.235   3.931   4.761 -0.7049 -1.1508  0.2820
 9048TIP3    H248636   5.370   3.887   4.814 -0.3581 -0.0563  0.3292
 9049TIP3   OH248637   4.685   3.097   3.082  0.3737  0.3695 -0.3529
 9049TIP3    H148638   4.702   3.012   3.122  1.1775  1.4554  1.7256
 9049TIP3    H248639   4.685   3.158   3.156 -0.9228  2.0654 -1.7221
 9050TIP3   OH248640   2.441   4.149   0.897  0.0430  0.3930  0.1924
 9050TIP3    H148641   2.459   4.150   0.991  0.3441 -0.2815  0.1479
 9050TIP3    H248642   2.403   4.235   0.879 -3.0987 -0.6145  1.5544
 9051TIP3   OH248643   5.782   1.715   1.502  0.0465  0.1450  0.4766
 9051TIP3    H148644   5.829   1.670   1.433  1.1330 -0.1016  1.3609
 9051TIP3    H248645   5.833   1.793   1.520 -0.6071  0.5695  0.5145
 9052TIP3   OH248646   4.885   6.116   1.936  0.1614  0.0761  0.1291
 9052TIP3    H148647   4.815   6.163   1.982  1.1103  1.1178  0.5355
 9052TIP3    H248648   4.961   6.126   1.993  0.4042 -1.8911  0.1736
 9053TIP3   OH248649   5.010   3.430  15.083  0.1359  0.5572 -0.1494
 9053TIP3    H148650   5.073   3.383  15.139 -0.0103 -1.1290 -1.3666
 9053TIP3    H248651   5.059   3.449  15.003 -0.8309 -0.5246 -0.9977
 9054TIP3   OH248652   6.402   4.685  13.738  0.5196  0.1358  0.2221
 9054TIP3    H148653   6.325   4.733  13.768  0.0958 -0.7899  0.6396
 9054TIP3    H248654   6.367   4.602  13.707  1.2632  0.0284 -0.3358
 9055TIP3   OH248655   1.498   1.928  15.067 -0.2010 -0.5910  0.0774
 9055TIP3    H148656   1.485   1.881  15.150 -0.0571 -0.1266  0.3656
 9055TIP3    H248657   1.578   1.979  15.081 -0.7638  0.3134  0.0359
 9056TIP3   OH248658   3.863   5.377  16.522 -0.2819  0.0741 -0.1655
 9056TIP3    H148659   3.827   5.461  16.492 -0.8168  0.2288  0.8885
 9056TIP3    H248660   3.861   5.321  16.444  1.9800  1.6443 -1.4067
 9057TIP3   OH248661   0.015   3.146  14.016  0.3576 -0.0514  0.2620
 9057TIP3    H148662   0.048   3.089  13.946  0.0934 -0.2862  0.3292
 9057TIP3    H248663  -0.060   3.191  13.976  0.0888 -0.3270  0.4497
 9058TIP3   OH248664   3.056   1.808  16.122 -0.3272  0.0307  0.3831
 9058TIP3    H148665   3.056   1.834  16.215  0.1611  1.1937  0.0649
 9058TIP3    H248666   3.087   1.717  16.123 -2.0207 -0.5629  1.5116
 9059TIP3   OH248667   5.355   4.773  13.907 -0.4805 -0.4101 -0.7268
 9059TIP3    H148668   5.293   4.700  13.909 -2.6216  1.3991  1.3839
 9059TIP3    H248669   5.301   4.849  13.888  1.6182  0.7815 -2.0750
 9060TIP3   OH248670   1.599   0.558  16.131  0.6764 -0.8961  0.1110
 9060TIP3    H148671   1.635   0.470  16.132  3.2507  0.1098  1.4751
 9060TIP3    H248672   1.676   0.615  16.127 -0.8191  1.3187  1.6432
 9061TIP3   OH248673   1.871   4.764   4.966 -0.2993 -0.3356 -0.1058
 9061TIP3    H148674   1.918   4.777   5.048 -3.0365  0.3845  1.3974
 9061TIP3    H248675   1.938   4.772   4.898  1.6983  0.8673  1.9559
 9062TIP3   OH248676   3.706   5.678   2.909  0.4592  0.4017  0.0857
 9062TIP3    H148677   3.648   5.640   2.975  1.3287 -0.4614  0.3744
 9062TIP3    H248678   3.673   5.646   2.826 -0.0942  0.7515  0.1715
 9063TIP3   OH248679   0.388   1.866  15.428 -0.8147  0.3232 -0.5634
 9063TIP3    H148680   0.483   1.871  15.437 -0.8861 -0.2539  0.6445
 9063TIP3    H248681   0.366   1.936  15.367  0.4347  0.1507 -1.2233
 9064TIP3   OH248682   4.956   1.475   4.558  0.5950 -0.2596 -0.5319
 9064TIP3    H148683   4.935   1.487   4.650 -0.0534  1.0651 -0.8484
 9064TIP3    H248684   4.955   1.563   4.521 -1.5931 -0.9917 -2.3349
 9065TIP3   OH248685   0.577   6.099   1.569 -0.2379 -0.1522 -0.2096
 9065TIP3    H148686   0.662   6.082   1.610  0.6436  0.0112 -1.9311
 9065TIP3    H248687   0.528   6.017   1.580 -0.8490  0.6004  3.0930
 9066TIP3   OH248688   2.654   4.642  12.133 -0.5052 -0.6800  0.3047
 9066TIP3    H148689   2.582   4.675  12.078 -1.1576 -2.3168  0.1660
 9066TIP3    H248690   2.731   4.692  12.104 -0.9516 -1.1388 -1.7343
 9067TIP3   OH248691   0.226   4.663  16.010  0.1654  0.1686  0.5162
 9067TIP3    H148692   0.289   4.624  15.949 -1.8347 -0.2344 -1.3457
 9067TIP3    H248693   0.251   4.756  16.013  1.1610 -0.0775  0.2052
 9068TIP3   OH248694   3.191   1.522  11.298 -0.2808  0.0067 -0.3909
 9068TIP3    H148695   3.247   1.569  11.236 -0.0767  1.8648  1.1284
 9068TIP3    H248696   3.142   1.459  11.245  0.9479  0.5559 -2.1975
 9069TIP3   OH248697   2.879   4.865  10.954 -0.7601  0.6193  0.0985
 9069TIP3    H148698   2.903   4.825  11.037 -2.0316 -0.2695  0.0625
 9069TIP3    H248699   2.786   4.844  10.944 -0.6702  0.9097 -1.4353
 9070TIP3   OH248700   3.528   6.064  13.725  0.1954 -0.3262 -0.4756
 9070TIP3    H148701   3.546   6.115  13.804 -0.1435 -0.1771 -0.4936
 9070TIP3    H248702   3.435   6.079  13.707  0.2690 -0.3585 -0.9013
 9071TIP3   OH248703   3.377   3.410   0.385  0.2693 -0.6850 -0.0452
 9071TIP3    H148704   3.358   3.478   0.449  0.2821 -0.2697 -0.4808
 9071TIP3    H248705   3.399   3.333   0.438  0.5213 -0.2781  0.4482
 9072TIP3   OH248706   3.564   1.824  11.002 -0.1428 -0.1883 -0.0960
 9072TIP3    H148707   3.571   1.747  10.947 -0.4387 -1.0506  1.0492
 9072TIP3    H248708   3.650   1.831  11.045 -0.7292 -1.0094  1.2478
 9073TIP3   OH248709   6.779   2.811   4.062 -0.5880  0.1377 -0.2434
 9073TIP3    H148710   6.778   2.795   4.156 -3.2933 -0.3623 -0.3041
 9073TIP3    H248711   6.730   2.893   4.051 -0.3666  0.1519 -1.2100
 9074TIP3   OH248712   5.194   1.499   2.720  0.2460  0.4101 -0.0575
 9074TIP3    H148713   5.180   1.585   2.759  1.9188  0.3627  0.6839
 9074TIP3    H248714   5.233   1.447   2.790 -1.5990 -1.2328 -0.2188
 9075TIP3   OH248715   6.730   3.186   2.150 -0.1019  0.0253  0.1548
 9075TIP3    H148716   6.673   3.152   2.219  1.3972 -0.0589  1.3914
 9075TIP3    H248717   6.788   3.248   2.196 -1.2195  2.4666 -1.6149
 9076TIP3   OH248718   0.180   0.261  16.545 -0.0962  0.6054 -0.2817
 9076TIP3    H148719   0.199   0.320  16.472  0.1291  1.0817  0.1491
 9076TIP3    H248720   0.097   0.294  16.581 -1.9136 -1.6075 -2.2902
 9077TIP3   OH248721   0.069   3.892  12.848  0.3037  0.3614 -0.0361
 9077TIP3    H148722   0.117   3.897  12.931 -1.0187  0.6817  0.7202
 9077TIP3    H248723   0.000   3.958  12.856 -1.0419 -0.9380 -0.5948
 9078TIP3   OH248724   1.701   5.856  10.744  0.2144  0.5333 -0.2613
 9078TIP3    H148725   1.642   5.930  10.762  0.2997  1.3269 -3.0084
 9078TIP3    H248726   1.668   5.819  10.662  1.4186 -1.2270  0.0257
 9079TIP3   OH248727   3.298   6.692   5.414 -0.2369 -0.3669  0.0397
 9079TIP3    H148728   3.318   6.782   5.389 -0.2348 -0.7693 -1.4284
 9079TIP3    H248729   3.312   6.641   5.334 -3.0096 -1.2647  0.0733
 9080TIP3   OH248730   2.880   1.150  11.937  0.0734  0.5339 -0.3488
 9080TIP3    H148731   2.911   1.062  11.956  0.3836  0.7895  0.3733
 9080TIP3    H248732   2.803   1.161  11.993  0.5168  1.0081  0.1776
 9081TIP3   OH248733   5.115   0.843   1.947  0.2358  0.4863  0.5455
 9081TIP3    H148734   5.171   0.796   2.008 -3.0467 -0.5594  2.8885
 9081TIP3    H248735   5.104   0.784   1.872  0.5246 -0.1649  1.0213
 9082TIP3   OH248736   2.872   2.219  13.793  0.4205  0.3209 -0.2178
 9082TIP3    H148737   2.822   2.268  13.858 -0.8848 -0.5472 -0.5415
 9082TIP3    H248738   2.949   2.273  13.776  0.9142  0.4495  2.2358
 9083TIP3   OH248739   4.970   1.133  16.403  0.3746  0.5649 -1.1778
 9083TIP3    H148740   4.991   1.079  16.327  0.2049 -0.3415 -0.5909
 9083TIP3    H248741   4.876   1.121  16.417  0.0482  2.1593 -1.9158
 9084TIP3   OH248742   2.812   4.770   4.482 -0.0625 -0.1981 -0.0374
 9084TIP3    H148743   2.816   4.714   4.559 -0.7617 -0.6223 -0.2996
 9084TIP3    H248744   2.903   4.796   4.465 -0.0304  0.8066  1.5830
 9085TIP3   OH248745   2.476   3.441   2.372  0.1047  0.5103  0.3033
 9085TIP3    H148746   2.551   3.400   2.329  1.4525  1.7601  1.3687
 9085TIP3    H248747   2.439   3.499   2.305  0.6596  0.5672  0.0371
 9086TIP3   OH248748   2.274   1.831  11.427 -0.3058  0.0063  0.5557
 9086TIP3    H148749   2.273   1.820  11.332 -0.6899  0.5862  0.4906
 9086TIP3    H248750   2.215   1.763  11.460  0.6012 -0.8569  0.4605
 9087TIP3   OH248751   6.793   3.567   1.243 -0.0038 -0.9909  0.0144
 9087TIP3    H148752   6.885   3.566   1.269  0.4570 -0.5791 -1.5422
 9087TIP3    H248753   6.745   3.550   1.324  1.4912 -2.5545  0.6144
 9088TIP3   OH248754   2.569   6.698   6.304  0.0411 -0.6323 -0.7041
 9088TIP3    H148755   2.629   6.681   6.376  1.2467  0.5052 -1.4350
 9088TIP3    H248756   2.485   6.718   6.346  0.8020  0.2692  0.3756
 9089TIP3   OH248757   5.405   2.302   2.967 -0.3497 -0.4672 -0.0953
 9089TIP3    H148758   5.333   2.242   2.988 -2.1850  1.3703 -0.9243
 9089TIP3    H248759   5.377   2.346   2.887  1.7055  0.3207 -0.4107
 9090TIP3   OH248760   3.715   1.930   2.684  0.1248  0.1448  0.0167
 9090TIP3    H148761   3.746   1.880   2.609 -0.9125 -0.1111 -0.2594
 9090TIP3    H248762   3.715   1.868   2.757 -1.2130 -0.3030 -0.3371
 9091TIP3   OH248763   0.499   4.368  15.215 -0.6011  0.4535 -0.0877
 9091TIP3    H148764   0.468   4.291  15.166 -0.2286 -0.1733  0.6392
 9091TIP3    H248765   0.420   4.419  15.232 -1.2896 -1.1571  1.7874
 9092TIP3   OH248766   5.925   3.145   5.153  0.5678 -0.1403  0.2871
 9092TIP3    H148767   5.903   3.075   5.091 -0.4783  0.3992  0.0333
 9092TIP3    H248768   5.850   3.149   5.213 -0.5149  2.2859 -1.1023
 9093TIP3   OH248769   2.754   5.126   4.039 -0.0969 -0.2553  0.3946
 9093TIP3    H148770   2.789   5.118   3.950 -2.3244 -0.6370 -0.4781
 9093TIP3    H248771   2.753   5.037   4.073 -2.0935 -0.5464 -0.3507
 9094TIP3   OH248772   5.924   5.211  16.896  0.4940 -0.7230  0.0977
 9094TIP3    H148773   5.994   5.271  16.922  0.7370 -0.9047 -0.1298
 9094TIP3    H248774   5.968   5.126  16.886  0.4225 -0.6408 -0.9708
 9095TIP3   OH248775   0.472   2.354   1.024  0.0425 -0.2765 -0.3053
 9095TIP3    H148776   0.550   2.410   1.023 -0.4789  0.4900  0.8608
 9095TIP3    H248777   0.470   2.318   1.112 -2.0564  1.3339  0.3453
 9096TIP3   OH248778   6.547   2.820   3.602 -0.0356 -0.0731  0.3450
 9096TIP3    H148779   6.455   2.796   3.613 -0.7007  1.5052 -1.3779
 9096TIP3    H248780   6.579   2.835   3.691 -1.8104  0.6115  0.8844
 9097TIP3   OH248781   1.849   5.350   0.587 -0.2043  0.0343  0.5504
 9097TIP3    H148782   1.914   5.284   0.563 -0.3074 -0.2887  1.1441
 9097TIP3    H248783   1.887   5.433   0.557 -0.0690 -0.2896 -0.1843
 9098TIP3   OH248784   2.915   4.632  14.411 -0.0704 -0.2925  0.1168
 9098TIP3    H148785   2.851   4.578  14.365  0.0658 -1.8186  1.6854
 9098TIP3    H248786   2.865   4.708  14.441 -0.6110 -0.3069 -0.7472
 9099TIP3   OH248787   1.237   1.382   3.447 -0.0786 -0.2767 -0.2041
 9099TIP3    H148788   1.314   1.436   3.469  0.4446 -0.3536 -1.7195
 9099TIP3    H248789   1.184   1.382   3.526  2.2935 -1.6148  1.4561
 9100TIP3   OH248790   4.526   4.976   2.678  0.6025 -0.6742 -0.0552
 9100TIP3    H148791   4.445   5.021   2.655  1.9581  0.7633 -2.2157
 9100TIP3    H248792   4.498   4.887   2.702 -1.5911 -0.2308 -0.8149
 9101TIP3   OH248793   0.778   4.660  13.552  0.1552  0.2522  0.2120
 9101TIP3    H148794   0.750   4.692  13.638 -1.8832 -0.3773 -0.2028
 9101TIP3    H248795   0.874   4.658  13.558  0.0242 -0.7171  2.8199
 9102TIP3   OH248796   4.503   0.684   4.929 -0.0490 -0.7105 -0.0806
 9102TIP3    H148797   4.422   0.699   4.979  0.5675 -1.0734  1.0425
 9102TIP3    H248798   4.474   0.673   4.839 -1.1318  0.6295  0.0788
 9103TIP3   OH248799   0.165   3.972   0.831  0.6395 -0.1645 -0.3503
 9103TIP3    H148800   0.257   3.970   0.856  0.7577 -1.1491 -0.8104
 9103TIP3    H248801   0.126   3.898   0.878  0.4295 -0.7232 -1.3872
 9104TIP3   OH248802   1.717   0.505   3.310  0.1103  0.1637  0.2046
 9104TIP3    H148803   1.703   0.433   3.372 -3.5902  1.8299  1.4566
 9104TIP3    H248804   1.640   0.504   3.254  0.2675  2.7858 -0.1210
 9105TIP3   OH248805   6.138   6.527  15.320 -0.0015 -0.3305 -0.6141
 9105TIP3    H148806   6.212   6.553  15.266  0.7947 -0.8051  0.2486
 9105TIP3    H248807   6.063   6.529  15.261  0.8247 -0.6000 -1.6644
 9106TIP3   OH248808   0.131   0.849  13.006  0.0299  0.8558 -0.1625
 9106TIP3    H148809   0.058   0.821  13.061 -0.3062 -0.9509 -1.4931
 9106TIP3    H248810   0.196   0.882  13.068  0.6259 -3.3184  1.5771
 9107TIP3   OH248811   4.021   5.066   3.581  0.1276 -0.5593 -0.6398
 9107TIP3    H148812   3.950   5.039   3.639 -1.0962 -2.0996 -2.7660
 9107TIP3    H248813   3.990   5.148   3.542  0.8741  0.3836  0.7163
 9108TIP3   OH248814   4.969   1.875   3.923  0.0206 -0.2861  0.7392
 9108TIP3    H148815   4.946   1.815   3.852 -1.2080 -1.2982  1.9432
 9108TIP3    H248816   4.899   1.940   3.923  1.9762  1.9017 -1.3275
 9109TIP3   OH248817   2.522   4.089   1.158  0.2023 -0.4269  0.0491
 9109TIP3    H148818   2.445   4.046   1.196  0.3388  0.1624  1.0203
 9109TIP3    H248819   2.547   4.155   1.223  1.2539 -0.3011 -0.4677
 9110TIP3   OH248820   3.089   5.087   4.137 -0.3645  0.3554  0.3595
 9110TIP3    H148821   3.098   5.181   4.121  0.9558  0.3416  0.9663
 9110TIP3    H248822   3.179   5.054   4.139 -0.8219 -0.9303  0.1224
 9111TIP3   OH248823   4.007   1.286   1.038 -0.1538 -0.1055 -0.6372
 9111TIP3    H148824   4.079   1.337   1.001 -0.7295  0.1920 -1.3551
 9111TIP3    H248825   4.016   1.296   1.133  0.3672  0.4475 -0.7460
 9112TIP3   OH248826   3.864   3.193   2.401  0.0479 -0.4604 -0.1486
 9112TIP3    H148827   3.907   3.118   2.360 -0.7968 -1.0584  0.0497
 9112TIP3    H248828   3.931   3.262   2.400  1.0039 -1.3712  0.1574
 9113TIP3   OH248829   4.941   2.465  13.942  0.4695  0.4663  0.5605
 9113TIP3    H148830   4.955   2.430  14.029  0.3840  0.5123  0.5937
 9113TIP3    H248831   4.848   2.448  13.924 -0.1533  2.6188  1.4631
 9114TIP3   OH248832   3.461   5.064  15.900  0.0994 -0.8486  0.7104
 9114TIP3    H148833   3.418   5.047  15.816 -1.3299 -2.4114  1.7369
 9114TIP3    H248834   3.424   5.147  15.929 -0.3640 -0.9405  0.3962
 9115TIP3   OH248835   2.108   6.679  11.705 -0.9237  0.0093  0.5026
 9115TIP3    H148836   2.127   6.587  11.718 -0.0385 -0.0704 -1.1678
 9115TIP3    H248837   2.175   6.709  11.642 -1.0384  1.8352  1.2112
 9116TIP3   OH248838   2.548   3.911  10.385 -0.0785  1.0569 -0.2457
 9116TIP3    H148839   2.544   3.816  10.389  2.1502  0.9484 -0.0402
 9116TIP3    H248840   2.497   3.934  10.306  1.3195 -0.4714 -1.6197
 9117TIP3   OH248841   2.468   5.688   0.512 -0.8274 -0.3639  0.4240
 9117TIP3    H148842   2.499   5.763   0.564 -1.3924 -0.2080  0.5337
 9117TIP3    H248843   2.493   5.710   0.423  1.9806 -1.5590  0.8657
 9118TIP3   OH248844   2.509   5.234  11.896 -0.2187 -0.0884  0.2530
 9118TIP3    H148845   2.527   5.205  11.986  0.4611 -0.1571  0.0944
 9118TIP3    H248846   2.475   5.323  11.907  0.5756  0.1921  0.5391
 9119TIP3   OH248847   5.246   6.548  12.671  0.4712 -0.1935  0.5209
 9119TIP3    H148848   5.277   6.601  12.744  0.3298  0.8093 -0.1284
 9119TIP3    H248849   5.150   6.550  12.679  0.4244  0.6252 -0.1714
 9120TIP3   OH248850   0.591   2.387  12.397  0.0100  0.6322 -0.2739
 9120TIP3    H148851   0.623   2.324  12.461  0.6113 -1.2353 -2.3264
 9120TIP3    H248852   0.499   2.400  12.420  0.2881  0.2186  1.1172
 9121TIP3   OH248853   3.687   5.141   4.471 -0.1029 -0.0318 -0.2755
 9121TIP3    H148854   3.761   5.126   4.412  2.9543  1.3365  2.9984
 9121TIP3    H248855   3.676   5.057   4.516  0.3048  0.1205  0.1149
 9122TIP3   OH248856   2.696   2.499   4.727 -0.1373 -0.1424  0.2109
 9122TIP3    H148857   2.716   2.587   4.758 -1.1704 -0.0216  0.5378
 9122TIP3    H248858   2.703   2.443   4.804  0.8334 -0.4154 -0.0557
 9123TIP3   OH248859   2.561   2.705  10.873 -0.3332 -0.2700 -0.8540
 9123TIP3    H148860   2.575   2.633  10.811 -1.6821 -0.2273 -1.2226
 9123TIP3    H248861   2.490   2.756  10.835 -0.8304  0.0458  0.4690
 9124TIP3   OH248862   0.001   1.444  12.210 -0.0453  1.0204 -0.3825
 9124TIP3    H148863  -0.078   1.439  12.156  0.5953 -0.5582 -1.2129
 9124TIP3    H248864   0.064   1.491  12.155  1.1200 -1.9713 -1.7264
 9125TIP3   OH248865   2.831   0.008  13.819 -0.6408  0.6037  0.3627
 9125TIP3    H148866   2.887   0.031  13.744 -0.5010  0.5235  0.4413
 9125TIP3    H248867   2.747  -0.015  13.779 -0.4325  0.1335  0.1957
 9126TIP3   OH248868   1.348   2.157   3.200  1.0191 -0.3379 -0.6322
 9126TIP3    H148869   1.279   2.193   3.256 -0.4598 -2.5796 -0.9044
 9126TIP3    H248870   1.387   2.233   3.157  0.8489  1.2546  1.9058
 9127TIP3   OH248871   5.820   4.950  11.512  0.1640  0.2467  0.6188
 9127TIP3    H148872   5.799   4.892  11.585 -0.4696 -0.7017 -0.3030
 9127TIP3    H248873   5.777   4.910  11.436 -0.9063  2.3209  0.0976
 9128TIP3   OH248874   1.220   1.052   6.040  0.5005  0.5388  0.3174
 9128TIP3    H148875   1.154   0.999   6.085  1.8030  0.4119  2.1141
 9128TIP3    H248876   1.266   0.989   5.983  1.5985 -0.1462  1.9367
 9129TIP3   OH248877   3.000   4.329   2.123 -0.2474 -0.0246 -0.0617
 9129TIP3    H148878   2.999   4.332   2.028  1.2585 -2.3550 -0.1862
 9129TIP3    H248879   2.912   4.359   2.149 -0.4425  1.3015 -2.1084
 9130TIP3   OH248880   4.512   0.641  10.824  0.5783  0.4215 -0.3942
 9130TIP3    H148881   4.494   0.702  10.895 -2.5815 -0.2075 -0.5947
 9130TIP3    H248882   4.524   0.556  10.868 -0.0078  0.2893 -0.4792
 9131TIP3   OH248883   5.267   5.420   0.519  0.0353  0.3854 -0.1513
 9131TIP3    H148884   5.359   5.394   0.527  0.1084  0.5339 -0.5269
 9131TIP3    H248885   5.238   5.430   0.609  0.2247 -0.2491 -0.0167
 9132TIP3   OH248886   2.823   5.203  11.511 -0.2474 -0.0873  0.2495
 9132TIP3    H148887   2.759   5.157  11.565  0.0776 -0.8756 -0.0386
 9132TIP3    H248888   2.823   5.156  11.428  1.5577 -0.7925  0.6421
 9133TIP3   OH248889   1.334   6.674  16.865 -0.0227 -0.7574 -0.3831
 9133TIP3    H148890   1.367   6.670  16.955  0.3011  3.1772 -0.2401
 9133TIP3    H248891   1.239   6.673  16.875  0.0071  0.7051  0.0723
 9134TIP3   OH248892   0.742   6.761  15.187  0.4483 -0.3222  0.1417
 9134TIP3    H148893   0.708   6.721  15.266 -0.2690  1.2334  0.6238
 9134TIP3    H248894   0.690   6.840  15.174 -1.0915 -1.7859 -3.2325
 9135TIP3   OH248895   0.756   3.029   4.071  0.8148 -0.1085  0.3326
 9135TIP3    H148896   0.775   3.085   3.996  1.2224  0.5504  0.9276
 9135TIP3    H248897   0.771   2.940   4.038 -1.1985  0.0183 -1.0170
 9136TIP3   OH248898   2.699   2.311   6.526 -0.7017 -0.5608 -0.3809
 9136TIP3    H148899   2.649   2.386   6.494  0.6994  0.0336 -1.2583
 9136TIP3    H248900   2.644   2.272   6.593 -2.0036  0.5107 -0.8069
 9137TIP3   OH248901   5.512   1.002   6.184 -0.7032 -0.2316  0.7271
 9137TIP3    H148902   5.548   0.919   6.152  0.1166  0.7074 -0.8163
 9137TIP3    H248903   5.469   0.978   6.267  0.6419 -1.9556  0.9681
 9138TIP3   OH248904   3.881   1.875   4.317 -0.0645 -0.1259  0.2271
 9138TIP3    H148905   3.865   1.794   4.365 -0.0279 -1.8151 -2.4801
 9138TIP3    H248906   3.794   1.905   4.291  0.0704 -0.5226 -0.6909
 9139TIP3   OH248907   0.825   5.479   2.142  0.6297 -0.0546 -0.4424
 9139TIP3    H148908   0.812   5.503   2.234  2.7483 -0.3217 -0.0495
 9139TIP3    H248909   0.739   5.447   2.114  0.0091 -0.1922  1.4978
 9140TIP3   OH248910   3.592   0.724   6.001  0.5644  0.3106 -0.3424
 9140TIP3    H148911   3.526   0.673   5.953  1.0613 -0.3828 -0.3078
 9140TIP3    H248912   3.648   0.761   5.932  0.5374  0.3437 -0.3469
 9141TIP3   OH248913   5.231   3.548   2.400  0.4803  0.2044 -0.3898
 9141TIP3    H148914   5.152   3.497   2.418  1.3307 -1.3528 -0.9396
 9141TIP3    H248915   5.292   3.521   2.469  1.7979 -1.4757 -2.1342
 9142TIP3   OH248916   0.113   6.320  11.588  0.3542 -0.4219  0.0525
 9142TIP3    H148917   0.110   6.277  11.674  0.3490  2.0294  1.2979
 9142TIP3    H248918   0.173   6.393  11.599 -0.8110  0.8279 -1.5977
 9143TIP3   OH248919   1.972   1.922   4.114 -0.1832  0.1831  0.7943
 9143TIP3    H148920   2.021   1.859   4.061 -0.6310  0.5539 -0.0652
 9143TIP3    H248921   2.037   1.991   4.134 -0.0925  0.1974  0.4607
 9144TIP3   OH248922   3.361   6.233   3.460 -0.4845  0.4631 -0.2442
 9144TIP3    H148923   3.317   6.315   3.486  2.0291  1.7039  0.2748
 9144TIP3    H248924   3.400   6.253   3.375 -0.9036 -0.5985 -0.6803
 9145TIP3   OH248925   1.509   3.572  11.213  0.0061  0.2283 -0.1993
 9145TIP3    H148926   1.536   3.660  11.240  0.4012  0.0905 -0.1352
 9145TIP3    H248927   1.561   3.513  11.268 -1.2297 -0.0498  0.6936
 9146TIP3   OH248928   2.682   2.873  13.850 -0.2807 -0.3707 -0.6421
 9146TIP3    H148929   2.701   2.789  13.892 -1.9774 -0.1856  0.5490
 9146TIP3    H248930   2.767   2.907  13.823  0.7233 -1.0931  1.5435
 9147TIP3   OH248931   4.391   2.502  10.978 -0.0608  0.0733  0.0671
 9147TIP3    H148932   4.471   2.542  11.012  0.7097 -1.3840 -0.0029
 9147TIP3    H248933   4.421   2.424  10.933 -1.7555 -1.9734  2.3490
 9148TIP3   OH248934   0.988   3.178   0.220 -0.0512  0.5040 -0.3178
 9148TIP3    H148935   1.039   3.100   0.240 -1.2214 -0.3508 -0.5745
 9148TIP3    H248936   1.022   3.245   0.279  2.2442  0.3291 -1.4158
 9149TIP3   OH248937   5.016   3.818   2.208 -0.0813  0.3946 -0.0016
 9149TIP3    H148938   5.101   3.775   2.215 -0.3615 -0.3992 -1.1810
 9149TIP3    H248939   4.966   3.787   2.283  0.7925  1.1611  0.9017
 9150TIP3   OH248940   2.947   5.618   2.724 -0.0528 -0.3290 -0.3809
 9150TIP3    H148941   2.862   5.626   2.680 -0.0308 -2.0218 -0.7907
 9150TIP3    H248942   2.925   5.589   2.813  0.0701 -0.0926 -0.2721
 9151TIP3   OH248943   6.012   6.101   1.402 -0.0758 -0.2836  0.2028
 9151TIP3    H148944   5.937   6.048   1.430 -0.9516  0.8313 -0.0099
 9151TIP3    H248945   6.058   6.047   1.338 -0.3715 -1.2041  0.7656
 9152TIP3   OH248946   4.153   3.012   5.351  0.5799 -0.1449  0.0130
 9152TIP3    H148947   4.246   2.994   5.335  0.1264 -3.1748  0.4126
 9152TIP3    H248948   4.112   2.926   5.348 -2.3787  1.2478 -1.1046
 9153TIP3   OH248949   0.329   3.119  15.425  0.6663 -0.0452  0.1765
 9153TIP3    H148950   0.240   3.144  15.404 -0.2014 -0.6252  2.9572
 9153TIP3    H248951   0.346   3.041  15.373 -0.9242 -0.7009  0.6395
 9154TIP3   OH248952   2.094   0.400   1.594 -0.2166 -0.0018  0.4821
 9154TIP3    H148953   2.151   0.451   1.536  0.9139 -0.3413  1.2658
 9154TIP3    H248954   2.152   0.370   1.664 -1.1602 -1.1725  0.7886
 9155TIP3   OH248955   0.582   3.569  16.415 -0.0915  0.7587  0.6463
 9155TIP3    H148956   0.572   3.500  16.350  1.0719  1.8181 -0.6897
 9155TIP3    H248957   0.520   3.546  16.484 -0.1822 -1.2544 -0.0737
 9156TIP3   OH248958   2.395   2.542   5.285 -0.3647  0.4394 -0.4006
 9156TIP3    H148959   2.478   2.511   5.321 -0.3221  1.5303  0.4909
 9156TIP3    H248960   2.328   2.504   5.343 -0.3659  1.1411  0.0756
 9157TIP3   OH248961   2.154   2.140  11.706  0.4949 -0.5347 -0.4853
 9157TIP3    H148962   2.128   2.069  11.765 -0.9978  0.1571 -0.2926
 9157TIP3    H248963   2.140   2.106  11.618  0.8955 -0.8856 -0.4137
 9158TIP3   OH248964   1.265   0.334   5.010 -0.4141 -0.3967 -0.4551
 9158TIP3    H148965   1.193   0.291   4.964 -0.8391  0.2101 -0.3616
 9158TIP3    H248966   1.267   0.423   4.974 -0.9469  0.1832  0.9065
 9159TIP3   OH248967   1.248   4.611  16.756 -0.1468  0.1955 -0.3759
 9159TIP3    H148968   1.326   4.593  16.703  0.9037  1.0971  0.8379
 9159TIP3    H248969   1.204   4.682  16.709 -0.5034 -0.6405 -1.3242
 9160TIP3   OH248970   3.736   2.587  14.390 -0.3281  0.4711 -0.1764
 9160TIP3    H148971   3.819   2.634  14.398 -0.1921  0.0273  1.0315
 9160TIP3    H248972   3.744   2.512  14.449 -1.4419  0.2085 -0.3374
 9161TIP3   OH248973   6.485   3.227   1.284 -0.1869 -0.2750  0.0788
 9161TIP3    H148974   6.411   3.287   1.288  1.2334  1.5086 -0.0012
 9161TIP3    H248975   6.539   3.251   1.359  0.0623 -1.9295  0.4598
 9162TIP3   OH248976   2.320   0.846  15.915  0.0924 -0.0783 -0.0213
 9162TIP3    H148977   2.377   0.805  15.979 -0.9722 -0.8191  0.4685
 9162TIP3    H248978   2.378   0.902  15.863  0.9730  0.4476  1.5138
 9163TIP3   OH248979   1.565   3.171   2.965  0.1656 -0.1868 -0.0328
 9163TIP3    H148980   1.529   3.226   2.896 -1.0896  0.2368  0.9552
 9163TIP3    H248981   1.490   3.125   3.002  1.1225 -2.1788 -0.4765
 9164TIP3   OH248982   6.303   4.004  12.594 -0.4051  0.2730 -0.2028
 9164TIP3    H148983   6.250   4.072  12.635 -0.7275 -0.2380  0.2352
 9164TIP3    H248984   6.365   3.976  12.662 -0.8830 -0.5101 -0.0769
 9165TIP3   OH248985   2.082   4.115  14.756 -0.3231 -0.3355  0.3221
 9165TIP3    H148986   2.154   4.153  14.706 -0.1770  0.7189  1.3049
 9165TIP3    H248987   2.038   4.056  14.695  2.0772 -1.9083  0.0151
 9166TIP3   OH248988   4.259   6.375   4.958 -0.2954 -0.4657  0.2373
 9166TIP3    H148989   4.264   6.373   5.054  1.5996 -1.1567  0.1403
 9166TIP3    H248990   4.348   6.359   4.929 -0.4918  1.5974 -1.6456
 9167TIP3   OH248991   1.934   3.300  15.683  0.0363  0.3359 -0.2160
 9167TIP3    H148992   1.849   3.337  15.709 -0.0408 -1.0718  1.5877
 9167TIP3    H248993   1.974   3.271  15.765  0.3516 -3.0436 -1.4883
 9168TIP3   OH248994   1.950   0.277   3.745  0.2550  0.0165 -0.7039
 9168TIP3    H148995   2.039   0.253   3.719 -0.4899 -2.7436 -0.7926
 9168TIP3    H248996   1.950   0.269   3.841 -0.1707 -0.9302 -0.7837
 9169TIP3   OH248997   4.293   3.466  13.472  0.0053  0.0752  0.2844
 9169TIP3    H148998   4.242   3.532  13.426 -0.5958 -1.5182 -1.3615
 9169TIP3    H248999   4.362   3.442  13.410  0.7024 -0.2709  1.1847
 9170TIP3   OH249000   0.251   3.551   1.277  0.3971 -0.1927  0.2345
 9170TIP3    H149001   0.263   3.517   1.365  0.4467 -0.7802  0.0071
 9170TIP3    H249002   0.332   3.600   1.259 -0.0743  0.8468  0.9158
 9171TIP3   OH249003   0.723   4.645   4.059 -0.1343  0.3587 -0.1987
 9171TIP3    H149004   0.728   4.606   3.972  0.6100 -2.0600  0.8745
 9171TIP3    H249005   0.745   4.737   4.046  1.6633 -0.3342 -2.3204
 9172TIP3   OH249006   1.440   5.248   4.218 -0.3218  0.2834 -0.0350
 9172TIP3    H149007   1.370   5.187   4.242  0.4737 -0.8232 -0.5148
 9172TIP3    H249008   1.445   5.308   4.293 -1.4000  0.0438  0.2491
 9173TIP3   OH249009   4.721   6.617   3.307  0.1969 -0.2549  0.5386
 9173TIP3    H149010   4.774   6.688   3.270  1.6405 -1.6086 -0.0490
 9173TIP3    H249011   4.637   6.624   3.262  0.8912  0.0556 -0.7442
 9174TIP3   OH249012   2.944   2.232   5.053 -0.2198  0.4384 -0.0854
 9174TIP3    H149013   2.856   2.256   5.025 -0.7431 -1.8075 -0.4681
 9174TIP3    H249014   2.931   2.187   5.137  0.6529  0.7869  0.2452
 9175TIP3   OH249015   0.363   0.035  16.546 -0.2736  0.8762 -0.4028
 9175TIP3    H149016   0.287   0.093  16.545 -0.7064  0.3338  0.8557
 9175TIP3    H249017   0.433   0.088  16.584 -0.4893  0.7860  0.1145
 9176TIP3   OH249018   1.766   6.193   3.395 -0.4556  0.1494 -0.0039
 9176TIP3    H149019   1.838   6.231   3.445  0.1084 -0.5911 -0.2484
 9176TIP3    H249020   1.763   6.244   3.314 -0.7949  0.7702  0.3995
 9177TIP3   OH249021   3.342   0.399  13.982 -0.9132  0.4443  0.0794
 9177TIP3    H149022   3.338   0.414  14.076  1.9766 -1.3404  0.5570
 9177TIP3    H249023   3.271   0.338  13.964  0.2817 -1.4599  1.6255
 9178TIP3   OH249024   3.524   6.438  16.526  0.0124 -0.3646 -0.2663
 9178TIP3    H149025   3.505   6.389  16.446 -0.6198 -2.9687  1.4142
 9178TIP3    H249026   3.583   6.381  16.575  0.1280  1.0477  1.2694
 9179TIP3   OH249027   6.686   2.293   5.880 -0.3527  0.3611 -0.1474
 9179TIP3    H149028   6.637   2.345   5.817  1.7330  0.8845 -1.3765
 9179TIP3    H249029   6.618   2.248   5.932 -2.0919 -0.4440 -3.0149
 9180TIP3   OH249030   4.937   3.220  16.097 -0.3735 -0.2998 -0.0817
 9180TIP3    H149031   5.004   3.242  16.032  0.3982  0.8857  1.0692
 9180TIP3    H249032   4.959   3.275  16.172 -0.6524 -2.3876  1.5468
 9181TIP3   OH249033   3.707   3.874  17.284  0.4377  0.2697  0.3701
 9181TIP3    H149034   3.795   3.836  17.279 -0.3442 -1.3115 -2.8831
 9181TIP3    H249035   3.650   3.798  17.297 -0.5815  1.1264  0.9357
 9182TIP3   OH249036   3.744   5.107   3.456  0.2553 -0.4459  0.2157
 9182TIP3    H149037   3.756   5.067   3.370  0.5717 -0.4243  0.2469
 9182TIP3    H249038   3.741   5.201   3.438 -0.5711 -0.4850  0.1343
 9183TIP3   OH249039   5.852   2.082  17.063 -0.0667 -0.5074 -0.3079
 9183TIP3    H149040   5.821   2.060  16.975 -2.3115 -1.5337  0.7067
 9183TIP3    H249041   5.774   2.074  17.119  1.7234 -1.7170  2.0936
 9184TIP3   OH249042   5.815   4.370   4.449 -0.2440 -0.0293 -0.3242
 9184TIP3    H149043   5.879   4.379   4.520  0.4619 -2.0911 -0.6694
 9184TIP3    H249044   5.827   4.280   4.417 -0.9805  0.6576 -2.6360
 9185TIP3   OH249045   6.321   1.782  16.314  0.1695 -0.7833 -0.1537
 9185TIP3    H149046   6.263   1.825  16.377  0.8795  0.3646 -0.2734
 9185TIP3    H249047   6.309   1.832  16.233  0.4317 -1.2845 -0.5037
 9186TIP3   OH249048   0.359   3.945   0.576 -0.4067  0.5986 -0.2835
 9186TIP3    H149049   0.430   3.970   0.635  0.7373 -0.1589 -1.3215
 9186TIP3    H249050   0.308   3.881   0.625  0.5423 -0.0362 -0.1207
 9187TIP3   OH249051   1.934   2.132   1.313 -0.2449 -0.0273 -0.0700
 9187TIP3    H149052   1.988   2.180   1.376  0.1026 -0.4897 -0.0063
 9187TIP3    H249053   1.880   2.074   1.367 -1.1178  0.7433 -0.1121
 9188TIP3   OH249054   2.699   1.376  10.807 -0.2734 -0.0152  0.2322
 9188TIP3    H149055   2.739   1.340  10.886 -0.8229 -1.0511  0.0445
 9188TIP3    H249056   2.610   1.400  10.833 -0.7375 -1.1442 -0.2664
 9189TIP3   OH249057   5.065   0.951   1.229  0.3846 -0.1827 -0.3715
 9189TIP3    H149058   5.120   0.948   1.151  0.7172  2.0786 -0.2705
 9189TIP3    H249059   5.008   1.027   1.216 -0.1400 -0.2643  1.2121
 9190TIP3   OH249060   5.008   2.673  14.235 -0.1037 -0.3718 -0.5551
 9190TIP3    H149061   5.065   2.611  14.190 -0.5888 -0.7988 -0.5857
 9190TIP3    H249062   5.035   2.667  14.327 -1.4409 -2.0668 -0.2448
 9191TIP3   OH249063   3.597   2.351   3.863 -0.4190 -0.2366  0.0098
 9191TIP3    H149064   3.633   2.372   3.949  2.5420  0.4940 -1.3655
 9191TIP3    H249065   3.536   2.422   3.844 -0.4702  0.0244  1.1599
 9192TIP3   OH249066   2.811   6.257   5.619 -0.3167 -0.0700  0.2188
 9192TIP3    H149067   2.854   6.217   5.543 -0.3335  0.7666 -0.2384
 9192TIP3    H249068   2.871   6.243   5.692  0.3114  0.2941 -0.2295
 9193TIP3   OH249069   0.023   0.209   4.987 -0.0015  0.1638  0.4181
 9193TIP3    H149070   0.007   0.238   5.076 -3.3644  0.5386 -0.2608
 9193TIP3    H249071  -0.039   0.137   4.973 -1.2938  1.7465 -2.3934
 9194TIP3   OH249072   6.560   4.332   1.558 -0.2236 -0.7879 -0.8600
 9194TIP3    H149073   6.485   4.390   1.577  0.2750  0.5091 -2.7294
 9194TIP3    H249074   6.626   4.390   1.521  1.5698 -2.0059  0.3598
 9195TIP3   OH249075   5.876   4.521  14.842 -0.1444 -0.9827 -0.9210
 9195TIP3    H149076   5.786   4.521  14.876  0.1393  0.8914 -0.1508
 9195TIP3    H249077   5.922   4.459  14.898 -0.6816 -1.0703 -0.5662
 9196TIP3   OH249078   6.189   3.848  11.493 -0.2638 -0.2833 -0.3754
 9196TIP3    H149079   6.274   3.890  11.504  0.5729 -1.5261 -1.8906
 9196TIP3    H249080   6.126   3.918  11.506  0.9195  0.2763  2.6229
 9197TIP3   OH249081   0.154   2.108   3.996 -0.3685 -0.5285  0.3786
 9197TIP3    H149082   0.113   2.177   4.048  0.4019  0.1529  0.0768
 9197TIP3    H249083   0.248   2.126   4.001 -0.2131 -1.1333 -0.3024
 9198TIP3   OH249084   5.766   5.056  11.938  0.1707  0.0080  0.1029
 9198TIP3    H149085   5.736   5.110  11.865 -0.9192 -0.5121  0.1595
 9198TIP3    H249086   5.698   5.066  12.004  1.2405  0.6370  1.1507
 9199TIP3   OH249087   4.544   3.068  14.497  0.2426 -0.0995 -0.0770
 9199TIP3    H149088   4.586   3.127  14.434  0.6921 -0.5219 -0.1740
 9199TIP3    H249089   4.485   3.015  14.445  1.1777 -0.9719 -0.2665
 9200TIP3   OH249090   6.309   2.104  13.198  0.4627 -0.4453 -0.0415
 9200TIP3    H149091   6.313   2.020  13.153  0.8332 -1.4292  1.8171
 9200TIP3    H249092   6.215   2.121  13.207  0.3891 -0.8019 -0.1210
 9201TIP3   OH249093   5.463   6.485  11.775  0.0277  0.2879  0.1843
 9201TIP3    H149094   5.370   6.505  11.765 -0.5993 -1.4671  2.1462
 9201TIP3    H249095   5.473   6.465  11.868  1.3343 -4.4677 -0.8367
 9202TIP3   OH249096   3.227   3.850   1.848  0.4063  0.2373  1.0139
 9202TIP3    H149097   3.284   3.795   1.900  0.9539 -0.4032 -0.2364
 9202TIP3    H249098   3.199   3.920   1.908  2.2727  0.4113  1.7130
 9203TIP3   OH249099   2.136   2.734  15.675 -0.4865  0.1034  0.0252
 9203TIP3    H149100   2.151   2.701  15.587 -1.4110 -1.3184  0.3815
 9203TIP3    H249101   2.220   2.723  15.720 -0.0257  0.8023 -0.6569
 9204TIP3   OH249102   4.677   5.563   1.823 -0.4563 -0.4106 -0.4545
 9204TIP3    H149103   4.602   5.542   1.878  1.5999 -3.1471  1.4100
 9204TIP3    H249104   4.670   5.503   1.749 -0.0725 -0.6868 -0.2643
 9205TIP3   OH249105   2.215   4.903  17.183  0.1746 -0.2206 -0.2571
 9205TIP3    H149106   2.267   4.885  17.261  2.9062 -0.2074 -2.0198
 9205TIP3    H249107   2.177   4.818  17.160  0.5425 -0.5255  0.2558
 9206TIP3   OH249108   0.576   5.745   2.819 -1.2200  0.3476 -0.5598
 9206TIP3    H149109   0.572   5.714   2.910 -0.5964 -0.3451 -0.7592
 9206TIP3    H249110   0.495   5.794   2.807 -1.4729  0.1499  0.2674
 9207TIP3   OH249111   3.227   5.347  10.671 -0.1400 -0.2397 -0.4109
 9207TIP3    H149112   3.209   5.256  10.645 -1.8405  0.4882 -1.9111
 9207TIP3    H249113   3.187   5.400  10.602  0.9013  1.6617  0.4051
 9208TIP3   OH249114   2.025   0.838   1.890  1.1297 -0.2747  0.2139
 9208TIP3    H149115   2.040   0.846   1.984 -0.2726 -2.0316  0.6320
 9208TIP3    H249116   2.071   0.912   1.851 -0.0680  1.7375  2.4821
 9209TIP3   OH249117   5.154   0.734   2.403  0.4565 -0.5708  0.3435
 9209TIP3    H149118   5.154   0.823   2.369 -2.5258 -1.1190 -1.2789
 9209TIP3    H249119   5.222   0.689   2.352  0.9126  0.3795  0.0933
 9210TIP3   OH249120   0.832   6.754   3.571  0.2560 -0.5751  0.0095
 9210TIP3    H149121   0.901   6.690   3.589  1.1235  0.0977 -0.8889
 9210TIP3    H249122   0.857   6.794   3.488 -1.0555 -0.0974 -0.1669
 9211TIP3   OH249123   5.722   0.125  14.150  0.2405  0.5453  0.4461
 9211TIP3    H149124   5.743   0.060  14.082 -0.9769 -0.4822  1.0335
 9211TIP3    H249125   5.642   0.093  14.190 -2.0159  3.9623 -1.1376
 9212TIP3   OH249126   2.018   3.711  16.394 -0.9878  0.6498 -0.2408
 9212TIP3    H149127   1.922   3.710  16.396 -1.0109 -3.2135  0.5351
 9212TIP3    H249128   2.040   3.688  16.304 -0.7269  2.0956 -0.5716
 9213TIP3   OH249129   3.335   1.624  11.999  0.1678  0.2022 -0.1444
 9213TIP3    H149130   3.281   1.700  12.020  0.2006  0.0280  0.5804
 9213TIP3    H249131   3.384   1.650  11.921 -0.5361  0.5717 -0.4663
 9214TIP3   OH249132   6.281   1.142  16.959  0.3193 -0.2764 -0.1199
 9214TIP3    H149133   6.315   1.053  16.968 -1.5955 -1.1954 -1.5289
 9214TIP3    H249134   6.308   1.187  17.039  3.1956 -1.4795 -0.3665
 9215TIP3   OH249135   1.468   3.724  13.618 -0.3785  0.3255  0.0667
 9215TIP3    H149136   1.380   3.716  13.656 -0.7072  3.1515  0.0098
 9215TIP3    H249137   1.488   3.636  13.586 -2.2614 -0.8998  2.0658
 9216TIP3   OH249138   6.115   3.205   3.179 -0.3615 -0.4526 -0.0928
 9216TIP3    H149139   6.103   3.294   3.212  0.8318 -0.7936  1.3265
 9216TIP3    H249140   6.084   3.149   3.251  0.2405 -1.1973 -0.4122
 9217TIP3   OH249141   3.582   5.161  16.445  0.8202  0.0282  0.0744
 9217TIP3    H149142   3.553   5.233  16.388 -1.2058 -0.1110  0.9065
 9217TIP3    H249143   3.643   5.203  16.506  1.5689  0.5444 -1.0141
 9218TIP3   OH249144   6.679   6.772   5.951 -0.4672 -0.4773 -0.0862
 9218TIP3    H149145   6.765   6.784   5.993 -0.3248  1.1861 -0.8377
 9218TIP3    H249146   6.685   6.685   5.911  0.1407 -1.2232  1.5542
 9219TIP3   OH249147   3.739   3.032  12.139  0.5483 -0.1955 -0.0054
 9219TIP3    H149148   3.765   2.997  12.054  1.8922 -1.6921  0.9844
 9219TIP3    H249149   3.768   2.966  12.202 -1.8289  0.1381  1.5180
 9220TIP3   OH249150   1.678   3.637   6.433 -0.3375  0.6017  0.1277
 9220TIP3    H149151   1.658   3.717   6.482 -2.8086  0.1293 -0.0163
 9220TIP3    H249152   1.770   3.646   6.409  0.7709  1.2136  4.1404
 9221TIP3   OH249153   1.291   5.188   5.031 -0.2280 -0.7414 -0.5072
 9221TIP3    H149154   1.226   5.252   5.061 -0.7420 -0.5687 -1.9217
 9221TIP3    H249155   1.265   5.107   5.073 -1.7103 -0.7889 -1.4479
 9222TIP3   OH249156   0.887   2.135   3.916  0.8159  0.3069 -0.5674
 9222TIP3    H149157   0.945   2.077   3.965  1.5993  0.3662 -1.4127
 9222TIP3    H249158   0.931   2.220   3.917  0.8051  0.3235 -1.3118
 9223TIP3   OH249159   2.332   6.425   2.989 -0.3595 -0.0773 -0.0303
 9223TIP3    H149160   2.249   6.451   3.030  0.5946  2.4613  0.3483
 9223TIP3    H249161   2.360   6.501   2.939  1.4798 -1.1046 -0.6186
 9224TIP3   OH249162   3.578   4.386  11.053 -0.1653 -0.0477 -0.6895
 9224TIP3    H149163   3.595   4.362  10.962 -3.1075  0.5958 -1.4787
 9224TIP3    H249164   3.507   4.328  11.081  0.8044 -0.3396  1.2553
 9225TIP3   OH249165   3.022   4.785  15.044 -0.4064  0.2861 -0.0193
 9225TIP3    H149166   3.018   4.872  15.004 -0.5249 -0.0281 -0.6938
 9225TIP3    H249167   3.108   4.751  15.018 -0.6175 -0.0502 -0.2781
 9226TIP3   OH249168   1.147   4.783  10.542 -0.4452  0.1030  0.1612
 9226TIP3    H149169   1.187   4.761  10.458 -2.6423 -0.1826 -0.8329
 9226TIP3    H249170   1.140   4.699  10.588  0.4580  0.2142  0.5160
 9227TIP3   OH249171   0.714   2.119  16.812 -0.3833  0.3480 -0.5024
 9227TIP3    H149172   0.791   2.174  16.798 -0.2141 -0.2037 -1.7382
 9227TIP3    H249173   0.659   2.135  16.736 -0.5795 -0.7755 -0.6038
 9228TIP3   OH249174   0.168   2.637   0.442 -0.6891  0.1275 -0.2071
 9228TIP3    H149175   0.198   2.554   0.406 -2.3531 -0.7117  0.2720
 9228TIP3    H249176   0.165   2.697   0.367  1.2909 -0.0047 -0.4062
 9229TIP3   OH249177   5.958   6.142   0.992 -0.0829  0.3488  0.3686
 9229TIP3    H149178   5.916   6.228   0.980 -0.4921 -0.0431 -1.1083
 9229TIP3    H249179   5.888   6.086   1.026  0.4790  0.8613  2.4880
 9230TIP3   OH249180   4.754   5.187   6.483  0.3977  0.9224 -0.1859
 9230TIP3    H149181   4.735   5.118   6.546  2.9538 -1.1711 -1.5944
 9230TIP3    H249182   4.686   5.177   6.416  0.7843 -0.3524 -0.4188
 9231TIP3   OH249183   3.037   6.375  16.184  0.4354  0.7175  0.0810
 9231TIP3    H149184   3.019   6.432  16.259 -0.8050  1.9925 -1.1564
 9231TIP3    H249185   3.130   6.354  16.192  0.1166  0.0388  2.4906
 9232TIP3   OH249186   6.419   2.334  10.829  0.0493 -0.1865 -0.5988
 9232TIP3    H149187   6.351   2.287  10.877  0.9960 -0.4419  0.4959
 9232TIP3    H249188   6.376   2.415  10.801 -0.0801  0.6840  2.0056
 9233TIP3   OH249189   0.211   0.518   1.727  0.3235 -0.0871  0.0322
 9233TIP3    H149190   0.157   0.549   1.799  1.2233 -0.9554  1.1063
 9233TIP3    H249191   0.169   0.552   1.648 -1.2523  0.0202  0.9070
 9234TIP3   OH249192   5.440   4.020   0.880  0.1681  0.1246  0.0395
 9234TIP3    H149193   5.505   4.069   0.830  0.7932  0.5087  1.2363
 9234TIP3    H249194   5.356   4.055   0.850  0.1409 -3.5254 -4.9980
 9235TIP3   OH249195   3.344   5.215   4.884 -0.2943  0.0003 -0.1942
 9235TIP3    H149196   3.334   5.151   4.955  0.3706 -0.7335 -0.7535
 9235TIP3    H249197   3.254   5.236   4.858 -0.5623  0.7802  1.3082
 9236TIP3   OH249198   0.872   0.136  17.201  0.3303  0.1398 -0.7111
 9236TIP3    H149199   0.957   0.098  17.220  0.4971  0.2815 -1.1449
 9236TIP3    H249200   0.892   0.223  17.166 -0.0883  1.0545  1.2775
 9237TIP3   OH249201   4.338   1.720  11.295 -0.7670 -0.1397  0.3612
 9237TIP3    H149202   4.403   1.790  11.305 -0.6195 -0.2627  0.2743
 9237TIP3    H249203   4.258   1.756  11.333 -0.2005 -0.6456  2.0686
 9238TIP3   OH249204   0.499   6.156  12.539  0.4334 -0.4405  0.5576
 9238TIP3    H149205   0.492   6.229  12.478  0.3569 -2.6578 -2.1699
 9238TIP3    H249206   0.588   6.124  12.527  0.1856 -1.3413  1.0991
 9239TIP3   OH249207   2.296   2.743  15.913  0.5876  0.1016 -0.4029
 9239TIP3    H149208   2.359   2.671  15.910  0.5419  0.0947 -1.5186
 9239TIP3    H249209   2.221   2.708  15.960  1.3342  0.0466  0.7659
 9240TIP3   OH249210   5.003   2.288   1.414  0.0128  0.1178  0.2013
 9240TIP3    H149211   4.923   2.329   1.448 -0.2394 -0.7304  0.6420
 9240TIP3    H249212   5.016   2.328   1.328 -1.9094 -1.0827 -0.6669
 9241TIP3   OH249213   3.437   5.374   3.558  0.0095 -0.1971  0.3159
 9241TIP3    H149214   3.437   5.448   3.619 -0.2518  0.2517 -0.2318
 9241TIP3    H249215   3.520   5.382   3.510 -0.2846  0.0695 -0.1463
 9242TIP3   OH249216   0.796   4.804   1.872  0.6390  0.5047 -0.1116
 9242TIP3    H149217   0.808   4.783   1.779 -1.2502  1.8819 -0.7098
 9242TIP3    H249218   0.883   4.830   1.902  1.2328  0.2642 -1.5539
 9243TIP3   OH249219   4.181   0.152  16.005  0.2459 -0.1004  0.0510
 9243TIP3    H149220   4.232   0.072  15.995  1.0195 -0.2156  3.9835
 9243TIP3    H249221   4.246   0.220  16.019 -0.4999  0.8373 -0.9750
 9244TIP3   OH249222   1.995   5.774   0.056  0.2008  0.4188 -0.1116
 9244TIP3    H149223   1.986   5.688   0.015 -0.2725  1.2926 -1.8645
 9244TIP3    H249224   2.066   5.816   0.007  0.1162  1.2082  0.4385
 9245TIP3   OH249225   4.808   1.819   4.724  0.0890  0.2233 -0.3504
 9245TIP3    H149226   4.846   1.791   4.641  0.0229  0.5580 -0.4960
 9245TIP3    H249227   4.860   1.895   4.750 -0.7455  0.9395 -0.7631
 9246TIP3   OH249228   4.312   1.368   3.398  0.2741 -0.1827  0.0489
 9246TIP3    H149229   4.278   1.437   3.455  1.2573 -1.5210  2.3250
 9246TIP3    H249230   4.399   1.398   3.374  0.1128  0.0798 -0.2058
 9247TIP3   OH249231   0.550   1.558  15.378 -0.1499  0.3820  0.1758
 9247TIP3    H149232   0.460   1.532  15.360 -0.6395  1.2037  1.3850
 9247TIP3    H249233   0.551   1.653  15.362  0.6851  0.2679 -0.5246
 9248TIP3   OH249234   1.769   3.594  11.014 -0.5757 -0.7623 -0.2154
 9248TIP3    H149235   1.793   3.518  11.068  1.0322  0.0918  0.3176
 9248TIP3    H249236   1.839   3.601  10.950  0.0296  1.0724  0.5978
 9249TIP3   OH249237   3.113   5.992  13.882  0.1310 -0.3288  0.8003
 9249TIP3    H149238   3.159   5.996  13.798 -0.8537  0.7753  0.3187
 9249TIP3    H249239   3.052   6.065  13.881  1.7500  1.1628  3.4508
 9250TIP3   OH249240   0.924   1.808  14.397 -0.3012  0.0323 -0.4875
 9250TIP3    H149241   0.936   1.713  14.393  0.6083  0.0525  1.0974
 9250TIP3    H249242   0.997   1.839  14.451 -1.2822  1.4786  0.0552
 9251TIP3   OH249243   6.462   4.158   6.454  0.5142  0.1425  0.1430
 9251TIP3    H149244   6.491   4.224   6.516  1.2373  1.5159 -1.5983
 9251TIP3    H249245   6.536   4.098   6.446  0.5284  0.1268  0.3878
 9252TIP3   OH249246   0.706   2.398   4.105  0.0619 -0.0316 -0.0765
 9252TIP3    H149247   0.627   2.447   4.080  0.4215  1.3519  1.4159
 9252TIP3    H249248   0.735   2.357   4.023 -1.0843  1.0520 -1.0591
 9253TIP3   OH249249   4.191   5.261  14.962 -0.2179  0.1743 -0.0039
 9253TIP3    H149250   4.116   5.209  14.990 -0.8498  0.5864 -0.9013
 9253TIP3    H249251   4.215   5.223  14.877  2.4329 -1.8673  1.5932
 9254TIP3   OH249252   2.426   3.125  13.623 -0.1416  0.1286 -0.0843
 9254TIP3    H149253   2.398   3.034  13.612  2.0471 -0.6122  0.3164
 9254TIP3    H249254   2.426   3.160  13.534 -1.3971 -0.1214 -0.1949
 9255TIP3   OH249255   0.732   5.376  12.143  0.0409  0.9804 -0.0991
 9255TIP3    H149256   0.769   5.387  12.055 -0.1702  0.7004 -0.2217
 9255TIP3    H249257   0.663   5.311  12.132  1.2014 -0.3873  0.6111
 9256TIP3   OH249258   3.776   4.247  14.962 -0.1772  0.2457 -0.0891
 9256TIP3    H149259   3.863   4.244  14.923 -0.2074  0.7657 -0.2003
 9256TIP3    H249260   3.742   4.158  14.952 -0.2664  0.4261 -1.4342
 9257TIP3   OH249261   3.578   6.777  14.717 -0.7477 -0.5209  0.1291
 9257TIP3    H149262   3.522   6.711  14.756 -0.0608 -1.1469  0.0823
 9257TIP3    H249263   3.656   6.728  14.688 -0.3504  0.2607 -0.1457
 9258TIP3   OH249264   2.122   0.752   0.760  0.4255 -0.1556  0.0267
 9258TIP3    H149265   2.158   0.821   0.817 -0.2069  1.6925 -1.7652
 9258TIP3    H249266   2.028   0.758   0.772  0.3954 -1.1567  0.3357
 9259TIP3   OH249267   4.394   4.818  15.057 -0.0653 -0.2054  0.4249
 9259TIP3    H149268   4.352   4.738  15.090  0.3746 -0.4356  0.4381
 9259TIP3    H249269   4.407   4.872  15.134  0.6512 -0.5997  0.5932
 9260TIP3   OH249270   2.048   0.919   2.909  0.3392  0.0001  0.1417
 9260TIP3    H149271   2.040   1.013   2.920  0.6504 -0.0325  0.6841
 9260TIP3    H249272   1.971   0.882   2.951 -0.4022  0.0661 -1.1184
 9261TIP3   OH249273   5.219   4.736  15.809 -0.0688  0.2111 -0.3317
 9261TIP3    H149274   5.218   4.646  15.842 -1.2550  0.0731 -0.7255
 9261TIP3    H249275   5.223   4.727  15.714  2.3383  0.6038 -0.3066
 9262TIP3   OH249276   4.713   6.626   0.307  0.3956 -0.4554 -0.7164
 9262TIP3    H149277   4.693   6.537   0.278  2.5500 -1.1202 -0.2131
 9262TIP3    H249278   4.808   6.630   0.309  0.3137  1.7052 -0.2177
 9263TIP3   OH249279   6.183   2.676  13.506 -0.2431  0.1581 -0.2154
 9263TIP3    H149280   6.238   2.752  13.487  0.4543 -0.6541 -1.5232
 9263TIP3    H249281   6.192   2.662  13.600  1.6707  0.1271 -0.3886
 9264TIP3   OH249282   5.809   3.910   2.260  0.4235 -0.1061 -0.9192
 9264TIP3    H149283   5.719   3.875   2.256  0.1209  0.5194  0.2800
 9264TIP3    H249284   5.864   3.837   2.230 -0.4708 -0.5211 -1.5834
 9265TIP3   OH249285   0.353   5.801   6.247 -0.3707 -0.8838 -0.0651
 9265TIP3    H149286   0.313   5.835   6.327 -0.5374 -0.5995 -0.2688
 9265TIP3    H249287   0.354   5.706   6.260  0.8863 -0.7608  0.8672
 9266TIP3   OH249288   5.645   1.311  10.864 -0.2466 -0.3456  0.0289
 9266TIP3    H149289   5.650   1.392  10.914 -1.1154  0.1598 -0.6741
 9266TIP3    H249290   5.734   1.297  10.832 -0.2250  0.7199 -0.4213
 9267TIP3   OH249291   1.521   0.475   6.078  0.5938 -0.0606  0.0355
 9267TIP3    H149292   1.612   0.500   6.097  0.6109  0.3639 -0.6094
 9267TIP3    H249293   1.480   0.467   6.164  0.5145  2.4763  0.2535
 9268TIP3   OH249294   4.511   5.844  11.597 -0.0295  0.6467  0.1980
 9268TIP3    H149295   4.417   5.842  11.577 -0.2421 -0.3619  1.2223
 9268TIP3    H249296   4.552   5.874  11.516 -1.0844 -0.6805 -0.8546
 9269TIP3   OH249297   1.559   0.803  15.931  0.4705 -0.0934 -0.0088
 9269TIP3    H149298   1.638   0.841  15.893  1.0272 -0.5382  0.7057
 9269TIP3    H249299   1.546   0.721  15.882  1.4493 -0.8975  1.0568
 9270TIP3   OH249300   6.617   6.186  15.274  0.4338  0.1316 -0.0338
 9270TIP3    H149301   6.667   6.133  15.336 -0.8607 -1.3309 -0.2163
 9270TIP3    H249302   6.672   6.263  15.259  1.4795 -0.2396  1.7085
 9271TIP3   OH249303   6.631   4.911   1.588  0.3714 -0.5006 -0.0155
 9271TIP3    H149304   6.673   4.969   1.524 -0.8922  0.0216 -0.3991
 9271TIP3    H249305   6.664   4.823   1.566  0.9768 -0.1525 -0.5300
 9272TIP3   OH249306   0.791   6.343   5.793  0.2653  0.5805 -0.3040
 9272TIP3    H149307   0.709   6.297   5.773 -1.3037  2.6444  1.0970
 9272TIP3    H249308   0.763   6.433   5.810  3.0309  1.6595 -1.2241
 9273TIP3   OH249309   3.042   0.242   4.169  0.1516  0.2610  0.1526
 9273TIP3    H149310   2.981   0.172   4.191  0.2335  0.2656  0.4027
 9273TIP3    H249311   3.047   0.295   4.249  1.1921 -0.2618  0.4427
 9274TIP3   OH249312   2.675   3.304   1.558 -0.2344 -0.1802  0.1400
 9274TIP3    H149313   2.589   3.265   1.572 -0.5194  0.9428  1.7301
 9274TIP3    H249314   2.712   3.256   1.484 -2.4820 -0.2496 -0.9830
 9275TIP3   OH249315   4.036   0.110   3.803 -0.1551 -0.0511 -0.2603
 9275TIP3    H149316   4.034   0.203   3.822  0.5436  0.0771 -0.7814
 9275TIP3    H249317   4.084   0.071   3.876  0.6147  0.1575 -0.6485
 9276TIP3   OH249318   5.682   1.288  13.057 -0.3846  0.1594  0.0934
 9276TIP3    H149319   5.703   1.375  13.090  0.3233  0.1000 -0.1830
 9276TIP3    H249320   5.603   1.262  13.105 -1.1468  1.3345 -0.5024
 9277TIP3   OH249321   6.567   4.732   6.660 -0.0773  0.3139 -0.0303
 9277TIP3    H149322   6.492   4.742   6.719 -0.6069 -3.1980  0.0239
 9277TIP3    H249323   6.630   4.681   6.711 -0.0656 -1.7436 -2.0338
 9278TIP3   OH249324   4.175   3.862  13.713  0.1569 -0.6350 -0.1790
 9278TIP3    H149325   4.222   3.778  13.715  1.7557  0.1973 -1.5624
 9278TIP3    H249326   4.111   3.852  13.643  0.1943 -0.7851 -0.1926
 9279TIP3   OH249327   1.986   3.878  15.590  0.2652  0.4132  0.4313
 9279TIP3    H149328   1.910   3.906  15.539  0.6045  2.7144  1.1679
 9279TIP3    H249329   2.061   3.909  15.539  0.6854 -0.2455  0.6441
 9280TIP3   OH249330   5.536   4.591  11.056  0.0458 -0.5014 -0.1279
 9280TIP3    H149331   5.526   4.512  11.109 -0.2452  0.4022  1.2005
 9280TIP3    H249332   5.470   4.583  10.987  0.3039 -1.6050 -0.2472
 9281TIP3   OH249333   1.486   3.856   4.206 -0.3349  0.2385  1.0815
 9281TIP3    H149334   1.574   3.893   4.214 -0.8005  1.4637  0.8164
 9281TIP3    H249335   1.441   3.885   4.285 -0.4646 -0.4684  1.2649
 9282TIP3   OH249336   3.790   2.845   5.236 -0.4901  0.5462  0.4391
 9282TIP3    H149337   3.813   2.909   5.304  0.0235  0.2539  0.5344
 9282TIP3    H249338   3.782   2.898   5.157  0.2768  0.6809  0.4466
 9283TIP3   OH249339   4.787   0.197   0.061 -0.3169  0.0401  0.5708
 9283TIP3    H149340   4.781   0.207  -0.034 -0.2061  0.7569  0.6395
 9283TIP3    H249341   4.719   0.133   0.083  1.6144 -2.4778 -0.3709
 9284TIP3   OH249342   0.585   2.666  11.773  0.0576 -0.7391 -0.2676
 9284TIP3    H149343   0.493   2.647  11.791  0.0326  0.0790  0.5255
 9284TIP3    H249344   0.633   2.613  11.837  0.1178 -0.6744 -0.2588
 9285TIP3   OH249345   3.712   0.679  14.881 -0.0410  0.1329  0.8193
 9285TIP3    H149346   3.727   0.598  14.832 -0.3106  0.7368 -0.2672
 9285TIP3    H249347   3.724   0.749  14.817 -0.7379  0.9175  1.5327
 9286TIP3   OH249348   4.490   5.851  16.911 -0.1843 -0.4134  0.6837
 9286TIP3    H149349   4.584   5.871  16.911 -0.0345 -1.0898  0.6449
 9286TIP3    H249350   4.449   5.925  16.955  0.2393  0.4956 -0.4263
 9287TIP3   OH249351   2.584   3.509  12.811  0.3435  0.5506 -0.0370
 9287TIP3    H149352   2.505   3.539  12.856 -0.3607 -0.2013 -0.7750
 9287TIP3    H249353   2.607   3.581  12.752 -1.0839 -0.1516 -1.4739
 9288TIP3   OH249354   3.023   2.445   1.838 -0.3684 -0.5902  0.5776
 9288TIP3    H149355   3.052   2.536   1.835 -1.3108 -0.3332 -1.0326
 9288TIP3    H249356   2.961   2.437   1.766 -0.4298 -2.4641  0.8193
 9289TIP3   OH249357   3.961   1.084  15.322  0.1855 -0.2168  0.1515
 9289TIP3    H149358   3.951   1.056  15.231 -1.8135 -1.5307  0.7547
 9289TIP3    H249359   3.924   1.013  15.374 -1.4882  1.8495  1.8631
 9290TIP3   OH249360   3.358   2.997   3.018 -0.0855 -0.0478  0.4676
 9290TIP3    H149361   3.373   3.042   2.935  0.9923  0.5476  0.9692
 9290TIP3    H249362   3.343   3.068   3.081 -1.7237 -0.5207  0.6331
 9291TIP3   OH249363   4.178   0.347  11.179 -0.6330 -0.3664  0.4446
 9291TIP3    H149364   4.238   0.274  11.193  0.0546 -0.0200 -0.6300
 9291TIP3    H249365   4.232   0.425  11.192 -0.2977 -0.0417 -2.6058
 9292TIP3   OH249366   5.686   1.484   4.410  0.1666  0.0411 -0.3901
 9292TIP3    H149367   5.596   1.460   4.433  0.1030  2.1594  1.7816
 9292TIP3    H249368   5.690   1.474   4.315 -1.0461 -4.2869 -0.1252
 9293TIP3   OH249369   4.383   6.766   1.639  0.1431  0.2153  0.5157
 9293TIP3    H149370   4.344   6.780   1.553  3.5306  2.4163 -0.7780
 9293TIP3    H249371   4.452   6.701   1.624  1.4058  1.3351  1.3374
 9294TIP3   OH249372   0.780   5.343  13.262  0.9128 -0.0964  0.2779
 9294TIP3    H149373   0.776   5.347  13.167 -0.0214 -0.1688  0.3037
 9294TIP3    H249374   0.851   5.281  13.281 -0.5148 -2.0105 -0.4151
 9295TIP3   OH249375   1.223   2.644  14.538  0.2905 -0.3264  0.0683
 9295TIP3    H149376   1.193   2.699  14.610  1.3663  3.0889 -1.9709
 9295TIP3    H249377   1.153   2.651  14.472  0.0331 -2.1529  0.1156
 9296TIP3   OH249378   0.705   3.239  15.347 -0.1213 -0.0392  0.2064
 9296TIP3    H149379   0.645   3.266  15.417  0.3866 -0.9746  1.0129
 9296TIP3    H249380   0.656   3.254  15.267 -1.4578 -0.8180  0.8632
 9297TIP3   OH249381   5.965   1.362   3.677 -0.4243  0.5047  0.7429
 9297TIP3    H149382   5.921   1.352   3.592 -0.6760 -0.3185  0.9636
 9297TIP3    H249383   5.990   1.273   3.701  0.3242  0.8308  1.1765
 9298TIP3   OH249384   5.576   5.638   2.818  0.1618 -0.2195 -0.3518
 9298TIP3    H149385   5.494   5.612   2.775 -0.1140  1.3648 -0.8070
 9298TIP3    H249386   5.629   5.677   2.748  0.9709 -0.4744  0.1161
 9299TIP3   OH249387   5.516   0.401   0.446  0.0830 -0.0472 -0.1336
 9299TIP3    H149388   5.456   0.387   0.373 -0.2996 -0.9256  0.3447
 9299TIP3    H249389   5.470   0.365   0.522  0.7024  0.3733  0.4461
 9300TIP3   OH249390   4.886   0.629   1.472 -0.0534 -0.3647 -0.5072
 9300TIP3    H149391   4.964   0.683   1.462  1.0966 -1.7959  0.6983
 9300TIP3    H249392   4.850   0.655   1.557  0.9121 -1.9810  0.4220
 9301TIP3   OH249393   4.572   1.259  16.854 -0.3712  0.0175 -0.1465
 9301TIP3    H149394   4.639   1.280  16.918  1.0252 -1.9207 -0.9332
 9301TIP3    H249395   4.543   1.170  16.877 -1.2187  0.0412 -1.0469
 9302TIP3   OH249396   2.438   2.293  12.093 -0.0299  0.4421 -0.1847
 9302TIP3    H149397   2.427   2.200  12.108 -0.0443  0.5026  0.1879
 9302TIP3    H249398   2.459   2.300  12.000 -0.9107  0.1451 -0.4138
 9303TIP3   OH249399   2.537   1.138  14.415 -0.8665  0.2017  0.0966
 9303TIP3    H149400   2.483   1.209  14.448  0.6271  1.4292 -0.0280
 9303TIP3    H249401   2.614   1.138  14.472  0.4061  0.4790 -1.5687
 9304TIP3   OH249402   2.936   4.669  12.983  0.2715 -0.0231 -0.1637
 9304TIP3    H149403   2.975   4.716  12.909  1.6381 -1.2818 -0.2770
 9304TIP3    H249404   2.849   4.643  12.951 -0.2772  1.8975 -0.2861
 9305TIP3   OH249405   0.686   1.374   1.508  0.0348 -0.2364 -0.2841
 9305TIP3    H149406   0.652   1.325   1.583 -1.3491 -0.3371 -0.9658
 9305TIP3    H249407   0.697   1.308   1.439 -1.1016  0.2774 -0.9618
 9306TIP3   OH249408   4.467   6.504  13.869 -0.1669 -0.2056 -0.4236
 9306TIP3    H149409   4.538   6.441  13.883  0.7641  1.1849  1.3844
 9306TIP3    H249410   4.510   6.589  13.875 -1.6650  0.6172 -1.3151
 9307TIP3   OH249411   0.588   3.015   4.548 -0.5829  0.1684 -0.3563
 9307TIP3    H149412   0.516   3.075   4.564 -0.5667  0.1854 -0.3473
 9307TIP3    H249413   0.627   3.046   4.467  0.4998  1.2353  0.5435
 9308TIP3   OH249414   1.468   5.690   0.602  0.2900  0.5305  0.2636
 9308TIP3    H149415   1.495   5.781   0.617 -0.4747  0.6447  0.9539
 9308TIP3    H249416   1.479   5.647   0.686 -1.0939  0.4307  0.4031
 9309TIP3   OH249417   6.117   0.824   5.932 -0.1300 -0.1669  0.1343
 9309TIP3    H149418   6.106   0.885   5.859 -0.0484 -0.4166 -0.0881
 9309TIP3    H249419   6.151   0.878   6.003  1.1043 -0.1821 -0.4303
 9310TIP3   OH249420   4.605   2.155   6.134  0.1795  0.0929  0.0507
 9310TIP3    H149421   4.565   2.102   6.066 -2.1339  0.1246  1.3471
 9310TIP3    H249422   4.635   2.234   6.089  0.1942 -0.6163 -1.2040
 9311TIP3   OH249423   3.040   0.146   5.447 -0.1580  0.2265  0.9728
 9311TIP3    H149424   2.985   0.224   5.433  0.3400  0.6171  1.1657
 9311TIP3    H249425   3.057   0.113   5.359 -1.2635 -0.2952  0.9414
 9312TIP3   OH249426   6.582   5.629  10.704  0.3265 -0.1001 -0.4399
 9312TIP3    H149427   6.600   5.722  10.690  1.5737 -0.0692  1.2992
 9312TIP3    H249428   6.500   5.628  10.753 -0.1160  0.0410 -1.1644
 9313TIP3   OH249429   3.146   6.429   2.916 -0.2015 -0.5143  0.4408
 9313TIP3    H149430   3.133   6.459   2.826 -1.3700  0.1110  0.8109
 9313TIP3    H249431   3.136   6.333   2.911 -0.6626 -0.4443 -0.0278
 9314TIP3   OH249432   5.587   3.157  15.304  0.3192 -0.5585 -0.3418
 9314TIP3    H149433   5.501   3.121  15.325  0.6666 -1.4933 -0.4973
 9314TIP3    H249434   5.608   3.121  15.218  0.7715 -0.1559 -0.4047
 9315TIP3   OH249435   0.458   5.386  11.828 -0.4487  0.4539  0.2025
 9315TIP3    H149436   0.411   5.355  11.750 -0.4489  0.0202  0.3748
 9315TIP3    H249437   0.518   5.315  11.850  0.1461  0.9276  0.1061
 9316TIP3   OH249438   2.065   3.832   0.112 -0.2557 -0.9690 -0.0134
 9316TIP3    H149439   2.027   3.898   0.171  0.4598 -1.0986  0.6051
 9316TIP3    H249440   2.130   3.787   0.166  1.3095 -0.2486 -1.2650
 9317TIP3   OH249441   5.303   3.462  13.324  0.2389  0.2894  0.0357
 9317TIP3    H149442   5.224   3.451  13.378 -0.1894 -0.5399 -0.7359
 9317TIP3    H249443   5.270   3.477  13.236  0.9324 -1.3268 -0.5310
 9318TIP3   OH249444   5.249   0.198  14.618 -0.2768 -0.2194  0.1366
 9318TIP3    H149445   5.207   0.276  14.655  1.9083 -0.6004  3.6067
 9318TIP3    H249446   5.340   0.205  14.645  0.4808 -2.7638 -1.5949
 9319TIP3   OH249447   1.145   4.509   2.572 -0.0018  0.5304  0.2839
 9319TIP3    H149448   1.105   4.452   2.639 -1.2115 -0.1301 -0.9722
 9319TIP3    H249449   1.114   4.597   2.594  0.2086  0.4288  1.0196
 9320TIP3   OH249450   2.705   3.877  15.218  0.0180 -0.5664  0.0319
 9320TIP3    H149451   2.719   3.967  15.191  0.1879 -0.5894  0.0379
 9320TIP3    H249452   2.793   3.838  15.218 -0.0398 -0.6994  0.1410
 9321TIP3   OH249453   6.089   2.390   5.124  0.0470 -0.2666 -0.8177
 9321TIP3    H149454   6.124   2.391   5.035 -1.0038 -1.4023 -1.2610
 9321TIP3    H249455   5.997   2.366   5.113 -0.4635  1.0604  0.4582
 9322TIP3   OH249456   1.640   4.249  14.478 -0.2980  0.4061  0.7797
 9322TIP3    H149457   1.730   4.244  14.446 -0.6444  1.3072 -0.3655
 9322TIP3    H249458   1.627   4.168  14.528  1.0768  0.1888  0.7901
 9323TIP3   OH249459   4.143   4.332   2.224 -0.5394 -0.5077  0.0482
 9323TIP3    H149460   4.193   4.340   2.143 -0.6042 -0.1347  0.0445
 9323TIP3    H249461   4.115   4.240   2.226  0.9664 -0.9611  0.5412
 9324TIP3   OH249462   5.742   2.200   0.624  0.5013  0.7293  0.1847
 9324TIP3    H149463   5.776   2.221   0.538 -0.0452  1.4016  0.1316
 9324TIP3    H249464   5.820   2.181   0.677  0.7293 -2.0536 -1.0508
 9325TIP3   OH249465   3.822   3.844  14.535 -0.8137 -0.0120 -0.2139
 9325TIP3    H149466   3.879   3.868  14.462 -1.5208  0.6391 -0.5552
 9325TIP3    H249467   3.858   3.761  14.567  2.2494  1.9346  1.5774
 9326TIP3   OH249468   5.527   6.128   3.153  0.4596 -0.1115  0.4279
 9326TIP3    H149469   5.495   6.087   3.073  0.5693 -0.2106  0.4343
 9326TIP3    H249470   5.571   6.058   3.200 -1.0533 -0.4548  1.3751
 9327TIP3   OH249471   0.171   6.580  11.639  0.3473 -0.1708 -0.5494
 9327TIP3    H149472   0.165   6.612  11.549  0.6029  0.1953 -0.4378
 9327TIP3    H249473   0.247   6.626  11.676 -0.0512  0.0503  0.0034
 9328TIP3   OH249474   6.774   6.534  12.843  0.7272  0.7181 -0.9254
 9328TIP3    H149475   6.686   6.529  12.806  0.0781  1.4433  0.5032
 9328TIP3    H249476   6.824   6.585  12.778  0.4927 -0.9391 -2.4463
 9329TIP3   OH249477   3.993   6.651   4.976 -0.0165  0.3191 -0.1061
 9329TIP3    H149478   4.047   6.636   4.899  0.4880 -2.0266  0.6756
 9329TIP3    H249479   3.993   6.746   4.987 -0.0147  0.6935 -2.9104
 9330TIP3   OH249480   5.775   3.246  16.151  0.6695  0.1827 -0.0500
 9330TIP3    H149481   5.765   3.170  16.093  2.4174 -0.1553  0.0654
 9330TIP3    H249482   5.860   3.283  16.128 -0.2177  2.2052 -0.1865
 9331TIP3   OH249483   6.268   3.861   2.058  0.2988  0.4642 -0.2206
 9331TIP3    H149484   6.197   3.845   1.996  1.0089 -0.9019 -0.6928
 9331TIP3    H249485   6.310   3.775   2.070 -0.1135  0.6032  2.4980
 9332TIP3   OH249486   3.862   4.235  14.491  0.1096  0.2816  0.6171
 9332TIP3    H149487   3.829   4.179  14.561  0.2822  0.2962  0.7106
 9332TIP3    H249488   3.956   4.218  14.489 -0.1120 -0.9690 -0.7027
 9333TIP3   OH249489   3.953   5.284  12.362  0.6781  0.5869  0.2157
 9333TIP3    H149490   3.927   5.328  12.281  1.0224 -0.5702 -0.5270
 9333TIP3    H249491   3.965   5.355  12.425 -0.7757  1.4026 -0.4061
 9334TIP3   OH249492   1.776   6.388   4.864  0.2337  0.5639 -0.0770
 9334TIP3    H149493   1.682   6.407   4.869  0.1637  0.5703 -1.3637
 9334TIP3    H249494   1.782   6.293   4.867  0.3211  0.5913  1.8718
 9335TIP3   OH249495   2.072   2.408  17.134 -0.2889 -0.2531  0.4342
 9335TIP3    H149496   2.086   2.422  17.228  0.3990  0.1472  0.2761
 9335TIP3    H249497   2.160   2.397  17.098 -0.5848 -0.9780 -0.0786
 9336TIP3   OH249498   4.480   6.071   3.096 -0.3648  0.8007  0.7797
 9336TIP3    H149499   4.544   6.142   3.103 -0.0984  0.5395  0.9584
 9336TIP3    H249500   4.466   6.061   3.002  0.0818  0.6478  0.7315
 9337TIP3   OH249501   4.003   6.604   2.896 -0.1573 -0.4780  0.1915
 9337TIP3    H149502   3.934   6.575   2.956  0.0575  0.2044  0.7744
 9337TIP3    H249503   4.076   6.629   2.953 -0.7553  2.3651 -0.1990
 9338TIP3   OH249504   3.426   3.394  10.446  0.2137  0.4471 -0.5228
 9338TIP3    H149505   3.359   3.367  10.509  1.5510 -0.4496  0.5384
 9338TIP3    H249506   3.482   3.316  10.436  1.6765  1.4971 -0.6302
 9339TIP3   OH249507   5.691   4.613  16.822  0.3673  0.0269 -0.3378
 9339TIP3    H149508   5.777   4.580  16.850  0.6014  0.2544 -0.7937
 9339TIP3    H249509   5.678   4.577  16.735 -0.5646 -1.0451  0.2254
 9340TIP3   OH249510   5.493   1.478  15.044 -0.5580 -0.3935  0.0459
 9340TIP3    H149511   5.538   1.524  14.974 -1.1866 -0.8852 -0.6900
 9340TIP3    H249512   5.424   1.428  15.000 -2.8348  1.5345  1.2563
 9341TIP3   OH249513   6.258   1.760   4.716  0.1396  0.6131 -0.0997
 9341TIP3    H149514   6.200   1.835   4.703 -0.9868 -0.3992 -0.9670
 9341TIP3    H249515   6.226   1.694   4.655  1.0574 -0.6202  0.7330
 9342TIP3   OH249516   6.745   1.918  12.188  0.4312  0.3234 -0.0247
 9342TIP3    H149517   6.739   1.964  12.104  0.2001  1.2810  0.5188
 9342TIP3    H249518   6.752   1.987  12.253 -2.8922 -0.3010  1.0749
 9343TIP3   OH249519   5.070   6.652   3.318  0.2944  0.5454  0.1326
 9343TIP3    H149520   5.105   6.711   3.385 -0.1299 -0.4068  1.2026
 9343TIP3    H249521   5.005   6.705   3.272  0.7257  1.2653  0.3448
 9344TIP3   OH249522   6.816   5.489  14.047  0.2553  0.2924  0.1146
 9344TIP3    H149523   6.779   5.429  14.112 -0.6256  0.7415  0.0427
 9344TIP3    H249524   6.872   5.548  14.098 -0.3349  0.5653  0.4536
 9345TIP3   OH249525   0.120   1.220   6.065  0.6831 -0.9343  0.0152
 9345TIP3    H149526   0.127   1.133   6.025  0.7912 -0.8484 -0.1549
 9345TIP3    H249527   0.100   1.279   5.992 -0.8224 -1.0194  0.3392
 9346TIP3   OH249528   6.124   1.117  13.058 -0.0135  0.0700 -0.5430
 9346TIP3    H149529   6.151   1.121  13.150  1.5678 -2.5843 -0.8494
 9346TIP3    H249530   6.028   1.117  13.062  0.0259 -1.6498  1.2095
 9347TIP3   OH249531   0.546   3.671  15.844 -0.3255 -0.3413  0.3343
 9347TIP3    H149532   0.536   3.747  15.902  0.3343 -1.0765  1.4350
 9347TIP3    H249533   0.622   3.693  15.790 -0.2324 -0.1490  0.5414
 9348TIP3   OH249534   1.102   2.942   1.279 -0.5253  0.5483 -0.0051
 9348TIP3    H149535   1.039   2.920   1.348  0.0194  1.3656  0.7653
 9348TIP3    H249536   1.184   2.903   1.309  0.2256  2.7522  0.8950
 9349TIP3   OH249537   6.425   3.666   0.859  0.3317  0.5068  0.3245
 9349TIP3    H149538   6.467   3.591   0.901 -1.4917 -0.4133  0.5608
 9349TIP3    H249539   6.452   3.741   0.911 -0.7535 -0.4455  2.3142
 9350TIP3   OH249540   2.071   4.979   3.994  0.2557 -0.0095 -0.1934
 9350TIP3    H149541   2.113   5.053   4.039  0.0473 -0.6837  1.1535
 9350TIP3    H249542   2.140   4.942   3.939  0.7916  0.2709  0.2799
 9351TIP3   OH249543   2.385   4.951  11.046 -0.0453 -0.5883  0.4306
 9351TIP3    H149544   2.313   5.007  11.018 -0.7879 -1.6183  0.2452
 9351TIP3    H249545   2.347   4.895  11.115  0.6737 -0.8740  0.6025
 9352TIP3   OH249546   3.286   5.484   4.638  0.0217 -0.9597  0.0968
 9352TIP3    H149547   3.247   5.527   4.562 -0.0580 -0.4502  0.4286
 9352TIP3    H249548   3.350   5.423   4.600 -1.5666 -2.2886 -0.4804
 9353TIP3   OH249549   2.714   2.664  12.133  0.0966 -0.3401 -0.1839
 9353TIP3    H149550   2.673   2.581  12.158  1.4249 -0.8623  0.3101
 9353TIP3    H249551   2.754   2.696  12.214 -0.4907  0.8366 -0.3494
 9354TIP3   OH249552   1.417   2.127  15.464 -0.3417  0.4442  0.7450
 9354TIP3    H149553   1.347   2.086  15.515 -0.8705  1.9201  1.2498
 9354TIP3    H249554   1.375   2.151  15.381 -1.3684  4.1714  2.2117
 9355TIP3   OH249555   2.390   5.155  17.252 -0.1560  0.5526  0.2685
 9355TIP3    H149556   2.469   5.125  17.208  0.6701  0.6221  1.6553
 9355TIP3    H249557   2.395   5.115  17.339 -1.8538  0.2359  0.2496
 9356TIP3   OH249558   2.638   1.091  15.331  0.2852 -0.8392 -0.0111
 9356TIP3    H149559   2.546   1.108  15.354 -0.0177 -0.7395 -1.2774
 9356TIP3    H249560   2.674   1.177  15.311  0.4494 -0.9715 -0.2760
 9357TIP3   OH249561   6.436   4.205  14.303 -0.0991  0.0247 -0.5362
 9357TIP3    H149562   6.457   4.167  14.388  1.6042 -0.2510 -1.0591
 9357TIP3    H249563   6.346   4.176  14.285 -0.1705 -0.5895  0.7795
 9358TIP3   OH249564   1.576   1.231  13.669 -0.6465 -0.4108 -0.0676
 9358TIP3    H149565   1.531   1.146  13.667 -1.2444 -0.1474  1.3041
 9358TIP3    H249566   1.512   1.293  13.635 -1.6256  0.0710  2.5106
 9359TIP3   OH249567   2.009   5.174  16.804 -0.9450  0.1319 -0.5689
 9359TIP3    H149568   2.048   5.144  16.886  1.8575  0.9449 -1.5415
 9359TIP3    H249569   1.915   5.164  16.817 -0.4058 -2.7434  1.5452
 9360TIP3   OH249570   1.540   2.167   1.758 -0.7282 -0.3146 -0.5344
 9360TIP3    H149571   1.590   2.210   1.690  0.8446 -1.1562  0.0642
 9360TIP3    H249572   1.513   2.084   1.720 -1.6564  0.1201 -0.8422
 9361TIP3   OH249573   4.412   2.210  11.812  0.0825 -0.4504  0.4354
 9361TIP3    H149574   4.490   2.258  11.837  1.5137 -1.9130 -1.0945
 9361TIP3    H249575   4.348   2.277  11.789  2.2572  0.7461 -2.3382
 9362TIP3   OH249576   2.360   1.593   3.196  0.2774 -0.1700 -0.0707
 9362TIP3    H149577   2.286   1.546   3.158  0.4200 -0.8997  0.5376
 9362TIP3    H249578   2.349   1.683   3.166 -2.2517  0.2618  1.9781
 9363TIP3   OH249579   5.317   3.554  15.091 -0.0837 -0.1213  0.6968
 9363TIP3    H149580   5.359   3.488  15.146 -0.0363 -1.3927 -0.8185
 9363TIP3    H249581   5.390   3.600  15.049 -0.1309 -0.2607  0.4551
 9364TIP3   OH249582   4.426   3.982  15.952 -0.1708 -0.2526 -0.4582
 9364TIP3    H149583   4.418   3.975  15.857  1.5694 -0.9173 -0.5732
 9364TIP3    H249584   4.369   4.055  15.976 -2.0420 -1.2275 -1.7892
 9365TIP3   OH249585   6.009   6.782  11.429  0.2138  0.3655 -0.5391
 9365TIP3    H149586   5.957   6.814  11.503  2.8204  1.0200  1.1055
 9365TIP3    H249587   6.002   6.687  11.435 -0.6625  0.4432 -0.2489
 9366TIP3   OH249588   6.216   4.659  16.838 -0.8795 -0.4697 -0.5297
 9366TIP3    H149589   6.304   4.696  16.826 -2.0504  2.6787  0.2068
 9366TIP3    H249590   6.229   4.588  16.901  1.2803 -0.7726 -1.2520
 9367TIP3   OH249591   6.623   0.726  11.721  0.3047  0.2498  0.2841
 9367TIP3    H149592   6.542   0.685  11.753  0.9720 -0.1613  1.4899
 9367TIP3    H249593   6.622   0.711  11.627 -1.8326  1.6897  0.0292
 9368TIP3   OH249594   3.751   3.029  15.895 -0.2648  0.2624  0.3607
 9368TIP3    H149595   3.827   3.070  15.855  0.3628 -1.4823 -0.2773
 9368TIP3    H249596   3.677   3.061  15.844 -0.0701  2.5819  1.4770
 9369TIP3   OH249597   1.015   6.267   4.606  0.4893 -1.0047  0.3736
 9369TIP3    H149598   0.944   6.315   4.648 -0.2620 -1.3983 -0.4284
 9369TIP3    H249599   1.080   6.334   4.584 -0.0184 -0.5301  0.3227
 9370TIP3   OH249600   5.271   6.074   5.570  0.2182  0.1855  0.1475
 9370TIP3    H149601   5.200   6.111   5.517  0.9287 -1.3827 -1.9420
 9370TIP3    H249602   5.346   6.131   5.553  0.3603 -0.1305 -0.2843
 9371TIP3   OH249603   0.500   0.765  14.678 -0.5095  0.0724 -0.0695
 9371TIP3    H149604   0.467   0.702  14.742  0.5077 -0.5748 -0.1854
 9371TIP3    H249605   0.433   0.765  14.609 -1.2498  0.2372  0.6323
 9372TIP3   OH249606   3.983   0.254   3.072  0.0232  0.7047 -0.3992
 9372TIP3    H149607   3.970   0.227   2.981  2.8248  1.4378 -1.0617
 9372TIP3    H249608   4.052   0.196   3.105 -1.2656  0.1609  1.4113
 9373TIP3   OH249609   1.438   5.879   2.521  0.3958  0.2147  1.1112
 9373TIP3    H149610   1.483   5.828   2.454 -0.1076  2.2411 -0.8207
 9373TIP3    H249611   1.486   5.860   2.602  0.3829 -3.0416  0.4096
 9374TIP3   OH249612   5.617   5.769  14.097 -0.3910 -0.1589 -0.4222
 9374TIP3    H149613   5.577   5.732  14.018  0.4524 -0.1234 -0.8696
 9374TIP3    H249614   5.543   5.786  14.155 -1.1198  0.8302 -1.6252
 9375TIP3   OH249615   1.438   4.349  11.649  0.1961 -0.8629 -0.6342
 9375TIP3    H149616   1.479   4.382  11.569  0.1159 -0.7765 -0.6401
 9375TIP3    H249617   1.368   4.412  11.667 -0.2525 -1.2734 -0.9069
 9376TIP3   OH249618   4.453   6.109   0.627 -0.5113  0.0740 -0.7097
 9376TIP3    H149619   4.404   6.173   0.575  1.3216  1.3223 -0.9254
 9376TIP3    H249620   4.452   6.029   0.574 -1.3630  0.4117 -1.2122
 9377TIP3   OH249621   5.093   4.040   0.941  0.5003  0.1795  0.7750
 9377TIP3    H149622   5.152   4.095   0.991  0.4503 -0.5182  1.6079
 9377TIP3    H249623   5.010   4.045   0.988  0.7377 -1.3324  1.3923
 9378TIP3   OH249624   2.853   0.187   3.338 -0.3443  0.4013 -0.0010
 9378TIP3    H149625   2.859   0.241   3.417 -2.8902 -1.1862  1.3394
 9378TIP3    H249626   2.844   0.097   3.371 -1.6569 -0.2579 -2.0590
 9379TIP3   OH249627   3.041   6.320   5.306 -0.6795 -0.5128 -0.4433
 9379TIP3    H149628   2.979   6.248   5.295 -2.1858  0.8462 -1.0149
 9379TIP3    H249629   3.074   6.310   5.396 -2.5790 -0.6054  0.2563
 9380TIP3   OH249630   1.494   1.980   2.879 -0.6269  0.1739  0.5071
 9380TIP3    H149631   1.483   2.074   2.866 -1.4049  0.0553  0.3038
 9380TIP3    H249632   1.589   1.968   2.882 -0.4859  0.6888 -1.4601
 9381TIP3   OH249633   6.555   5.354  10.826  0.2222  0.0024  0.5373
 9381TIP3    H149634   6.502   5.433  10.834  0.5822  0.2783  0.2157
 9381TIP3    H249635   6.629   5.380  10.770 -0.1888 -0.8314 -0.4036
 9382TIP3   OH249636   4.126   2.423  11.393 -0.0396 -0.4740 -0.6079
 9382TIP3    H149637   4.052   2.410  11.334  1.0967 -1.3920 -1.8653
 9382TIP3    H249638   4.115   2.511  11.427 -1.8885 -0.7202 -0.5275
 9383TIP3   OH249639   0.865   4.541  14.922 -0.2570 -0.0174  0.2620
 9383TIP3    H149640   0.939   4.530  14.982  0.3866  2.1486 -0.0748
 9383TIP3    H249641   0.885   4.482  14.849  1.0834  0.4402  0.2414
 9384TIP3   OH249642   2.250   0.224  14.199 -0.4665 -0.3263  0.2813
 9384TIP3    H149643   2.340   0.211  14.168 -0.6364 -0.1184 -0.3237
 9384TIP3    H249644   2.233   0.150  14.257  0.1936 -0.2130  0.6191
 9385TIP3   OH249645   1.329   0.785   0.345  0.6919 -0.0176 -0.1510
 9385TIP3    H149646   1.284   0.850   0.292 -0.6267  1.0092  2.1280
 9385TIP3    H249647   1.310   0.702   0.303  0.7922  0.8967 -2.0258
 9386TIP3   OH249648   4.459   2.679   5.706 -0.6110  0.1876 -0.0485
 9386TIP3    H149649   4.408   2.713   5.780  0.1454 -2.6402  1.8963
 9386TIP3    H249650   4.394   2.664   5.637 -2.1195 -1.3685  1.6484
 9387TIP3   OH249651   0.300   0.701  11.295 -0.4565 -0.3322  0.7178
 9387TIP3    H149652   0.332   0.773  11.350  1.7639  0.3012 -1.3354
 9387TIP3    H249653   0.266   0.744  11.217 -2.5193 -1.3185  1.0313
 9388TIP3   OH249654   1.460   2.264   2.250 -0.3083 -0.4869 -0.5992
 9388TIP3    H149655   1.517   2.248   2.175  1.4613  1.5393  0.2515
 9388TIP3    H249656   1.490   2.203   2.317 -1.2832 -1.6649 -1.2379
 9389TIP3   OH249657   4.042   6.762   1.388  0.5463  0.0302 -0.1571
 9389TIP3    H149658   4.027   6.845   1.434  0.4111 -0.2097  0.2251
 9389TIP3    H249659   4.112   6.720   1.437  1.3751  0.4162 -0.9972
 9390TIP3   OH249660   5.230   5.754  11.827 -0.7467  0.5678 -0.2404
 9390TIP3    H149661   5.248   5.756  11.733 -2.6872  0.3948 -0.6361
 9390TIP3    H249662   5.272   5.673  11.858 -1.5081 -0.2166 -1.2626
 9391TIP3   OH249663   6.259   2.865  17.028 -0.0558  0.2887 -0.4826
 9391TIP3    H149664   6.259   2.857  17.123  2.4680 -2.2812 -0.6425
 9391TIP3    H249665   6.295   2.951  17.011 -2.4807  1.6273  0.8905
 9392TIP3   OH249666   1.437   3.572  15.043  0.1303  0.7130  0.2210
 9392TIP3    H149667   1.467   3.509  14.978 -0.7284 -1.8758  2.2333
 9392TIP3    H249668   1.511   3.632  15.054  1.5358 -0.7922 -0.7241
 9393TIP3   OH249669   2.413   1.930   2.815 -0.6308  0.2853  0.6616
 9393TIP3    H149670   2.345   1.979   2.768  1.1651  1.2509 -1.0154
 9393TIP3    H249671   2.445   1.992   2.881  1.5597  1.4299 -1.3830
 9394TIP3   OH249672   5.714   3.352   2.431 -1.0754 -0.0141 -0.3561
 9394TIP3    H149673   5.756   3.320   2.351 -1.7589  2.6213 -1.8239
 9394TIP3    H249674   5.785   3.354   2.496  0.0932  0.3729 -1.6333
 9395TIP3   OH249675   3.778   6.322   1.679 -0.0517  0.4055  0.3988
 9395TIP3    H149676   3.754   6.275   1.600  0.1756 -1.4322  1.3885
 9395TIP3    H249677   3.738   6.409   1.669 -0.8703 -0.1446 -1.2503
 9396TIP3   OH249678   3.629   3.727  10.599  0.3558  0.3318  0.3667
 9396TIP3    H149679   3.679   3.651  10.570 -0.0871  0.2450 -0.1814
 9396TIP3    H249680   3.675   3.759  10.677 -0.7688 -1.8711  1.9807
 9397TIP3   OH249681   4.514   4.653  11.054  0.2599 -0.3065 -0.5588
 9397TIP3    H149682   4.460   4.717  11.007  1.6967  0.3491 -1.3219
 9397TIP3    H249683   4.579   4.706  11.101  2.7201 -1.2757 -2.7671
 9398TIP3   OH249684   3.206   3.464  17.219  0.0196  0.7989  0.3549
 9398TIP3    H149685   3.146   3.399  17.184  0.8715  0.6358 -0.8046
 9398TIP3    H249686   3.150   3.540  17.238 -0.6831  0.3576  0.0695
 9399TIP3   OH249687   0.817   1.777   4.484 -0.1676 -0.3179 -0.3536
 9399TIP3    H149688   0.746   1.839   4.499  1.2591  1.6652 -1.4692
 9399TIP3    H249689   0.819   1.723   4.563 -2.0232  0.4636  0.2585
 9400TIP3   OH249690   1.335   3.724   3.795  0.2754 -0.2827 -0.1064
 9400TIP3    H149691   1.269   3.794   3.802  1.2959  0.7913 -0.9906
 9400TIP3    H249692   1.363   3.708   3.885  2.3096  2.6895 -0.1472
 9401TIP3   OH249693   2.386   3.429  13.995  0.1680 -0.5062 -0.1383
 9401TIP3    H149694   2.459   3.447  13.935  1.0595 -0.1702  1.0299
 9401TIP3    H249695   2.406   3.343  14.031  0.0193 -0.3802  0.2435
 9402TIP3   OH249696   2.312   2.772  12.427 -0.2757  0.4473 -0.3090
 9402TIP3    H149697   2.401   2.777  12.394 -0.6805  0.0541 -1.4837
 9402TIP3    H249698   2.318   2.712  12.502  0.2899 -0.2986 -0.9398
 9403TIP3   OH249699   5.462   2.815   1.341  0.1982 -0.2007 -0.2431
 9403TIP3    H149700   5.490   2.875   1.272  0.7761  2.0082  1.8440
 9403TIP3    H249701   5.504   2.732   1.319  2.6758  1.2122 -0.9893
 9404TIP3   OH249702   4.542   0.769   1.090  0.0733 -0.1525 -0.6659
 9404TIP3    H149703   4.614   0.782   1.152 -2.1385 -0.0007  1.9210
 9404TIP3    H249704   4.523   0.856   1.056 -0.8590  0.2611  0.9028
 9405TIP3   OH249705   6.625   2.937   2.790  0.0936 -0.1492 -0.0418
 9405TIP3    H149706   6.596   2.855   2.749  1.1131 -0.0623 -0.9803
 9405TIP3    H249707   6.615   3.003   2.721 -0.3172  0.4314  0.5794
 9406TIP3   OH249708   6.122   1.047  12.413 -0.4957 -0.4279  0.0260
 9406TIP3    H149709   6.124   1.143  12.418 -2.1577 -0.4209  1.0053
 9406TIP3    H249710   6.125   1.028  12.319  1.3477  0.5164 -0.1319
 9407TIP3   OH249711   2.511   1.428  11.756 -0.4438 -0.8823  0.3498
 9407TIP3    H149712   2.566   1.501  11.783 -0.3712 -0.4395 -0.9434
 9407TIP3    H249713   2.573   1.359  11.731 -0.4477 -0.3563 -1.1802
 9408TIP3   OH249714   4.372   0.436   4.227  0.2651 -0.0813 -0.0189
 9408TIP3    H149715   4.294   0.399   4.269  2.1851 -2.7566  1.2996
 9408TIP3    H249716   4.390   0.379   4.153  1.2555  0.2641 -0.0546
 9409TIP3   OH249717   5.244   3.357  13.619  0.3281  0.2903  0.9067
 9409TIP3    H149718   5.229   3.269  13.656  0.1461 -0.3444 -0.6265
 9409TIP3    H249719   5.339   3.366  13.616  0.3479  0.1857  1.1692
 9410TIP3   OH249720   4.939   3.183  12.447  0.3295 -0.2938  0.0817
 9410TIP3    H149721   4.922   3.198  12.354  1.4183  0.5527  0.0146
 9410TIP3    H249722   4.992   3.104  12.450 -0.4026 -0.7916  0.0441
 9411TIP3   OH249723   4.406   5.131  11.897  0.3281 -0.7132  0.9673
 9411TIP3    H149724   4.355   5.073  11.953 -1.1238  2.4635  3.0857
 9411TIP3    H249725   4.340   5.186  11.854  1.7129  0.2528  0.0411
 9412TIP3   OH249726   5.529   3.490   3.120 -0.6085 -0.0023  0.0701
 9412TIP3    H149727   5.489   3.442   3.048 -0.8148  0.2511  0.0152
 9412TIP3    H249728   5.601   3.434   3.149 -0.4497 -0.0503 -0.4082
 9413TIP3   OH249729   1.838   2.687   3.157  0.4605  0.0551 -0.1101
 9413TIP3    H149730   1.932   2.670   3.163  0.4576 -0.3200 -1.0917
 9413TIP3    H249731   1.798   2.600   3.159  0.2727  0.0741 -2.0515
 9414TIP3   OH249732   1.509   2.411  12.310 -0.0216  0.7264  0.1564
 9414TIP3    H149733   1.510   2.390  12.404  1.2250  1.2536  0.2782
 9414TIP3    H249734   1.449   2.485  12.302  0.9763  1.6045  0.7529
 9415TIP3   OH249735   4.767   3.793  16.376  0.2258  0.4439 -0.1255
 9415TIP3    H149736   4.801   3.731  16.440  0.7616  0.5438 -0.3043
 9415TIP3    H249737   4.800   3.761  16.292  1.7124  1.7410 -0.0784
 9416TIP3   OH249738   3.806   3.889   0.283 -0.0631  0.5840  0.0900
 9416TIP3    H149739   3.857   3.970   0.285 -0.7378  1.0505 -1.0738
 9416TIP3    H249740   3.734   3.907   0.222 -0.4661 -0.7420  0.1536
 9417TIP3   OH249741   3.687   4.470   6.330 -0.1487  0.0885 -0.4123
 9417TIP3    H149742   3.768   4.488   6.377 -0.8787 -0.0528  0.9099
 9417TIP3    H249743   3.716   4.430   6.247  1.1097 -0.2021  0.1559
 9418TIP3   OH249744   1.736   4.850  17.250  0.4419 -0.1402 -0.4755
 9418TIP3    H149745   1.764   4.860  17.341  0.5020 -2.2508 -0.2345
 9418TIP3    H249746   1.676   4.775  17.252 -1.1719  1.0723 -1.8428
 9419TIP3   OH249747   0.109   4.242   1.457 -0.2458 -0.8436 -0.0973
 9419TIP3    H149748   0.167   4.262   1.530  0.2530 -0.0198 -0.7042
 9419TIP3    H249749   0.077   4.154   1.475  0.1429 -0.7852  0.9269
 9420TIP3   OH249750   6.355   4.853  10.701 -0.7181 -0.4231 -0.6835
 9420TIP3    H149751   6.416   4.920  10.732 -1.9711  0.4711 -0.1251
 9420TIP3    H249752   6.326   4.883  10.615 -1.3553 -0.1898 -0.3914
 9421TIP3   OH249753   0.118   1.743  14.941 -0.1163  0.0317 -0.7465
 9421TIP3    H149754   0.076   1.799  15.006 -0.4351  0.8252 -1.6324
 9421TIP3    H249755   0.108   1.790  14.858 -2.7843 -2.5739 -1.9965
 9422TIP3   OH249756   2.672   1.386  12.450  0.5283 -0.8416  0.6595
 9422TIP3    H149757   2.710   1.435  12.523  0.1059  0.8464 -0.2107
 9422TIP3    H249758   2.579   1.407  12.454  0.4758 -0.9001 -0.2432
 9423TIP3   OH249759   5.624   5.353  14.342  0.7885  0.5212 -0.6517
 9423TIP3    H149760   5.529   5.363  14.331  0.5297 -0.4100  0.5199
 9423TIP3    H249761   5.640   5.380  14.433  0.7154 -4.7929  1.1620
 9424TIP3   OH249762   6.191   4.479  11.359  0.1002 -0.2363 -0.4979
 9424TIP3    H149763   6.132   4.476  11.284  0.9306 -0.8011 -1.1398
 9424TIP3    H249764   6.133   4.487  11.435 -0.6770  2.2100 -1.3101
 9425TIP3   OH249765   2.759   6.709  16.529 -0.4885  0.2621  0.2855
 9425TIP3    H149766   2.759   6.800  16.557  1.0432  0.5272 -0.4845
 9425TIP3    H249767   2.770   6.713  16.434 -0.3070 -0.7187  0.2509
 9426TIP3   OH249768   0.913   1.271   4.649  0.2065  0.3493  0.2788
 9426TIP3    H149769   1.001   1.292   4.617  0.3092 -0.8286 -0.2460
 9426TIP3    H249770   0.855   1.303   4.580  0.2632  0.3684  0.2399
 9427TIP3   OH249771   0.656   6.287  17.180 -0.4480 -0.2244  0.3582
 9427TIP3    H149772   0.631   6.329  17.262 -1.5194 -0.0304 -0.0568
 9427TIP3    H249773   0.606   6.335  17.113  2.3979  1.3901 -0.7064
 9428TIP3   OH249774   6.397   1.805  12.799  0.2160 -0.3952  0.2027
 9428TIP3    H149775   6.332   1.736  12.813  0.4548 -0.3061  1.9219
 9428TIP3    H249776   6.410   1.843  12.886  0.9403  1.0558 -0.5257
 9429TIP3   OH249777   5.000   1.164  12.906  0.4217  0.4829 -0.4758
 9429TIP3    H149778   4.934   1.232  12.899 -1.8083 -1.6858 -1.2850
 9429TIP3    H249779   5.072   1.194  12.851  0.0612  2.8101  0.2897
 9430TIP3   OH249780   3.826   5.978   1.108  0.0701  0.3927  0.2185
 9430TIP3    H149781   3.757   5.984   1.043  1.6843 -0.1808 -1.6000
 9430TIP3    H249782   3.840   6.069   1.137 -0.9294  0.5937  0.0870
 9431TIP3   OH249783   3.718   2.743   3.935 -0.2617 -0.5074  0.2753
 9431TIP3    H149784   3.723   2.721   3.842  0.5000 -0.8797  0.4025
 9431TIP3    H249785   3.790   2.695   3.975 -0.7913 -0.6073  1.1129
 9432TIP3   OH249786   5.654   6.292  14.591 -0.0723  0.1831  0.0002
 9432TIP3    H149787   5.657   6.243  14.673  2.1608  0.6437  0.2187
 9432TIP3    H249788   5.591   6.245  14.537 -0.6823 -0.8056  1.5405
 9433TIP3   OH249789   0.667   2.171  11.784  0.0646  0.7300  0.2577
 9433TIP3    H149790   0.723   2.240  11.750  0.0757  0.5368 -0.1119
 9433TIP3    H249791   0.652   2.195  11.875  0.5658  0.9006  0.2950
 9434TIP3   OH249792   0.938   2.215  16.367 -0.3244 -0.3806  0.0030
 9434TIP3    H149793   0.959   2.308  16.356  0.2283 -0.3193  1.4865
 9434TIP3    H249794   1.023   2.172  16.372 -0.5810 -0.9775 -0.6342
 9435TIP3   OH249795   4.893   0.052   4.477 -0.5976 -0.7601 -0.9290
 9435TIP3    H149796   4.811   0.076   4.436 -0.3797 -0.3123 -1.1125
 9435TIP3    H249797   4.942   0.135   4.483 -1.3969 -0.4190  1.9752
 9436TIP3   OH249798   5.866   2.729   1.926  0.4471 -0.3338  1.0688
 9436TIP3    H149799   5.933   2.750   1.991 -0.1380 -0.5795  1.7677
 9436TIP3    H249800   5.790   2.703   1.979 -2.0190  5.1116  0.5454
 9437TIP3   OH249801   4.528   5.398  15.400 -0.0522  0.2540 -0.1201
 9437TIP3    H149802   4.620   5.413  15.380 -0.2980 -0.0533 -1.5012
 9437TIP3    H249803   4.483   5.473  15.361 -0.3491  0.6853  1.0173
 9438TIP3   OH249804   5.928   3.315   1.798 -0.0484 -0.2575  0.2474
 9438TIP3    H149805   5.870   3.264   1.741 -0.2878 -0.3919  0.6047
 9438TIP3    H249806   6.010   3.266   1.799  0.2609  0.2239 -0.7025
 9439TIP3   OH249807   2.756   5.669  14.176  1.1728 -0.1725  0.2089
 9439TIP3    H149808   2.691   5.723  14.131  1.6424 -1.1046 -1.5892
 9439TIP3    H249809   2.840   5.698  14.141  1.6843  0.3112  1.7821
 9440TIP3   OH249810   6.049   5.221   1.946  0.7918 -0.7626  0.1390
 9440TIP3    H149811   6.061   5.277   2.023 -0.0212 -1.4927  0.7943
 9440TIP3    H249812   6.133   5.178   1.935  0.4283 -1.8660  1.5778
 9441TIP3   OH249813   5.196   6.756  12.206 -0.5878  0.0021  0.0589
 9441TIP3    H149814   5.213   6.671  12.166 -2.8413 -0.5077  0.1673
 9441TIP3    H249815   5.258   6.815  12.163 -1.2344 -1.0313 -2.3776
 9442TIP3   OH249816   3.921   3.943   2.639  0.0574 -0.0302  0.3243
 9442TIP3    H149817   3.906   3.994   2.559 -0.6283 -1.8014 -0.7034
 9442TIP3    H249818   3.863   3.868   2.630  0.8711 -0.8659  1.9440
 9443TIP3   OH249819   1.619   1.270  11.651  0.2117 -0.1698  0.4066
 9443TIP3    H149820   1.585   1.354  11.682  0.1450 -0.2749  0.6221
 9443TIP3    H249821   1.706   1.264  11.689  0.6447  0.2997 -0.5054
 9444TIP3   OH249822   3.009   3.691   5.543  0.2574 -0.3123 -0.1538
 9444TIP3    H149823   3.063   3.758   5.501  0.2232  0.1487  0.5319
 9444TIP3    H249824   2.942   3.740   5.592 -0.1629 -0.8563 -0.1692
 9445TIP3   OH249825   0.084   5.022  11.807  0.0405 -0.0703 -0.0937
 9445TIP3    H149826   0.033   5.079  11.751  0.6180  0.3731 -0.1758
 9445TIP3    H249827   0.112   4.950  11.750  1.2016  0.7279 -0.5668
 9446TIP3   OH249828   3.924   4.930  16.428 -0.0287 -0.1420  0.1099
 9446TIP3    H149829   3.904   4.973  16.512 -2.5274  3.2999 -2.0937
 9446TIP3    H249830   4.015   4.953  16.411 -0.3331  1.5356  0.6068
 9447TIP3   OH249831   3.039   3.916  16.208  0.7530  0.1790 -0.3394
 9447TIP3    H149832   3.100   3.844  16.220  0.4032 -1.0824 -5.1685
 9447TIP3    H249833   2.953   3.875  16.203  0.2395  1.2330 -0.4227
 9448TIP3   OH249834   6.508   0.630   0.601  0.4277  0.2316  0.0726
 9448TIP3    H149835   6.462   0.615   0.683  1.0927 -2.2588  0.0333
 9448TIP3    H249836   6.552   0.547   0.582 -1.2498  0.1015 -3.7718
 9449TIP3   OH249837   6.405   2.616   0.851  0.6906  0.5344 -0.1768
 9449TIP3    H149838   6.450   2.616   0.935  0.9435 -0.6179 -0.3038
 9449TIP3    H249839   6.471   2.588   0.788  0.0417 -0.3425 -0.4866
 9450TIP3   OH249840   1.788   0.232   2.945 -0.0195  0.6772 -1.0193
 9450TIP3    H149841   1.860   0.227   3.007  0.0955 -0.1631 -1.2240
 9450TIP3    H249842   1.723   0.171   2.979 -0.4710  1.1297 -1.0562
 9451TIP3   OH249843   6.463   4.050  12.296 -0.0897  0.6156  0.4759
 9451TIP3    H149844   6.395   4.094  12.347  0.3725 -0.2502  1.8554
 9451TIP3    H249845   6.545   4.074  12.338  0.1768 -1.4438  1.1853
 9452TIP3   OH249846   0.008   3.706   5.123 -0.3010 -0.2190 -0.0134
 9452TIP3    H149847  -0.003   3.747   5.209 -1.7088 -3.1643  1.2680
 9452TIP3    H249848  -0.033   3.621   5.131  0.2931 -0.9110 -3.3921
 9453TIP3   OH249849   1.644   2.289   1.527  0.1340 -0.1493  0.1318
 9453TIP3    H149850   1.679   2.372   1.559  0.9976 -0.1817 -0.7297
 9453TIP3    H249851   1.585   2.314   1.456  1.5209 -0.3660 -1.1051
 9454TIP3   OH249852   5.251   4.326   5.787 -0.5460 -0.3070  0.1808
 9454TIP3    H149853   5.234   4.399   5.847  3.1957  1.8546 -1.2541
 9454TIP3    H249854   5.334   4.288   5.818 -0.3354 -1.3482 -1.5842
 9455TIP3   OH249855   4.173   1.736   0.867 -0.2863  0.2215 -0.1263
 9455TIP3    H149856   4.144   1.761   0.779  1.2933 -1.0785 -1.0306
 9455TIP3    H249857   4.258   1.778   0.877  0.4898 -1.3617 -0.0324
 9456TIP3   OH249858   2.489   4.202  16.384  0.0634 -0.3177  0.8608
 9456TIP3    H149859   2.472   4.110  16.362 -0.0142 -0.3490  1.0572
 9456TIP3    H249860   2.424   4.251  16.333 -0.1798 -0.3972  1.0961
 9457TIP3   OH249861   3.750   2.357  15.891  0.3766  0.0056 -0.7257
 9457TIP3    H149862   3.799   2.365  15.809  0.6316 -1.4470 -0.7300
 9457TIP3    H249863   3.809   2.391  15.958  0.5071  0.3801 -1.0299
 9458TIP3   OH249864   1.504   5.492   3.398 -0.4079  0.5245 -0.0990
 9458TIP3    H149865   1.571   5.551   3.433  0.6308 -0.8211  0.2151
 9458TIP3    H249866   1.545   5.406   3.400 -2.3474 -0.3963  0.5853
 9459TIP3   OH249867   6.607   6.332   3.406 -0.0777 -0.4845  0.1629
 9459TIP3    H149868   6.658   6.412   3.416 -0.0834 -0.4078 -0.4295
 9459TIP3    H249869   6.593   6.301   3.496  0.5626 -0.2254  0.3527
 9460TIP3   OH249870   1.652   5.692   1.739  0.6075  0.7445 -0.8250
 9460TIP3    H149871   1.628   5.774   1.695 -1.1197  0.2869 -0.7744
 9460TIP3    H249872   1.604   5.624   1.692  0.6105 -0.0218  0.2518
 9461TIP3   OH249873   0.765   5.805   0.497  0.9465  0.1979  0.0869
 9461TIP3    H149874   0.683   5.824   0.542  1.0894 -0.0959  0.4733
 9461TIP3    H249875   0.761   5.856   0.416 -0.1862 -0.8080 -0.5094
 9462TIP3   OH249876   5.145   5.711   1.826  0.0547 -0.0999 -0.8798
 9462TIP3    H149877   5.111   5.626   1.852  1.2099  0.1422  1.5481
 9462TIP3    H249878   5.068   5.769   1.828 -0.0288 -0.2695  1.2592
 9463TIP3   OH249879   4.855   3.740  16.146 -0.5202  0.0436 -0.6103
 9463TIP3    H149880   4.948   3.730  16.170 -0.8754  1.8846  1.7545
 9463TIP3    H249881   4.855   3.805  16.076  0.0788 -1.2314 -1.8325
 9464TIP3   OH249882   5.285   4.790   4.141 -0.1199 -0.0680  0.5062
 9464TIP3    H149883   5.268   4.850   4.070 -1.0662  0.7660  1.4268
 9464TIP3    H249884   5.225   4.717   4.126 -0.1420 -0.0093  0.3102
 9465TIP3   OH249885   3.379   3.355  12.363 -0.3359 -0.2511 -0.6520
 9465TIP3    H149886   3.441   3.342  12.291  0.9601  2.6125 -0.1148
 9465TIP3    H249887   3.304   3.396  12.322 -0.1562  0.1269 -0.6047
 9466TIP3   OH249888   6.802   6.393   0.938 -0.2755 -0.3578  0.0044
 9466TIP3    H149889   6.888   6.435   0.929  0.3019 -0.7965  3.1623
 9466TIP3    H249890   6.810   6.312   0.888  0.2916  0.7642 -1.8116
 9467TIP3   OH249891   3.154   1.232  14.596  0.0262 -0.0784 -0.5043
 9467TIP3    H149892   3.170   1.160  14.536  0.8700  0.3215 -0.7655
 9467TIP3    H249893   3.122   1.303  14.540  0.3614  0.1406 -0.4185
 9468TIP3   OH249894   5.299   0.937   2.746  0.2001  0.6871 -0.3784
 9468TIP3    H149895   5.294   0.909   2.838  1.6607  0.3832 -0.3776
 9468TIP3    H249896   5.223   0.993   2.734  0.7631  1.8792  1.4270
 9469TIP3   OH249897   2.942   1.498   3.650 -0.4422  0.4168 -0.4168
 9469TIP3    H149898   2.861   1.549   3.643 -0.5914 -0.0181 -2.1053
 9469TIP3    H249899   2.996   1.529   3.577 -0.4288 -1.6253 -1.3087
 9470TIP3   OH249900   3.181   1.722   6.593 -0.5279 -0.4505 -0.2274
 9470TIP3    H149901   3.233   1.794   6.557 -0.7617 -0.3369 -0.3397
 9470TIP3    H249902   3.150   1.756   6.677 -1.4117 -0.0743 -0.7076
 9471TIP3   OH249903   0.411   5.406  13.248 -0.2591 -0.5754  0.0463
 9471TIP3    H149904   0.431   5.342  13.316 -1.7923  0.9456  1.9888
 9471TIP3    H249905   0.405   5.355  13.167 -0.0845 -2.6532  1.3224
 9472TIP3   OH249906   2.651   4.514   2.747 -0.0190  0.3170  0.5113
 9472TIP3    H149907   2.653   4.574   2.672  2.1783 -1.2405 -0.7274
 9472TIP3    H249908   2.743   4.505   2.773 -0.3567 -2.1314  0.9643
 9473TIP3   OH249909   4.289   5.116  11.579 -0.1161 -0.4279 -0.0751
 9473TIP3    H149910   4.286   5.149  11.489 -0.6956  0.7097  0.3622
 9473TIP3    H249911   4.264   5.190  11.633 -1.1686 -1.5050  0.9340
 9474TIP3   OH249912   5.742   5.077   2.255  0.3876  0.6030 -0.3161
 9474TIP3    H149913   5.657   5.092   2.297 -0.2254 -2.2018 -0.4392
 9474TIP3    H249914   5.722   5.064   2.163  0.9346 -0.1354 -0.3355
 9475TIP3   OH249915   0.474   2.681  14.031  0.1367 -0.2733 -0.3102
 9475TIP3    H149916   0.523   2.604  14.062  0.6126  0.4867  0.8522
 9475TIP3    H249917   0.418   2.647  13.962  0.8873 -1.5356 -0.3174
 9476TIP3   OH249918   3.851   4.431   2.471  0.3140  0.1848 -0.4362
 9476TIP3    H149919   3.762   4.412   2.502  0.1886  1.9184  0.3401
 9476TIP3    H249920   3.858   4.384   2.388 -1.6520  0.7319 -0.9522
 9477TIP3   OH249921   5.969   5.528   3.540 -0.3825  0.4414 -0.4927
 9477TIP3    H149922   5.917   5.477   3.602  2.0947 -0.5401  0.8508
 9477TIP3    H249923   5.941   5.497   3.454  1.6620 -3.8865  0.2851
 9478TIP3   OH249924   0.573   0.944   0.097  0.1248 -0.2671 -0.5856
 9478TIP3    H149925   0.566   1.038   0.079 -1.9202 -0.4538 -0.8766
 9478TIP3    H249926   0.579   0.939   0.193  0.7929  0.1756 -0.5961
 9479TIP3   OH249927   3.924   0.908   4.863  0.1345  0.3206 -0.4185
 9479TIP3    H149928   4.018   0.910   4.849  0.0014  2.8996 -1.1457
 9479TIP3    H249929   3.894   0.996   4.840 -2.2941 -0.1197  0.8849
 9480TIP3   OH249930   3.327   5.237  16.602 -0.2522  0.2976  0.0937
 9480TIP3    H149931   3.232   5.234  16.594 -0.2916  0.8700  0.2656
 9480TIP3    H249932   3.359   5.169  16.543 -0.8193 -0.8801  1.1455
 9481TIP3   OH249933   0.019   0.709   1.106 -0.1446  0.2601  0.0256
 9481TIP3    H149934  -0.034   0.655   1.048  1.0775  1.8573 -2.6604
 9481TIP3    H249935   0.108   0.677   1.095  0.1206  0.6677  0.9135
 9482TIP3   OH249936   5.065   0.839  12.896 -0.8765  0.0327 -0.0613
 9482TIP3    H149937   5.107   0.921  12.921 -1.2825  0.3022 -0.2435
 9482TIP3    H249938   4.995   0.827  12.961 -1.0365  0.0067 -0.2374
 9483TIP3   OH249939   3.938   3.169   3.635  0.2368 -0.2486 -0.2899
 9483TIP3    H149940   3.876   3.096   3.642  0.3324 -0.4750 -1.6414
 9483TIP3    H249941   3.890   3.236   3.586  1.0765 -0.4453 -1.3846
 9484TIP3   OH249942   3.143   2.348   2.833 -0.0540 -0.1434  0.4030
 9484TIP3    H149943   3.214   2.322   2.774  0.9917  2.7980  0.2566
 9484TIP3    H249944   3.066   2.355   2.776  0.8599  2.2933 -0.5863
 9485TIP3   OH249945   4.195   1.378  16.458 -0.2667  0.1484  0.3211
 9485TIP3    H149946   4.149   1.439  16.515  0.1086  1.1297 -0.4147
 9485TIP3    H249947   4.183   1.292  16.500 -0.5640  0.7576  1.5038
 9486TIP3   OH249948   0.245   0.552   4.794  0.3668 -0.6144 -0.1630
 9486TIP3    H149949   0.174   0.610   4.822 -1.2404 -2.2673 -0.7112
 9486TIP3    H249950   0.224   0.531   4.703  2.0283 -0.4429 -0.5949
 9487TIP3   OH249951   0.948   1.277   0.817  0.0387  0.8168 -0.6028
 9487TIP3    H149952   0.879   1.334   0.782  0.5675  1.7888 -0.0823
 9487TIP3    H249953   1.023   1.292   0.760 -0.7582 -1.7174 -2.3639
 9488TIP3   OH249954   2.816   1.530   4.712 -0.0483  0.2978  0.4247
 9488TIP3    H149955   2.892   1.508   4.657 -1.4319 -0.5332 -1.2237
 9488TIP3    H249956   2.818   1.626   4.718  0.7681  0.3280 -0.1500
 9489TIP3   OH249957   1.183   4.624   1.194  0.0932  0.4300  0.6693
 9489TIP3    H149958   1.140   4.623   1.109 -0.7748  0.2800  1.1053
 9489TIP3    H249959   1.119   4.586   1.254  0.0799  1.9914  1.6766
 9490TIP3   OH249960   3.299   4.778  14.836 -0.6156  0.0772  0.4114
 9490TIP3    H149961   3.364   4.740  14.896 -0.9869  0.1045  0.8355
 9490TIP3    H249962   3.341   4.856  14.801  0.4549 -1.0924 -1.0331
 9491TIP3   OH249963   1.099   6.630  15.804 -0.3118  0.3376 -0.2967
 9491TIP3    H149964   1.055   6.658  15.884  0.8116 -2.3475  1.3158
 9491TIP3    H249965   1.153   6.705  15.779 -0.6918  1.2189  1.4433
 9492TIP3   OH249966   4.142   2.752  12.780  0.1906 -0.0334  0.3314
 9492TIP3    H149967   4.166   2.707  12.861  1.1669  0.4953  0.3549
 9492TIP3    H249968   4.144   2.845  12.804 -1.4809  0.0542  0.2049
 9493TIP3   OH249969   5.240   1.599   6.102  0.4392  0.2282 -0.0754
 9493TIP3    H149970   5.202   1.512   6.107 -0.5917  0.4639 -2.6694
 9493TIP3    H249971   5.177   1.655   6.147  0.1782 -0.1012 -0.0274
 9494TIP3   OH249972   4.919   2.165  15.372 -0.1856  0.6722 -0.8080
 9494TIP3    H149973   4.904   2.073  15.395 -3.1327  1.3575  0.1716
 9494TIP3    H249974   4.975   2.198  15.442  1.2819 -0.4672 -1.4110
 9495TIP3   OH249975   0.208   4.679   0.353  0.4836 -0.3321 -0.0266
 9495TIP3    H149976   0.278   4.614   0.365  0.1353 -0.4920  1.2777
 9495TIP3    H249977   0.153   4.668   0.431 -0.5115  0.3803 -0.6309
 9496TIP3   OH249978   3.579   6.061  16.153  0.0820  0.5830 -0.1067
 9496TIP3    H149979   3.539   6.005  16.220 -1.5194  0.9070 -0.7796
 9496TIP3    H249980   3.670   6.071  16.182 -0.1490 -0.6572  1.1214
 9497TIP3   OH249981   5.112   1.909   3.241  0.7931  0.0399 -0.0978
 9497TIP3    H149982   5.131   1.822   3.277  0.6718 -0.2111 -0.6308
 9497TIP3    H249983   5.168   1.916   3.164  0.3690  0.1931 -0.3955
 9498TIP3   OH249984   0.249   6.346  14.509  0.2664  0.1240  0.0082
 9498TIP3    H149985   0.337   6.310  14.501  0.7999  1.5178 -0.6026
 9498TIP3    H249986   0.191   6.272  14.492  1.3427 -0.2368 -2.2817
 9499TIP3   OH249987   3.907   6.305  15.748  0.4829 -0.0028  0.2427
 9499TIP3    H149988   3.996   6.269  15.738  0.2165 -0.2815 -1.3849
 9499TIP3    H249989   3.866   6.250  15.815  1.6853  0.4331  1.3536
 9500TIP3   OH249990   3.881   5.398   4.315  0.1609  0.1596  0.2765
 9500TIP3    H149991   3.975   5.415   4.325  0.4138 -1.0974  0.1140
 9500TIP3    H249992   3.875   5.346   4.235 -0.4024 -1.8964  1.6171
 9501TIP3   OH249993   5.621   1.586  10.966 -0.2058  0.3796  0.1218
 9501TIP3    H149994   5.579   1.607  11.050 -1.3601  0.3181 -0.4381
 9501TIP3    H249995   5.679   1.661  10.949 -0.5733  0.7658  0.5723
 9502TIP3   OH249996   0.010   2.649   0.845  0.3698  0.2107 -0.8331
 9502TIP3    H149997   0.097   2.687   0.833  0.8600 -0.7133 -0.2504
 9502TIP3    H249998  -0.016   2.675   0.933  0.1455  0.3156 -0.9301
 9503TIP3   OH249999   1.663   0.282  11.199 -0.2454  0.0107 -0.2637
 9503TIP3    H150000   1.645   0.252  11.109 -0.5348  1.7502 -0.7969
 9503TIP3    H250001   1.745   0.239  11.222 -0.4442 -0.8838 -1.1605
 9504TIP3   OH250002   0.293   3.965  13.581  0.6458  0.4167  0.1323
 9504TIP3    H150003   0.266   4.050  13.546 -1.4560  0.0687  0.7944
 9504TIP3    H250004   0.227   3.904  13.547  2.6629 -1.1304 -1.1099
 9505TIP3   OH250005   1.159   2.865  14.713  0.5052 -0.8037 -0.5329
 9505TIP3    H150006   1.138   2.833  14.800 -0.5967 -0.4686 -0.6733
 9505TIP3    H250007   1.080   2.909  14.683  2.1505  2.5522 -0.1273
 9506TIP3   OH250008   4.987   6.577  15.737  0.0694 -0.4643  0.5684
 9506TIP3    H150009   4.908   6.528  15.758 -0.9389  0.6799 -0.5206
 9506TIP3    H250010   5.009   6.551  15.648 -0.2429  0.7490  0.1325
 9507TIP3   OH250011   3.880   6.216  14.365 -0.4407 -0.2002 -0.5664
 9507TIP3    H150012   3.885   6.197  14.458 -0.2751 -1.5735 -0.8393
 9507TIP3    H250013   3.961   6.261  14.345 -0.2248 -0.4041 -0.1530
 9508TIP3   OH250014   2.882   5.639  16.031 -0.4089 -0.0788  0.0695
 9508TIP3    H150015   2.830   5.565  16.062  0.3297 -1.0727 -1.0015
 9508TIP3    H250016   2.972   5.609  16.035 -0.0346  1.0682  0.4122
 9509TIP3   OH250017   0.626   3.934  13.979  0.6684  0.0882  0.3211
 9509TIP3    H150018   0.714   3.896  13.972  1.4734  2.1278 -1.3136
 9509TIP3    H250019   0.641   4.029  13.978 -1.7222  0.5211 -3.2067
 9510TIP3   OH250020   0.862   6.731  13.711 -0.1979 -0.1446 -0.7177
 9510TIP3    H150021   0.770   6.729  13.683 -0.2279  2.4087 -0.9063
 9510TIP3    H250022   0.858   6.742  13.806 -0.0690 -1.1926 -0.5832
 9511TIP3   OH250023   6.489   3.570  16.350  0.0300 -0.4832  0.1760
 9511TIP3    H150024   6.401   3.543  16.325 -0.1557 -0.9473  1.3077
 9511TIP3    H250025   6.488   3.665  16.344 -0.1716 -0.5494 -1.0143
 9512TIP3   OH250026   4.571   0.640   4.233  0.1796 -0.6370 -0.6739
 9512TIP3    H150027   4.625   0.629   4.311  2.4933 -1.4601 -2.3651
 9512TIP3    H250028   4.509   0.567   4.235  0.0329 -0.4876  0.5160
 9513TIP3   OH250029   5.529   6.530  15.375  0.6444 -0.0091  0.0501
 9513TIP3    H150030   5.454   6.470  15.370  1.5793 -1.0980 -1.5368
 9513TIP3    H250031   5.562   6.519  15.464 -0.0144 -0.8507  0.2048
 9514TIP3   OH250032   4.396   0.488  11.936 -0.0269 -0.1582  0.7536
 9514TIP3    H150033   4.393   0.554  11.866  0.1089 -0.9773 -0.0309
 9514TIP3    H250034   4.489   0.482  11.959  0.3398 -2.0369 -1.0749
 9515TIP3   OH250035   1.696   6.149  17.206 -0.4669  0.1432 -0.4593
 9515TIP3    H150036   1.672   6.239  17.184 -0.0537  0.1155 -1.0500
 9515TIP3    H250037   1.791   6.147  17.196 -0.2891  0.0744  1.1759
 9516TIP3   OH250038   0.681   0.264   1.082 -0.3120  0.3543  0.1273
 9516TIP3    H150039   0.775   0.272   1.071 -0.4854  1.3761 -0.6011
 9516TIP3    H250040   0.670   0.183   1.132  0.9656  0.4236  0.5352
 9517TIP3   OH250041   5.621   4.464  14.114 -0.1555 -0.2224 -0.5509
 9517TIP3    H150042   5.684   4.476  14.185  0.3310 -0.8601 -0.8685
 9517TIP3    H250043   5.536   4.478  14.155  0.0889 -1.1780  0.2960
 9518TIP3   OH250044   3.763   0.640  12.337 -0.2572 -0.8421  0.2494
 9518TIP3    H150045   3.703   0.667  12.406 -0.3892 -0.1789 -0.1232
 9518TIP3    H250046   3.850   0.646  12.377 -0.3386 -0.5191  0.3768
 9519TIP3   OH250047   6.757   2.982  13.115 -0.3137  0.0162 -0.5941
 9519TIP3    H150048   6.833   3.021  13.159 -0.5679 -0.4012  0.2213
 9519TIP3    H250049   6.703   3.057  13.090 -1.4440  0.1484  2.1183
 9520TIP3   OH250050   0.017   2.329   1.575  0.5779  0.1363 -0.1685
 9520TIP3    H150051   0.021   2.308   1.481 -0.4430  1.4286 -0.5273
 9520TIP3    H250052   0.105   2.360   1.596  0.9468 -0.6104 -0.5858
 9521TIP3   OH250053   5.498   2.829  15.573 -0.0564 -0.8188  0.3108
 9521TIP3    H150054   5.455   2.915  15.569 -0.5213 -1.1200 -1.8481
 9521TIP3    H250055   5.428   2.767  15.590  0.2120 -0.8292  1.4000
 9522TIP3   OH250056   0.777   5.742  12.600  0.8450 -0.1774 -0.2402
 9522TIP3    H150057   0.755   5.677  12.534  1.6425  0.0613 -0.7449
 9522TIP3    H250058   0.859   5.780  12.570  0.9917  0.2311  0.6704
 9523TIP3   OH250059   3.826   3.329  11.213 -0.3187  0.0971  0.2293
 9523TIP3    H150060   3.808   3.266  11.143  1.4668  0.4190 -0.5513
 9523TIP3    H250061   3.887   3.392  11.174  2.1493 -0.7216  2.5575
 9524TIP3   OH250062   5.890   1.387   6.029 -0.0526  0.1807 -0.6552
 9524TIP3    H150063   5.836   1.328   5.976  0.7044 -0.2436 -0.9745
 9524TIP3    H250064   5.828   1.435   6.083 -0.5401 -2.7752  1.5143
 9525TIP3   OH250065   0.763   4.056   5.343 -0.0134 -0.4764  0.4819
 9525TIP3    H150066   0.716   4.109   5.279 -0.3774 -1.8735 -0.4371
 9525TIP3    H250067   0.701   4.042   5.414 -0.0068  0.1131  0.6001
 9526TIP3   OH250068   0.079   3.902   1.895  1.0100  0.1246  0.0313
 9526TIP3    H150069   0.170   3.907   1.926  1.0786 -0.8334 -0.0099
 9526TIP3    H250070   0.072   3.816   1.854  0.2768  0.4771 -0.6028
 9527TIP3   OH250071   2.129   4.812  13.251 -0.2196  0.4176 -0.0635
 9527TIP3    H150072   2.159   4.738  13.198  0.8664  0.7096  0.1144
 9527TIP3    H250073   2.123   4.885  13.189 -0.8875  0.2838 -0.1597
 9528TIP3   OH250074   3.311   2.843   3.829  0.1291 -0.1981  0.2184
 9528TIP3    H150075   3.319   2.937   3.813  0.5764 -0.3174 -0.2904
 9528TIP3    H250076   3.372   2.826   3.901 -1.0376  0.1482  1.2928
 9529TIP3   OH250077   1.710   1.089  12.000  0.3567  0.3729 -0.5041
 9529TIP3    H150078   1.676   1.169  12.041 -0.5064 -0.5882  0.6804
 9529TIP3    H250079   1.664   1.018  12.045  3.0112 -0.9154  0.2521
 9530TIP3   OH250080   5.850   2.698   2.416  0.1002  0.1631 -0.0498
 9530TIP3    H150081   5.797   2.643   2.358  1.4192 -2.2163  0.9660
 9530TIP3    H250082   5.817   2.679   2.503  0.4647  1.1409  0.3073
 9531TIP3   OH250083   0.791   1.228   1.301 -0.2475 -0.0340 -0.0819
 9531TIP3    H150084   0.866   1.285   1.315 -0.7232  0.2380  1.5130
 9531TIP3    H250085   0.760   1.250   1.214  2.7179 -1.5687 -1.5816
 9532TIP3   OH250086   0.293   5.183   5.092  0.3550  0.1448  0.2110
 9532TIP3    H150087   0.201   5.201   5.109  0.2169  0.3125 -0.6739
 9532TIP3    H250088   0.339   5.215   5.170 -0.1488  1.7620 -0.1433
 9533TIP3   OH250089   4.763   1.563  12.423 -0.4389  0.1593  0.0921
 9533TIP3    H150090   4.766   1.646  12.471  1.8875 -1.0650  2.1779
 9533TIP3    H250091   4.812   1.581  12.343 -2.1830  1.5102 -0.7063
 9534TIP3   OH250092   2.706   2.737   1.354 -0.0193 -0.7117 -0.1980
 9534TIP3    H150093   2.679   2.798   1.423  0.0408 -0.4004 -0.4487
 9534TIP3    H250094   2.632   2.735   1.294 -0.8723 -2.4718  0.8705
 9535TIP3   OH250095   5.089   3.625   2.798  0.1520 -0.0679  0.0320
 9535TIP3    H150096   5.054   3.542   2.764 -0.6717 -0.0876  0.9202
 9535TIP3    H250097   5.015   3.685   2.795  0.6584  0.5446 -0.2635
 9536TIP3   OH250098   0.796   5.677   3.162  0.1520 -0.0616 -0.0356
 9536TIP3    H150099   0.853   5.726   3.104  1.0173 -1.2627 -0.2381
 9536TIP3    H250100   0.707   5.693   3.130  0.3576  1.9997  0.4126
 9537TIP3   OH250101   0.708   4.672  16.917 -0.5803  0.4027 -0.3624
 9537TIP3    H150102   0.672   4.645  17.001  3.3857 -2.0710  0.6858
 9537TIP3    H250103   0.780   4.731  16.940  2.7413 -2.9374 -1.7478
 9538TIP3   OH250104   5.179   1.317   0.724  0.9232  0.4381  1.2534
 9538TIP3    H150105   5.190   1.322   0.629  0.1727 -0.6740  1.1046
 9538TIP3    H250106   5.195   1.407   0.754  0.2482  1.0074 -0.0174
 9539TIP3   OH250107   5.315   3.647   1.932 -0.1942 -0.6281  0.1483
 9539TIP3    H150108   5.336   3.585   1.863  0.4132  1.5169 -1.6746
 9539TIP3    H250109   5.276   3.722   1.886  0.6749  1.0487  2.0404
 9540TIP3   OH250110   5.027   4.163   6.412 -0.2595  0.3434 -0.1511
 9540TIP3    H150111   5.030   4.249   6.370 -1.5615  0.3281 -0.3249
 9540TIP3    H250112   5.043   4.180   6.504  0.0896  0.6966 -0.2751
 9541TIP3   OH250113   5.718   2.292  16.230  0.8931  0.1033 -0.3407
 9541TIP3    H150114   5.788   2.298  16.295  0.2635 -1.1423  0.4700
 9541TIP3    H250115   5.721   2.202  16.199 -1.3099 -0.4199  0.8186
 9542TIP3   OH250116   1.485   5.606  15.526  0.3468 -0.5905  0.2849
 9542TIP3    H150117   1.513   5.695  15.546 -0.7292 -0.5724  1.8197
 9542TIP3    H250118   1.550   5.573  15.465  1.1558  0.9978  0.2701
 9543TIP3   OH250119   5.629   3.515  11.882  0.5675 -0.0906  0.3735
 9543TIP3    H150120   5.603   3.607  11.891  0.3068 -0.0781 -0.4425
 9543TIP3    H250121   5.705   3.505  11.939 -0.1902  0.3092  1.4740
 9544TIP3   OH250122   0.355   4.098  14.627 -0.0940  0.8121  0.2480
 9544TIP3    H150123   0.276   4.045  14.615 -1.2496  2.2889  1.1011
 9544TIP3    H250124   0.427   4.035  14.628 -1.1314 -0.4399 -1.8270
 9545TIP3   OH250125   4.678   4.466   5.764 -0.4744  0.2925  0.7939
 9545TIP3    H150126   4.711   4.555   5.766 -0.5666  0.3313  0.5928
 9545TIP3    H250127   4.756   4.411   5.755 -0.5083  0.4175 -0.4064
 9546TIP3   OH250128   5.658   2.969   4.980  0.0999 -0.1478 -0.7781
 9546TIP3    H150129   5.750   2.941   4.974  0.3296 -0.4732  3.1017
 9546TIP3    H250130   5.612   2.892   5.014 -0.8883  1.2463  1.0979
 9547TIP3   OH250131   2.656   3.323   2.966  0.9379 -0.2169  0.1040
 9547TIP3    H150132   2.637   3.314   2.873  0.8919 -1.6113  0.2309
 9547TIP3    H250133   2.615   3.405   2.991  0.5604 -0.0519 -1.0092
 9548TIP3   OH250134   0.239   1.617   6.622  0.0541  0.0373 -0.1763
 9548TIP3    H150135   0.191   1.578   6.695 -0.9808  1.4511 -0.0734
 9548TIP3    H250136   0.320   1.567   6.617  0.5399  0.4789  2.5328
 9549TIP3   OH250137   6.168   1.854  14.676 -0.3516 -0.0689  0.1523
 9549TIP3    H150138   6.255   1.836  14.711  0.3219 -0.6042 -1.7089
 9549TIP3    H250139   6.125   1.769  14.673 -0.4691 -0.0028 -0.1083
 9550TIP3   OH250140   0.259   4.266  14.829 -0.4321  0.5578 -0.2389
 9550TIP3    H150141   0.284   4.358  14.819  0.4241  0.4960  1.2445
 9550TIP3    H250142   0.313   4.219  14.766  0.0216  0.9393 -0.1383
 9551TIP3   OH250143   5.026   6.403   2.937  0.3212  0.2713 -0.3968
 9551TIP3    H150144   5.104   6.457   2.951 -0.3450  1.1579 -0.0109
 9551TIP3    H250145   4.994   6.430   2.851 -1.7784  2.8027  1.1061
 9552TIP3   OH250146   2.652   0.895  15.137 -0.3871 -0.0274  0.3954
 9552TIP3    H150147   2.558   0.890  15.119 -0.3301  0.1376  0.0464
 9552TIP3    H250148   2.660   0.962  15.206 -0.3796  1.1022 -0.6840
 9553TIP3   OH250149   2.357   5.037  11.645  0.5558  0.0432  0.1691
 9553TIP3    H150150   2.329   5.106  11.705 -1.9673  0.6467 -1.6281
 9553TIP3    H250151   2.362   5.079  11.560  2.3331 -1.2243 -0.3784
 9554TIP3   OH250152   0.877   6.049  11.756 -0.3192 -0.7929  0.0194
 9554TIP3    H150153   0.827   5.969  11.770 -2.6045  0.6175  0.3184
 9554TIP3    H250154   0.816   6.107  11.710  1.8116  0.2382 -1.5839
 9555TIP3   OH250155   3.543   6.156   0.102  0.0898  0.2409 -0.2367
 9555TIP3    H150156   3.482   6.112   0.042  0.9207 -0.0199 -0.9012
 9555TIP3    H250157   3.507   6.139   0.189 -0.5331 -0.3062 -0.5952
 9556TIP3   OH250158   2.770   6.064  10.580  0.4724 -0.0194 -0.0564
 9556TIP3    H150159   2.857   6.043  10.546  0.0646  0.3760 -1.3690
 9556TIP3    H250160   2.773   6.159  10.596  0.4980 -0.1193  0.5437
 9557TIP3   OH250161   0.788   1.243   5.444  0.0853 -0.2719 -0.5356
 9557TIP3    H150162   0.807   1.229   5.351  1.9414  0.9913 -0.3687
 9557TIP3    H250163   0.874   1.253   5.485 -0.7313 -0.4087  1.2639
 9558TIP3   OH250164   0.529   2.720   3.249 -0.0263  0.2963  0.3727
 9558TIP3    H150165   0.501   2.810   3.267  0.4040  0.3190  0.9137
 9558TIP3    H250166   0.576   2.726   3.166 -1.1988  0.3391 -0.3047
 9559TIP3   OH250167   6.010   4.982   0.526 -0.5973  0.3649 -0.0123
 9559TIP3    H150168   5.941   4.933   0.571  0.6183 -0.9856  0.4215
 9559TIP3    H250169   6.088   4.928   0.536 -0.1291  0.3844 -3.1646
 9560TIP3   OH250170   0.763   2.217  14.475  0.0056  0.4819 -0.1944
 9560TIP3    H150171   0.792   2.158  14.545  0.7736  0.6935 -0.3294
 9560TIP3    H250172   0.739   2.158  14.404  0.2170  0.3035 -0.1229
 9561TIP3   OH250173   6.572   3.208  11.854  1.1099  0.7220 -0.4221
 9561TIP3    H150174   6.634   3.158  11.801  1.6694 -0.3223  1.1940
 9561TIP3    H250175   6.547   3.148  11.924 -1.0021  1.4684 -0.5055
 9562TIP3   OH250176   1.242   3.349   2.218 -0.0656 -0.4395  0.1855
 9562TIP3    H150177   1.152   3.360   2.187  0.0310  0.7602  0.3174
 9562TIP3    H250178   1.237   3.361   2.312  0.0008 -1.9129  0.3968
 9563TIP3   OH250179   0.148   0.581  15.960 -0.3772  0.3166  0.3190
 9563TIP3    H150180   0.205   0.509  15.986 -0.4264 -0.4637 -1.5988
 9563TIP3    H250181   0.079   0.583  16.026 -1.7420 -3.0242 -0.9243
 9564TIP3   OH250182   5.350   0.723  16.133 -0.0544  0.8879  0.0364
 9564TIP3    H150183   5.309   0.690  16.053  1.1706 -2.8785  0.8334
 9564TIP3    H250184   5.407   0.793  16.104 -0.4271  0.2869 -2.2439
 9565TIP3   OH250185   1.079   0.530   2.623 -0.1098  0.3227 -0.0550
 9565TIP3    H150186   1.051   0.583   2.697 -2.7266  0.0924 -0.8125
 9565TIP3    H250187   1.093   0.443   2.659 -0.3019  0.4632  0.3531
 9566TIP3   OH250188   0.936   4.112   2.074 -0.3767  0.1772  0.5007
 9566TIP3    H150189   0.888   4.159   2.143  0.2203  0.1451  0.9466
 9566TIP3    H250190   0.905   4.022   2.082 -2.5631  0.7227 -1.2673
 9567TIP3   OH250191   1.849   1.185  13.694 -0.4541 -0.2428 -0.3048
 9567TIP3    H150192   1.755   1.186  13.680 -0.3541  0.5656 -0.9169
 9567TIP3    H250193   1.887   1.171  13.607  0.0605  1.6556 -0.3931
 9568TIP3   OH250194   2.415   3.340  13.027  0.4947  0.3317  0.1238
 9568TIP3    H150195   2.415   3.432  12.999 -0.1966 -0.9034 -4.4042
 9568TIP3    H250196   2.493   3.332  13.081  0.0744  3.7606  1.3873
 9569TIP3   OH250197   3.035   3.500  17.024 -0.2265 -0.9914 -0.6243
 9569TIP3    H150198   2.972   3.441  17.066 -0.2180 -0.8302 -0.3806
 9569TIP3    H250199   2.990   3.584  17.018  0.2427 -0.6681  0.2830
 9570TIP3   OH250200   5.470   0.470   2.316 -0.1171 -0.4674 -0.1921
 9570TIP3    H150201   5.484   0.564   2.308  1.1365 -0.7001 -0.8689
 9570TIP3    H250202   5.550   0.430   2.282 -0.7244 -1.7861 -0.1366
 9571TIP3   OH250203   3.563   4.023   2.551 -0.3970 -0.3606 -0.1313
 9571TIP3    H150204   3.574   4.107   2.594  1.8961  0.6639 -2.6315
 9571TIP3    H250205   3.472   4.023   2.520 -0.4323  1.1397 -0.0288
 9572TIP3   OH250206   4.847   5.672   3.554  0.1559 -0.3137 -0.5541
 9572TIP3    H150207   4.866   5.581   3.580  0.5508 -0.5567 -1.6754
 9572TIP3    H250208   4.873   5.676   3.462 -0.2714  0.8248 -0.6228
 9573TIP3   OH250209   5.705   0.085   4.570 -0.6282  0.1262 -0.3315
 9573TIP3    H150210   5.753   0.059   4.491  0.5887 -2.1422  1.1070
 9573TIP3    H250211   5.747   0.166   4.597  0.6527 -0.4366 -0.5893
 9574TIP3   OH250212   0.930   0.152   0.700 -0.1912  0.6445 -0.3366
 9574TIP3    H150213   0.949   0.232   0.650 -1.7097  1.5097  0.4154
 9574TIP3    H250214   1.013   0.105   0.703  0.5429  1.8310 -1.4422
 9575TIP3   OH250215   4.718   5.974  14.961 -0.2628 -0.1832 -0.0162
 9575TIP3    H150216   4.624   5.964  14.946 -0.0234 -2.5000 -0.0870
 9575TIP3    H250217   4.753   5.885  14.956  2.1044  0.7769 -1.0275
 9576TIP3   OH250218   3.307   4.665   4.261 -0.1879 -0.2513  0.4208
 9576TIP3    H150219   3.312   4.680   4.167 -0.6251 -1.5863  0.1751
 9576TIP3    H250220   3.392   4.695   4.295  0.2138 -0.3600 -0.4804
 9577TIP3   OH250221   6.201   2.268  16.767  0.6353  0.0397 -0.0369
 9577TIP3    H150222   6.289   2.258  16.729  1.2056  2.5095  0.5072
 9577TIP3    H250223   6.152   2.316  16.700  0.2338  0.1974  0.3685
 9578TIP3   OH250224   6.085   2.870  14.207  0.9193  0.5296 -0.2656
 9578TIP3    H150225   6.047   2.937  14.264  2.6805  1.7990 -0.5322
 9578TIP3    H250226   6.049   2.788  14.239 -0.6869  1.5378  0.5617
 9579TIP3   OH250227   6.565   3.724  13.307  0.2568 -0.2943 -0.0344
 9579TIP3    H150228   6.529   3.805  13.344  2.1234  0.4600  0.1773
 9579TIP3    H250229   6.526   3.719  13.220 -0.8495  0.1649  0.4152
 9580TIP3   OH250230   4.047   1.144   5.390  0.1938 -0.3201 -0.0378
 9580TIP3    H150231   4.055   1.117   5.482  1.1816 -1.5348 -0.4647
 9580TIP3    H250232   4.090   1.230   5.386 -1.7825  0.7363  1.0681
 9581TIP3   OH250233   6.542   2.192  16.941 -0.0520  0.6755 -0.0347
 9581TIP3    H150234   6.558   2.113  16.994  1.2977  1.1406  0.2673
 9581TIP3    H250235   6.599   2.181  16.864  0.9988  1.8737  0.5524
 9582TIP3   OH250236   5.618   1.910  13.148 -0.5474 -0.0352 -0.8124
 9582TIP3    H150237   5.594   1.825  13.112  1.7831 -1.4840  0.8633
 9582TIP3    H250238   5.578   1.911  13.235 -0.1153  0.3527 -0.6140
 9583TIP3   OH250239   1.329   3.478   0.732  0.2771 -0.2077  0.1860
 9583TIP3    H150240   1.335   3.403   0.672 -0.1075  0.2159 -0.3923
 9583TIP3    H250241   1.290   3.548   0.679 -0.4386  0.0591  1.0476
 9584TIP3   OH250242   4.986   3.707   4.257 -0.3083 -0.0802 -0.6894
 9584TIP3    H150243   5.012   3.795   4.229 -1.3237  1.2630  2.4572
 9584TIP3    H250244   5.064   3.672   4.300 -1.2461  1.0621  2.0486
 9585TIP3   OH250245   4.140   3.588   0.891 -0.2762 -0.5588 -1.0161
 9585TIP3    H150246   4.205   3.602   0.960 -0.9604  0.7562 -0.6059
 9585TIP3    H250247   4.135   3.673   0.846 -1.3476 -0.7928 -1.3507
 9586TIP3   OH250248   3.644   4.175   0.759 -0.1875  0.1971  0.1700
 9586TIP3    H150249   3.691   4.138   0.684  1.7996  0.9511  1.0202
 9586TIP3    H250250   3.646   4.106   0.825 -2.0926 -0.5336 -0.4849
 9587TIP3   OH250251   3.827   4.622  12.869  0.1474 -0.1776 -0.0309
 9587TIP3    H150252   3.864   4.705  12.840  0.2238 -0.0869  0.3229
 9587TIP3    H250253   3.885   4.555  12.832  1.4909  0.0084  1.6845
 9588TIP3   OH250254   4.308   1.206  12.564  0.4443  0.1266  0.0580
 9588TIP3    H150255   4.357   1.161  12.494 -0.0416  1.1163 -0.9316
 9588TIP3    H250256   4.368   1.272  12.597  0.2194  0.5243 -0.3199
 9589TIP3   OH250257   6.328   5.453   5.143 -0.2764  0.3756 -0.4291
 9589TIP3    H150258   6.372   5.412   5.217 -0.1507 -1.1707 -1.3350
 9589TIP3    H250259   6.347   5.546   5.152  1.2652 -0.0107  0.4701
 9590TIP3   OH250260   0.387   6.777   5.550 -0.1741 -0.7451  0.3861
 9590TIP3    H150261   0.397   6.709   5.483 -1.9711  0.9510 -1.6974
 9590TIP3    H250262   0.298   6.810   5.536  0.7553  2.1803  1.2000
 9591TIP3   OH250263   3.201   6.244   0.270  0.1376 -0.1142  0.0122
 9591TIP3    H150264   3.174   6.213   0.357  1.0213 -0.1178  0.2908
 9591TIP3    H250265   3.202   6.165   0.216  1.9699 -0.5313  0.6158
 9592TIP3   OH250266   4.968   0.527  12.078  0.2137 -0.3629 -0.5306
 9592TIP3    H150267   4.915   0.603  12.050  1.1145  1.2102  1.8962
 9592TIP3    H250268   5.042   0.566  12.125  1.4438 -2.7215 -0.4765
 9593TIP3   OH250269   0.862   1.390   2.209 -0.2556  0.3396 -0.0267
 9593TIP3    H150270   0.783   1.406   2.261 -0.1823 -0.3196  0.2822
 9593TIP3    H250271   0.927   1.450   2.246 -0.4062  0.3763  0.1820
 9594TIP3   OH250272   3.247   5.662  11.888  0.6301  0.2889  0.1066
 9594TIP3    H150273   3.257   5.723  11.961  0.6491  0.5403 -0.1043
 9594TIP3    H250274   3.153   5.664  11.868  0.4263 -0.7357  0.9377
 9595TIP3   OH250275   3.997   1.782   2.736 -0.1703  0.4139  0.1748
 9595TIP3    H150276   3.975   1.724   2.663 -2.1276  2.7822 -1.2049
 9595TIP3    H250277   4.061   1.733   2.787 -1.1384 -2.5997 -1.3765
 9596TIP3   OH250278   5.233   6.671   2.272 -0.1365 -0.1199  0.7339
 9596TIP3    H150279   5.314   6.721   2.278  0.0321 -0.0330 -1.8316
 9596TIP3    H250280   5.166   6.737   2.252 -0.0451 -0.7403 -1.8215
 9597TIP3   OH250281   3.025   4.065  14.038 -0.3343 -0.1516 -0.1956
 9597TIP3    H150282   3.080   4.141  14.055 -0.8994 -0.1519  1.7403
 9597TIP3    H250283   3.082   4.004  13.991  0.7416  0.6126  0.0989
 9598TIP3   OH250284   4.953   3.188   4.956  0.4296  0.6218  0.0665
 9598TIP3    H150285   4.950   3.192   5.052  0.1499 -1.7550  0.1811
 9598TIP3    H250286   5.039   3.151   4.937 -0.0353 -0.1301 -0.5545
 9599TIP3   OH250287   4.653   4.218   1.390  0.7564  0.4662  0.3783
 9599TIP3    H150288   4.694   4.301   1.412  1.2451  0.4488 -0.4396
 9599TIP3    H250289   4.726   4.158   1.375  0.4016 -0.2768  1.5882
 9600TIP3   OH250290   3.082   1.205   6.108 -0.3777 -0.0865 -0.0689
 9600TIP3    H150291   3.031   1.282   6.083  0.1198  0.2682  0.0023
 9600TIP3    H250292   3.019   1.133   6.107 -0.8427  0.3205 -0.1414
 9601TIP3   OH250293   5.294   6.218  15.684  0.0384 -0.7119 -0.0212
 9601TIP3    H150294   5.337   6.139  15.719 -1.0636 -1.3001  0.0103
 9601TIP3    H250295   5.213   6.225  15.733 -0.3081 -0.0866 -0.6760
 9602TIP3   OH250296   6.006   0.265  15.221 -0.2155 -0.0278  0.0019
 9602TIP3    H150297   5.981   0.293  15.310 -2.1587 -0.9584 -0.2421
 9602TIP3    H250298   6.040   0.176  15.233  2.3963  0.9583  0.2247
 9603TIP3   OH250299   4.139   4.443   0.762 -0.0088 -0.1020  0.2156
 9603TIP3    H150300   4.084   4.367   0.781 -2.8609  2.0856  1.1744
 9603TIP3    H250301   4.076   4.512   0.739  2.4811  2.0092 -0.4221
 9604TIP3   OH250302   1.751   4.369  12.176  0.5969 -0.1266  0.3150
 9604TIP3    H150303   1.708   4.294  12.134  0.9632  1.1760 -2.5163
 9604TIP3    H250304   1.681   4.413  12.224 -1.0160  1.1771 -3.0846
 9605TIP3   OH250305   0.107   1.012  14.926 -0.5319 -0.1204 -0.7830
 9605TIP3    H150306   0.161   0.968  14.861  0.2221  1.1747 -1.0513
 9605TIP3    H250307   0.023   0.966  14.923  0.9479 -3.0345  0.6001
 9606TIP3   OH250308   5.734   5.369   1.115  0.4795  0.6660  0.4971
 9606TIP3    H150309   5.760   5.454   1.079  1.6426  0.1583  0.1223
 9606TIP3    H250310   5.679   5.391   1.190  1.6488  1.7610  1.0487
 9607TIP3   OH250311   3.701   1.997   1.382  0.3240  0.4070 -0.3487
 9607TIP3    H150312   3.623   1.947   1.403  0.3694  1.1503  1.7225
 9607TIP3    H250313   3.735   1.957   1.302 -0.7949 -1.5112  0.1038
 9608TIP3   OH250314   3.853   3.993  16.199 -0.1583  0.1618 -0.3060
 9608TIP3    H150315   3.866   3.909  16.156  0.6592  0.2819 -0.3082
 9608TIP3    H250316   3.939   4.014  16.236 -0.3484  1.0077 -0.3378
 9609TIP3   OH250317   1.856   3.987   2.282  0.1324  0.1945 -0.6322
 9609TIP3    H150318   1.792   3.991   2.211  1.6297  2.2428 -1.9207
 9609TIP3    H250319   1.908   3.909   2.263  2.4897  2.3790 -3.6034
 9610TIP3   OH250320   5.808   6.315   1.888  0.2394  0.1302 -0.2656
 9610TIP3    H150321   5.714   6.321   1.870  0.1731  1.2158  0.4608
 9610TIP3    H250322   5.814   6.250   1.958  0.0785 -0.3260 -0.6690
 9611TIP3   OH250323   5.211   2.624   1.526  0.1742  0.4317  0.1906
 9611TIP3    H150324   5.258   2.542   1.543 -0.0558  0.1780 -0.3851
 9611TIP3    H250325   5.266   2.691   1.566  1.2753  0.1942 -0.8786
 9612TIP3   OH250326   4.983   3.466   5.993  0.4863  0.2368  0.4140
 9612TIP3    H150327   5.056   3.519   5.958  1.0423 -0.3210  0.7173
 9612TIP3    H250328   5.005   3.452   6.085  1.1036 -1.7742 -0.0107
 9613TIP3   OH250329   1.258   1.722  16.231 -0.3229 -0.0410  0.0449
 9613TIP3    H150330   1.267   1.628  16.216 -1.9207 -0.0190 -1.1491
 9613TIP3    H250331   1.275   1.733  16.325  1.7011 -1.2547 -0.1473
 9614TIP3   OH250332   2.996   3.616   0.668 -0.4444 -0.3884 -0.0460
 9614TIP3    H150333   2.971   3.681   0.735  0.5816 -0.3202  0.2727
 9614TIP3    H250334   2.977   3.659   0.585  1.7738  0.9678  0.1216
 9615TIP3   OH250335   4.757   3.543   1.862 -0.3028 -0.2455 -0.2224
 9615TIP3    H150336   4.842   3.505   1.884 -0.2001  0.3726  0.4534
 9615TIP3    H250337   4.745   3.614   1.925 -1.8330 -1.0437  0.4135
 9616TIP3   OH250338   2.119   5.068  13.407  0.7281 -0.2437  0.2278
 9616TIP3    H150339   2.025   5.083  13.393  0.6949 -1.5319 -0.9637
 9616TIP3    H250340   2.152   5.154  13.434 -0.6788  0.3748  0.0652
 9617TIP3   OH250341   2.453   5.631   5.029 -0.1832  0.6803 -0.0492
 9617TIP3    H150342   2.383   5.589   5.081 -1.7304  2.5066 -0.5971
 9617TIP3    H250343   2.489   5.698   5.088  0.5663  0.2784 -0.0521
 9618TIP3   OH250344   4.487   0.701   2.907 -0.1111  0.3122  0.1045
 9618TIP3    H150345   4.548   0.663   2.970  0.3695 -0.3516 -0.7392
 9618TIP3    H250346   4.491   0.795   2.923  2.1289  0.4120 -0.7911
 9619TIP3   OH250347   6.764   4.435   1.361 -0.2446 -0.3295  0.1487
 9619TIP3    H150348   6.829   4.504   1.350 -0.7345  0.0157 -0.6407
 9619TIP3    H250349   6.815   4.356   1.378  0.2573  0.6572  3.5713
 9620TIP3   OH250350   3.008   4.944  13.996 -0.0299  0.2601 -0.1489
 9620TIP3    H150351   3.005   4.950  14.091 -1.4296 -1.7199 -0.0300
 9620TIP3    H250352   3.053   4.862  13.978 -1.6016 -0.4150 -1.1398
 9621TIP3   OH250353   5.103   2.812   0.480 -0.0875 -0.0208  0.0310
 9621TIP3    H150354   5.068   2.725   0.464  2.4475 -1.1031  0.2938
 9621TIP3    H250355   5.055   2.868   0.418 -1.7469 -1.5528 -0.1166
 9622TIP3   OH250356   3.839   0.898   4.191  0.3948 -0.4202  0.3012
 9622TIP3    H150357   3.857   0.990   4.175  0.3804 -0.4760 -0.0450
 9622TIP3    H250358   3.882   0.879   4.274  0.9994 -0.2737  0.0282
 9623TIP3   OH250359   4.751   2.702  15.642  0.2082 -0.1986  0.2907
 9623TIP3    H150360   4.724   2.722  15.552 -0.1630 -1.6282  0.0802
 9623TIP3    H250361   4.729   2.781  15.691 -0.1759  0.3588 -0.7524
 9624TIP3   OH250362   4.362   0.977   2.783 -0.4546 -0.0801 -0.2723
 9624TIP3    H150363   4.340   0.978   2.690 -0.1878 -0.1762 -0.3378
 9624TIP3    H250364   4.458   0.985   2.785 -0.4432 -0.2748 -0.0131
 9625TIP3   OH250365   1.139   6.215  17.050 -0.0839  0.0300 -0.4442
 9625TIP3    H150366   1.188   6.141  17.084  1.2315  1.4251  0.7913
 9625TIP3    H250367   1.072   6.232  17.116  1.2773  1.5586  0.5794
 9626TIP3   OH250368   4.908   6.291  17.247  0.5235  0.4406 -0.1193
 9626TIP3    H150369   4.948   6.327  17.167  1.4376 -0.2070  0.0331
 9626TIP3    H250370   4.815   6.282  17.226  0.8357 -0.1907 -1.2869
 9627TIP3   OH250371   5.414   1.448  16.239  0.1979 -0.1876  0.0417
 9627TIP3    H150372   5.435   1.366  16.194  0.5731 -1.4891  2.4958
 9627TIP3    H250373   5.347   1.425  16.303 -1.1425  1.8445 -0.5654
 9628TIP3   OH250374   6.748   1.288   2.250 -0.2090 -0.4882 -0.2325
 9628TIP3    H150375   6.679   1.352   2.264 -0.2318 -0.4562 -0.5001
 9628TIP3    H250376   6.762   1.287   2.155  0.9273  0.3194 -0.0802
 9629TIP3   OH250377   0.626   2.361  11.974  0.3178  0.2146 -0.2465
 9629TIP3    H150378   0.539   2.369  12.015  0.5735 -1.8214  0.7684
 9629TIP3    H250379   0.680   2.425  12.020 -0.2889  0.4915  0.0943
 9630TIP3   OH250380   2.126   3.415  11.023  0.2698 -0.1310  0.4383
 9630TIP3    H150381   2.047   3.380  11.064 -0.0345  1.0719  0.9047
 9630TIP3    H250382   2.095   3.484  10.965  1.0587  1.2676  1.6299
 9631TIP3   OH250383   3.914   4.365  12.759  0.3603  0.4588  0.5317
 9631TIP3    H150384   3.984   4.308  12.790  1.8524  1.7256 -0.4228
 9631TIP3    H250385   3.932   4.377  12.666 -1.3707  0.4725  0.1799
 9632TIP3   OH250386   4.334   0.885   1.730  0.0801 -0.1765  0.1038
 9632TIP3    H150387   4.315   0.812   1.671  1.3008 -1.4562  1.2508
 9632TIP3    H250388   4.418   0.919   1.699 -0.9401  1.4036 -1.0275
 9633TIP3   OH250389   2.593   4.430   4.195 -0.0758 -0.7087  0.5110
 9633TIP3    H150390   2.601   4.521   4.167  0.0064 -0.7142  0.5174
 9633TIP3    H250391   2.667   4.415   4.253  1.8708 -1.7546 -2.1571
 9634TIP3   OH250392   4.391   4.746  11.986 -0.2779 -0.1371 -0.2597
 9634TIP3    H150393   4.468   4.732  12.042 -0.7717 -1.4685  0.0979
 9634TIP3    H250394   4.331   4.676  12.010 -0.6987 -0.4375 -2.1261
 9635TIP3   OH250395   4.046   3.315  12.614  0.0928  0.5726 -0.1291
 9635TIP3    H150396   4.123   3.260  12.607  0.1411  0.7329 -0.9412
 9635TIP3    H250397   4.004   3.288  12.696 -0.1433 -0.9916 -0.7442
 9636TIP3   OH250398   0.327   6.013  14.022  0.0056 -0.1196  0.2067
 9636TIP3    H150399   0.234   6.005  14.044 -0.4447  1.7689 -0.9670
 9636TIP3    H250400   0.329   6.016  13.926  1.1802  1.1174  0.2648
 9637TIP3   OH250401   5.203   6.344  12.945 -0.3230  0.3631  0.4739
 9637TIP3    H150402   5.252   6.416  12.983  1.8417 -1.1596  0.6137
 9637TIP3    H250403   5.203   6.362  12.851  0.3326  0.4844  0.4943
 9638TIP3   OH250404   6.095   5.634   2.422 -0.1622  0.2114 -0.1561
 9638TIP3    H150405   6.180   5.664   2.390  0.3833 -0.5294  0.5580
 9638TIP3    H250406   6.032   5.674   2.364  0.7972 -0.8680 -1.9911
 9639TIP3   OH250407   1.782   5.094   5.020 -0.3396  0.0397 -0.6185
 9639TIP3    H150408   1.842   5.075   5.092 -0.3175  2.5127  0.0371
 9639TIP3    H250409   1.837   5.093   4.942  0.3229  1.0039 -0.1668
 9640TIP3   OH250410   0.845   2.845   1.012  0.0567 -0.1835 -0.3162
 9640TIP3    H150411   0.817   2.783   1.079  2.9142 -1.2354 -0.0357
 9640TIP3    H250412   0.829   2.931   1.050  0.4522 -0.7689  1.1817
 9641TIP3   OH250413   5.579   6.312   5.086  0.0480 -0.1892 -0.0921
 9641TIP3    H150414   5.504   6.368   5.067  1.2346  1.6996  0.7082
 9641TIP3    H250415   5.543   6.242   5.142 -1.3276  0.0718 -0.6410
 9642TIP3   OH250416   0.321   6.356  15.607 -0.1526  0.3175 -0.7636
 9642TIP3    H150417   0.401   6.408  15.608 -0.1704  0.3704 -1.8572
 9642TIP3    H250418   0.277   6.379  15.689  1.5342 -0.6379  0.4506
 9643TIP3   OH250419   6.355   5.564   2.952 -0.2404 -0.0292  0.3572
 9643TIP3    H150420   6.318   5.480   2.927 -0.8213  0.1986  0.4371
 9643TIP3    H250421   6.443   5.544   2.984 -0.1971 -0.5446 -0.0819
 9644TIP3   OH250422   6.551   3.742   6.166  0.3615  0.0318  0.1875
 9644TIP3    H150423   6.497   3.714   6.092  1.9619 -0.2094 -0.8981
 9644TIP3    H250424   6.492   3.737   6.242 -0.5413 -2.3654 -0.6275
 9645TIP3   OH250425   0.842   5.053   6.097  0.0374 -0.3356 -0.5728
 9645TIP3    H150426   0.766   4.994   6.097  0.2033 -0.5543 -1.6390
 9645TIP3    H250427   0.859   5.069   6.190 -2.9999  1.8890 -0.3429
 9646TIP3   OH250428   3.509   2.108   3.473  0.4927  0.8434  0.2672
 9646TIP3    H150429   3.479   2.020   3.496  1.3099  0.6049  0.4411
 9646TIP3    H250430   3.457   2.167   3.528  0.3467  0.4366  0.5633
 9647TIP3   OH250431   4.400   6.742   3.827  0.3128 -0.5187 -0.5134
 9647TIP3    H150432   4.444   6.774   3.748 -0.7227 -0.4451 -1.0619
 9647TIP3    H250433   4.454   6.669   3.857  1.2181  0.0392 -0.7649
 9648TIP3   OH250434   5.597   4.223   5.690  0.1143  0.0666  0.2163
 9648TIP3    H150435   5.536   4.172   5.639  0.8233  0.9523 -1.5470
 9648TIP3    H250436   5.547   4.250   5.768 -1.4856  0.1249 -0.8157
 9649TIP3   OH250437   3.125   3.254   4.624 -0.3701  0.2137 -0.3816
 9649TIP3    H150438   3.112   3.160   4.628 -1.4294  0.4021  1.0704
 9649TIP3    H250439   3.167   3.269   4.539 -0.2378 -1.5438 -0.6420
 9650TIP3   OH250440   3.700   0.258  13.484 -0.1999  0.6213 -0.1916
 9650TIP3    H150441   3.660   0.343  13.503 -2.0201 -0.0969 -0.6681
 9650TIP3    H250442   3.649   0.224  13.410  0.3575 -0.9766  0.1412
 9651TIP3   OH250443   4.468   1.141  12.345  0.6301 -0.6202 -0.4447
 9651TIP3    H150444   4.548   1.178  12.382 -0.1439  2.4777 -1.7504
 9651TIP3    H250445   4.439   1.205  12.281 -1.7377 -2.7272 -1.5632
 9652TIP3   OH250446   6.698   5.559   0.025  0.4967  0.0216  0.0990
 9652TIP3    H150447   6.769   5.585  -0.033 -0.9739  1.5020 -1.0717
 9652TIP3    H250448   6.626   5.617   0.002 -2.4591 -4.1303 -1.5700
 9653TIP3   OH250449   2.206   6.316   2.631 -0.1141  0.1062 -0.0817
 9653TIP3    H150450   2.189   6.407   2.657 -2.8884 -0.4975  0.4142
 9653TIP3    H250451   2.252   6.278   2.705  1.1742  1.1432 -0.3445
 9654TIP3   OH250452   1.948   1.546   5.717  0.6785  0.9387  0.8469
 9654TIP3    H150453   1.904   1.615   5.767 -0.3832 -0.1458  1.4344
 9654TIP3    H250454   1.938   1.467   5.771 -0.5691 -0.2787 -1.0764
 9655TIP3   OH250455   5.810   4.651   4.498  0.1511 -0.0138 -0.3861
 9655TIP3    H150456   5.770   4.599   4.429  0.1418 -2.4005  1.3441
 9655TIP3    H250457   5.902   4.624   4.499  0.3046  0.5059  0.0835
 9656TIP3   OH250458   3.800   3.081   1.612  0.0564  0.0166 -0.1063
 9656TIP3    H150459   3.734   3.077   1.681 -0.2212 -0.0576 -0.3777
 9656TIP3    H250460   3.781   3.163   1.565  2.1962  1.7265  1.8772
 9657TIP3   OH250461   4.273   4.985  10.572 -0.1802 -0.6400  0.4949
 9657TIP3    H150462   4.197   4.930  10.557 -0.5501  0.0952 -0.3753
 9657TIP3    H250463   4.261   5.060  10.514  0.4935  0.1900  1.3968
 9658TIP3   OH250464   4.090   1.531  13.386  0.3282 -0.4843  0.2836
 9658TIP3    H150465   4.165   1.533  13.325  0.2514 -1.5158  0.1428
 9658TIP3    H250466   4.101   1.449  13.434  0.6447  0.5491  2.0166
 9659TIP3   OH250467   6.533   1.236  14.203  0.4968  0.0015 -0.4339
 9659TIP3    H150468   6.511   1.255  14.112 -1.7591 -2.1353 -0.3898
 9659TIP3    H250469   6.470   1.287  14.254  1.0392  0.3272 -0.0850
 9660TIP3   OH250470   4.447   0.784  12.075  0.3537  0.0788  0.0231
 9660TIP3    H150471   4.446   0.763  11.982  0.7756  0.8675 -0.1707
 9660TIP3    H250472   4.511   0.724  12.113  1.0063  0.5015 -0.3914
 9661TIP3   OH250473   2.560   1.655  13.977  0.2492 -0.0139  0.0916
 9661TIP3    H150474   2.624   1.721  14.002  0.9410 -0.2015 -1.1644
 9661TIP3    H250475   2.475   1.699  13.988  0.7120  1.2166 -1.0403
 9662TIP3   OH250476   3.090   4.793   4.388 -0.4994 -0.0854 -0.6156
 9662TIP3    H150477   3.172   4.777   4.342  0.3735 -1.2737  1.3171
 9662TIP3    H250478   3.088   4.888   4.402  2.2015 -0.3768  2.2801
 9663TIP3   OH250479   4.660   5.636   6.127 -0.4407 -0.2256  0.1546
 9663TIP3    H150480   4.720   5.685   6.071 -0.7272  0.5675  0.5341
 9663TIP3    H250481   4.596   5.597   6.066 -0.9313  0.8829 -0.0521
 9664TIP3   OH250482   2.539   6.474  11.677  0.4678  0.0281 -0.6521
 9664TIP3    H150483   2.552   6.426  11.759 -0.8324  0.6189 -0.0802
 9664TIP3    H250484   2.443   6.477  11.666  0.6105  0.5984 -1.8081
 9665TIP3   OH250485   6.033   1.687  13.523 -0.0124  0.5701  0.3073
 9665TIP3    H150486   6.030   1.612  13.465  1.8584  1.2533 -0.7278
 9665TIP3    H250487   5.965   1.746  13.490  0.2978  0.4729 -0.5122
 9666TIP3   OH250488   4.008   1.534  13.981  0.2262 -0.5471 -0.1342
 9666TIP3    H150489   4.076   1.531  14.048  0.9978 -0.3572 -0.9012
 9666TIP3    H250490   3.948   1.464  14.005 -0.2168  0.3649  1.5069
 9667TIP3   OH250491   5.943   0.095  16.954 -0.4072 -0.4800  0.2081
 9667TIP3    H150492   6.016   0.125  16.899 -1.7209  0.4160 -1.0916
 9667TIP3    H250493   5.975   0.016  16.995  1.8668  0.7230  0.8474
 9668TIP3   OH250494   0.805   2.298  13.107  0.1552  0.5593 -0.1690
 9668TIP3    H150495   0.803   2.311  13.202 -0.7816  2.0514 -0.3803
 9668TIP3    H250496   0.767   2.211  13.094  0.9729  0.0257  0.8589
 9669TIP3   OH250497   2.162   3.807   2.154 -0.6125 -0.4148  0.2442
 9669TIP3    H150498   2.229   3.741   2.173  0.2561  0.3239 -0.2188
 9669TIP3    H250499   2.079   3.763   2.173 -0.1948 -2.4824 -2.4295
 9670TIP3   OH250500   1.908   4.510  14.262 -0.2481  0.6763 -0.4297
 9670TIP3    H150501   1.911   4.478  14.172  0.7187 -0.3201 -0.0587
 9670TIP3    H250502   1.956   4.593  14.260  1.2101 -0.1637 -0.5159
 9671TIP3   OH250503   3.489   0.172  14.859  0.0715 -0.0735  0.5370
 9671TIP3    H150504   3.557   0.239  14.861  1.0208 -1.0037  0.1051
 9671TIP3    H250505   3.525   0.103  14.803 -1.0657 -0.7564  0.6256
 9672TIP3   OH250506   4.414   0.112  11.249 -0.0585  0.7400  0.1023
 9672TIP3    H150507   4.475   0.164  11.197  1.2373 -0.1578  0.7207
 9672TIP3    H250508   4.357   0.069  11.185  0.1606  1.3180 -0.4812
 9673TIP3   OH250509   6.673   1.715  15.033  0.2333 -0.3878 -0.0105
 9673TIP3    H150510   6.649   1.623  15.020 -0.1603 -0.2745 -0.0817
 9673TIP3    H250511   6.694   1.746  14.945 -0.2000 -0.2516 -0.0684
 9674TIP3   OH250512   5.529   2.871  16.660  0.2933  0.0734  0.6085
 9674TIP3    H150513   5.520   2.779  16.685  1.1356 -0.1332  0.1708
 9674TIP3    H250514   5.488   2.919  16.732 -0.7265 -0.6597  0.5371
 9675TIP3   OH250515   1.103   0.763   1.304 -0.0699 -0.3468 -0.4130
 9675TIP3    H150516   1.022   0.793   1.345 -0.1122 -0.8572 -0.1190
 9675TIP3    H250517   1.172   0.788   1.365 -0.2191 -1.9440  0.4261
 9676TIP3   OH250518   1.355   0.290   3.894 -0.2087  0.7202  0.2178
 9676TIP3    H150519   1.358   0.203   3.854  0.8625  0.0225  1.7511
 9676TIP3    H250520   1.262   0.307   3.908 -0.3376 -0.9701  1.5687
 9677TIP3   OH250521   5.312   6.430   4.046 -0.1799  0.3910  0.0197
 9677TIP3    H150522   5.360   6.396   3.970 -3.1178 -1.8185 -0.9222
 9677TIP3    H250523   5.279   6.515   4.017  0.2537  0.3784 -0.5218
 9678TIP3   OH250524   5.755   5.057   5.192  0.2276 -0.1789 -0.1572
 9678TIP3    H150525   5.746   5.004   5.271 -0.7490 -0.3847 -0.3955
 9678TIP3    H250526   5.832   5.111   5.208  0.2636 -0.4911  0.7756
 9679TIP3   OH250527   3.249   1.490   0.036  0.3325  0.1372 -0.3348
 9679TIP3    H150528   3.203   1.533  -0.036 -2.4480  1.0402  1.8820
 9679TIP3    H250529   3.243   1.396   0.016 -1.6512  0.3023 -0.5929
 9680TIP3   OH250530   5.390   4.790  14.557 -0.5162  0.3915  0.3180
 9680TIP3    H150531   5.410   4.831  14.641 -0.2031 -0.5011  0.6905
 9680TIP3    H250532   5.476   4.771  14.518 -0.6271 -1.0304  0.7176
 9681TIP3   OH250533   4.023   6.465   4.140 -0.3232 -0.2930  0.3852
 9681TIP3    H150534   4.037   6.419   4.057 -1.1147 -0.6264  0.4372
 9681TIP3    H250535   3.930   6.488   4.140  0.0555  1.3184  0.3583
 9682TIP3   OH250536   3.399   3.484  15.238 -0.3894  0.1087 -0.1007
 9682TIP3    H150537   3.395   3.572  15.276 -0.6854  1.0605 -2.2353
 9682TIP3    H250538   3.403   3.499  15.143 -2.5563 -2.2188 -0.6104
 9683TIP3   OH250539   1.987   4.701  12.264  0.1714  0.2264 -0.1378
 9683TIP3    H150540   1.936   4.718  12.185  0.9339  0.3394 -0.6092
 9683TIP3    H250541   1.922   4.693  12.333 -0.4755  0.5489 -0.7034
 9684TIP3   OH250542   3.628   0.185  11.255 -0.6950 -0.2253 -0.8671
 9684TIP3    H150543   3.685   0.170  11.330 -1.8396  2.7291  0.6978
 9684TIP3    H250544   3.687   0.189  11.180  0.9052  0.4144  0.3941
 9685TIP3   OH250545   1.759   2.892   3.521  0.3214  0.0822  0.0642
 9685TIP3    H150546   1.835   2.897   3.580 -0.5567  0.1185  1.2237
 9685TIP3    H250547   1.736   2.799   3.518  1.0061 -0.0593 -1.0767
 9686TIP3   OH250548   2.955   2.712   3.129  0.1387 -0.2121 -0.3965
 9686TIP3    H150549   3.049   2.726   3.122  0.1346  0.5696  0.8913
 9686TIP3    H250550   2.925   2.779   3.191 -0.8370 -2.1726  1.3103
 9687TIP3   OH250551   4.659   4.875   4.486 -0.5571 -0.3996 -0.8306
 9687TIP3    H150552   4.687   4.864   4.395  0.8928 -0.7166 -0.3578
 9687TIP3    H250553   4.712   4.813   4.535 -2.7685 -1.6706 -0.0058
 9688TIP3   OH250554   2.377   3.047  16.826  0.3769  0.4422  0.2870
 9688TIP3    H150555   2.366   3.023  16.918  1.2606  0.7009  0.4689
 9688TIP3    H250556   2.387   2.963  16.780  0.8833  0.3509  0.5602
 9689TIP3   OH250557   1.774   1.367   3.463  0.1997  0.2937 -0.1919
 9689TIP3    H150558   1.861   1.406   3.470  0.3607 -0.3260  1.5508
 9689TIP3    H250559   1.789   1.273   3.464 -0.5170  0.1748  0.7001
 9690TIP3   OH250560   3.388   1.058  15.917  0.7066  0.4137 -0.1487
 9690TIP3    H150561   3.361   0.977  15.875 -0.6119  1.1682 -0.7671
 9690TIP3    H250562   3.363   1.047  16.009  2.0698 -0.5439  0.1391
 9691TIP3   OH250563   5.950   4.589  11.424  0.4053  0.1872  0.1624
 9691TIP3    H150564   5.966   4.616  11.334  0.5778 -0.4289  0.0048
 9691TIP3    H250565   5.879   4.526  11.418  1.2550 -0.8013  0.3111
 9692TIP3   OH250566   1.827   1.900  13.932  0.4011 -0.2094  0.1635
 9692TIP3    H150567   1.758   1.966  13.941  0.3885 -0.0061 -1.3290
 9692TIP3    H250568   1.892   1.924  13.998  0.0250  0.8451  0.1575
 9693TIP3   OH250569   4.630   3.752   4.069 -0.0250  0.0567  0.0587
 9693TIP3    H150570   4.590   3.682   4.017  2.0912 -1.4423  0.3642
 9693TIP3    H250571   4.707   3.711   4.108  0.4928  2.2076  1.3518
 9694TIP3   OH250572   5.394   5.052  15.663 -0.6361  0.7783  0.6845
 9694TIP3    H150573   5.299   5.047  15.656 -0.6893  0.3466  1.5981
 9694TIP3    H250574   5.410   5.129  15.718 -0.4541  0.8894  0.4780
 9695TIP3   OH250575   6.672   6.254  14.861 -0.5047  0.0357 -0.2334
 9695TIP3    H150576   6.677   6.336  14.911 -2.4943 -0.7177  1.2761
 9695TIP3    H250577   6.759   6.215  14.869  0.1766  1.5330 -0.1569
 9696TIP3   OH250578   6.718   0.281  13.858  0.6126  0.0758 -0.2210
 9696TIP3    H150579   6.696   0.348  13.794  0.3573  0.9448  0.7606
 9696TIP3    H250580   6.685   0.199  13.821 -0.4635  0.7350 -0.7125
 9697TIP3   OH250581   6.278   4.497  11.630  0.4532 -0.1728  0.0263
 9697TIP3    H150582   6.282   4.508  11.725  2.2029 -0.0268 -0.0457
 9697TIP3    H250583   6.246   4.408  11.618 -2.8331  0.8549  0.7036
 9698TIP3   OH250584   2.609   3.269  12.193 -0.4342  0.7556  0.0278
 9698TIP3    H150585   2.628   3.241  12.103  0.1476 -0.4968  0.5375
 9698TIP3    H250586   2.519   3.240  12.208 -0.7360  1.4814 -0.3444
 9699TIP3   OH250587   2.983   5.146   3.038  0.6187  0.3228  0.3435
 9699TIP3    H150588   2.896   5.140   3.077  0.9702 -3.1753  0.7260
 9699TIP3    H250589   3.039   5.176   3.110 -0.1370  1.9517  0.2698
 9700TIP3   OH250590   2.652   3.959  10.887  0.7856 -0.6342  0.6894
 9700TIP3    H150591   2.606   3.986  10.807  0.7846  0.4866  1.0598
 9700TIP3    H250592   2.729   4.015  10.891  1.9725 -2.2053  0.3109
 9701TIP3   OH250593   2.135   1.843  12.696 -0.1206  0.1462 -0.0408
 9701TIP3    H150594   2.091   1.867  12.777  0.2807  1.0624 -0.0831
 9701TIP3    H250595   2.089   1.893  12.628 -0.7938 -1.0162 -0.4536
 9702TIP3   OH250596   3.577   4.577   1.336  0.6618 -0.2156 -0.1273
 9702TIP3    H150597   3.568   4.489   1.372  1.3768 -0.1342  0.2689
 9702TIP3    H250598   3.502   4.625   1.371  0.0807 -0.7518 -0.6225
 9703TIP3   OH250599   4.261   5.003   0.332 -0.4877  0.2820 -0.2734
 9703TIP3    H150600   4.350   4.968   0.332  0.0698  1.6646 -0.9722
 9703TIP3    H250601   4.204   4.926   0.339  0.8041 -0.5016  2.1934
 9704TIP3   OH250602   4.929   5.265   0.385  0.1003  0.1342  0.0091
 9704TIP3    H150603   4.929   5.172   0.408  0.0165  0.3484  0.8976
 9704TIP3    H250604   4.855   5.301   0.434 -0.4344  0.4945 -1.0541
 9705TIP3   OH250605   2.367   4.013   3.276 -0.4651  0.3634  0.1460
 9705TIP3    H150606   2.438   4.027   3.339 -0.8044 -1.5308  0.9734
 9705TIP3    H250607   2.406   4.034   3.191  1.2765 -1.1707  0.5338
 9706TIP3   OH250608   0.398   5.911  14.506 -0.3146 -0.0712  0.2913
 9706TIP3    H150609   0.342   5.973  14.460 -0.3398 -0.7040 -0.5389
 9706TIP3    H250610   0.338   5.860  14.561 -0.2714  0.7530  1.1092
 9707TIP3   OH250611   0.876   5.520  16.505 -0.2915  0.4310  0.1009
 9707TIP3    H150612   0.869   5.482  16.593 -0.0452  0.0701 -0.0335
 9707TIP3    H250613   0.796   5.493  16.460  0.3609 -0.7971 -0.3260
 9708TIP3   OH250614   6.569   2.161  15.647  0.7612  0.1863  0.4723
 9708TIP3    H150615   6.479   2.136  15.671  0.5839 -0.2171 -0.6008
 9708TIP3    H250616   6.610   2.079  15.620  1.3000  0.4539  0.4752
 9709TIP3   OH250617   5.093   1.617   1.061  0.5991 -0.0842  0.0510
 9709TIP3    H150618   5.139   1.678   1.118 -0.5418 -0.7327  1.7058
 9709TIP3    H250619   5.047   1.673   0.998  3.6856  0.5574 -1.6873
 9710TIP3   OH250620   5.819   0.715   5.161 -0.2986 -0.2144  0.1911
 9710TIP3    H150621   5.842   0.717   5.068  0.9501 -0.0138  0.5034
 9710TIP3    H250622   5.782   0.628   5.175 -5.1956  1.3728 -1.5859
 9711TIP3   OH250623   3.525   6.620  13.751  0.3630  0.4842  0.2055
 9711TIP3    H150624   3.483   6.620  13.665  1.8631  1.8382 -0.5540
 9711TIP3    H250625   3.540   6.713  13.770  3.7428  0.0131  0.0497
 9712TIP3   OH250626   5.744   4.420  12.961  0.0134 -0.4431 -0.4952
 9712TIP3    H150627   5.810   4.408  12.893  0.5019 -1.8537  0.2168
 9712TIP3    H250628   5.791   4.464  13.033 -0.3694  0.5408 -0.8301
 9713TIP3   OH250629   1.009   4.501   5.025  0.5137  0.2289 -0.1569
 9713TIP3    H150630   1.020   4.488   4.931  1.2916 -0.6724  0.0528
 9713TIP3    H250631   1.050   4.586   5.042  0.9016  0.1182 -0.5296
 9714TIP3   OH250632   1.261   2.066   0.084  0.2842  0.0018 -0.1490
 9714TIP3    H150633   1.249   2.052   0.178 -0.0645  0.4910 -0.1182
 9714TIP3    H250634   1.221   1.989   0.043  0.2536 -0.1117  0.0961
 9715TIP3   OH250635   6.193   1.861  12.455  0.2178 -0.1253  0.2845
 9715TIP3    H150636   6.220   1.792  12.393 -0.7581 -0.2688  0.0061
 9715TIP3    H250637   6.189   1.816  12.539  2.5448  0.3005  0.6707
 9716TIP3   OH250638   0.132   2.043  12.834 -0.4008  0.2454  1.0382
 9716TIP3    H150639   0.092   2.036  12.921 -2.4021 -1.3429  0.0188
 9716TIP3    H250640   0.065   2.083  12.779  0.4100  0.1003 -0.0766
 9717TIP3   OH250641   0.657   4.043  15.201 -0.2903 -0.0125 -0.4592
 9717TIP3    H150642   0.706   4.116  15.164 -1.2356 -0.3238 -2.4066
 9717TIP3    H250643   0.724   3.982  15.232  0.5347  0.2764 -1.6540
 9718TIP3   OH250644   2.487   0.003   6.049  0.5764 -0.3783  0.6808
 9718TIP3    H150645   2.515   0.090   6.080  0.1802 -0.0524  0.1300
 9718TIP3    H250646   2.491  -0.052   6.127  2.5285 -0.2899  0.6755
 9719TIP3   OH250647   3.256   1.932   3.042  0.1157 -0.0439 -0.3284
 9719TIP3    H150648   3.309   1.856   3.065 -1.3305 -1.1426 -0.5467
 9719TIP3    H250649   3.286   2.002   3.101  0.3890 -1.2064  0.9291
 9720TIP3   OH250650   6.265   4.492   1.296  0.2142  0.2878  0.6700
 9720TIP3    H150651   6.305   4.577   1.279  0.9618 -0.3262 -0.7292
 9720TIP3    H250652   6.254   4.453   1.209 -1.7709 -0.3088  1.1678
 9721TIP3   OH250653   1.020   0.964   2.267  0.8927  0.1280  0.4438
 9721TIP3    H150654   0.942   0.999   2.312  1.2893 -0.1711  1.3704
 9721TIP3    H250655   0.984   0.920   2.190  0.2093  0.7124  0.4110
 9722TIP3   OH250656   5.238   6.353  14.221  0.0283  0.2857  0.6284
 9722TIP3    H150657   5.329   6.382  14.236 -0.3440  1.8108  0.0705
 9722TIP3    H250658   5.225   6.366  14.127 -0.6272 -0.3800  0.6298
 9723TIP3   OH250659   4.005   1.549   3.678 -0.0437 -0.1877 -0.0595
 9723TIP3    H150660   3.971   1.603   3.749 -1.7562 -0.1126 -0.9063
 9723TIP3    H250661   4.097   1.574   3.670 -0.6605  2.1421 -0.0340
 9724TIP3   OH250662   0.145   6.493   5.883 -0.3068  0.2577 -0.3239
 9724TIP3    H150663   0.135   6.534   5.797 -1.1639 -0.0784 -0.3846
 9724TIP3    H250664   0.240   6.484   5.894 -0.1027  2.1458 -0.3516
 9725TIP3   OH250665   3.882   1.793   2.103 -0.8104  0.1148  0.2730
 9725TIP3    H150666   3.944   1.721   2.119 -1.0892  0.3491  2.6244
 9725TIP3    H250667   3.797   1.757   2.130 -1.5392  0.2102 -1.7752
 9726TIP3   OH250668   5.985   0.501   2.057  0.1341  0.2535 -0.0450
 9726TIP3    H150669   5.984   0.524   2.150  1.0952 -0.1353  0.0586
 9726TIP3    H250670   6.039   0.423   2.052 -2.9321 -1.9207 -0.4350
 9727TIP3   OH250671   4.182   5.476   1.404 -0.3526  0.3724 -0.4585
 9727TIP3    H150672   4.147   5.387   1.404  0.5253  0.0153  0.3081
 9727TIP3    H250673   4.257   5.472   1.463  2.0343  0.7018 -3.3717
 9728TIP3   OH250674   3.495   5.277  11.367  0.0683 -0.0162 -0.3597
 9728TIP3    H150675   3.575   5.329  11.357  0.2150 -0.2357 -0.3170
 9728TIP3    H250676   3.465   5.296  11.456 -0.3409  0.6512 -0.6268
 9729TIP3   OH250677   5.509   2.641  13.435 -0.2811  0.2837  0.4878
 9729TIP3    H150678   5.494   2.695  13.357  0.5124  1.2088  0.9711
 9729TIP3    H250679   5.434   2.582  13.437 -0.1329  0.0055 -1.1804
 9730TIP3   OH250680   5.738   2.249  10.987 -0.0982  0.1802  0.1942
 9730TIP3    H150681   5.774   2.280  11.070  0.6990 -1.0039  0.3042
 9730TIP3    H250682   5.744   2.153  10.992  1.4001  0.1062 -1.8330
 9731TIP3   OH250683   0.605   3.529  11.718  0.0791 -0.1652  0.2703
 9731TIP3    H150684   0.671   3.464  11.693  0.0836 -0.7960  1.8189
 9731TIP3    H250685   0.653   3.612  11.722  0.4082 -0.3318 -0.2731
 9732TIP3   OH250686   6.195   1.163  11.209  0.0424  0.0740 -0.0504
 9732TIP3    H150687   6.189   1.143  11.116 -1.8955 -1.5628  0.3857
 9732TIP3    H250688   6.119   1.218  11.228  0.8304  1.0100  0.4252
 9733TIP3   OH250689   5.827   1.388   2.399  0.0560  0.2330 -0.3359
 9733TIP3    H150690   5.828   1.401   2.494 -2.1086  0.0745 -0.2581
 9733TIP3    H250691   5.881   1.311   2.384 -1.3194 -1.0198  1.0060
 9734TIP3   OH250692   3.576   5.675  16.691 -0.1821 -0.0183 -0.1218
 9734TIP3    H150693   3.535   5.591  16.712  1.2987 -1.0962 -1.3513
 9734TIP3    H250694   3.530   5.706  16.614  0.0061 -0.2660 -0.3357
 9735TIP3   OH250695   1.861   1.511  15.992 -0.1489 -0.2528 -0.4264
 9735TIP3    H150696   1.824   1.460  15.919 -1.1320 -0.8995  0.5025
 9735TIP3    H250697   1.911   1.580  15.950 -0.3944 -0.8477 -1.7252
 9736TIP3   OH250698   2.410   4.130  14.224  0.3938  0.1515 -0.3472
 9736TIP3    H150699   2.330   4.171  14.191  0.5063 -1.0862 -2.2775
 9736TIP3    H250700   2.481   4.175  14.179  0.6227 -0.5939 -0.7521
 9737TIP3   OH250701   1.528   6.514  11.791 -0.2828  0.0709 -0.2742
 9737TIP3    H150702   1.559   6.447  11.730 -0.3687 -0.6521  0.4734
 9737TIP3    H250703   1.442   6.539  11.757 -0.0288  0.1860 -0.8500
 9738TIP3   OH250704   0.338   4.025   1.377  0.2220 -0.1730 -0.5742
 9738TIP3    H150705   0.263   3.965   1.372  0.3641 -0.5886  2.0084
 9738TIP3    H250706   0.331   4.077   1.297 -1.7042 -1.5189 -1.3353
 9739TIP3   OH250707   2.088   6.672   2.993 -0.1281  0.1803 -0.8081
 9739TIP3    H150708   2.007   6.722   3.000 -0.6014 -0.6892  0.1135
 9739TIP3    H250709   2.073   6.594   3.047  1.4753  0.2296 -0.2446
 9740TIP3   OH250710   2.449   2.616  11.920 -0.2471 -0.6710 -0.2041
 9740TIP3    H150711   2.503   2.541  11.897 -0.5898 -0.8944 -0.2870
 9740TIP3    H250712   2.360   2.581  11.924 -0.4215 -0.2492 -0.3497
 9741TIP3   OH250713   3.517   1.323   5.572  0.3714 -0.0872  0.0361
 9741TIP3    H150714   3.601   1.365   5.552  0.1384  0.7526  0.8113
 9741TIP3    H250715   3.506   1.335   5.666 -1.0118  0.5348 -0.1965
 9742TIP3   OH250716   4.471   1.289  13.872  0.1941 -0.0343 -0.1082
 9742TIP3    H150717   4.518   1.344  13.809  1.2518  0.4022  1.0474
 9742TIP3    H250718   4.512   1.203  13.865  0.5465  0.1068  0.2434
 9743TIP3   OH250719   4.600   4.827  12.586  0.2217  0.1127 -0.7652
 9743TIP3    H150720   4.558   4.889  12.646  3.1797  1.2431  0.2145
 9743TIP3    H250721   4.536   4.756  12.577 -1.2831  1.0575  1.8228
 9744TIP3   OH250722   3.019   3.097   0.500  0.0424  0.0982 -0.0434
 9744TIP3    H150723   3.001   3.191   0.506  0.5821  0.2544 -0.8322
 9744TIP3    H250724   3.105   3.091   0.459 -0.6102 -0.7682 -1.3281
 9745TIP3   OH250725   2.510   0.521  15.168  0.1418  0.1824 -0.0371
 9745TIP3    H150726   2.566   0.472  15.108 -1.3890 -1.9333  0.2023
 9745TIP3    H250727   2.468   0.588  15.114  0.5657 -0.1876 -0.8259
 9746TIP3   OH250728   6.455   4.285   2.433  0.1004 -0.6478  0.0767
 9746TIP3    H150729   6.379   4.339   2.457 -1.2862 -2.7156  0.4272
 9746TIP3    H250730   6.426   4.235   2.357  1.4736 -0.6993 -0.4252
 9747TIP3   OH250731   6.471   4.618   3.219 -0.1443 -0.5348 -0.3825
 9747TIP3    H150732   6.476   4.632   3.124 -2.0092  2.4771 -0.1327
 9747TIP3    H250733   6.382   4.584   3.233  0.1210 -0.9597  0.3008
 9748TIP3   OH250734   0.722   3.049  11.797 -0.1480  0.1108 -0.2977
 9748TIP3    H150735   0.665   3.069  11.723 -0.8815  0.8221  0.4368
 9748TIP3    H250736   0.661   3.035  11.870  0.4553 -2.5302 -0.2464
 9749TIP3   OH250737   5.903   2.362   2.970 -0.0416 -0.4424  0.1275
 9749TIP3    H150738   5.844   2.415   3.025 -0.7763 -0.1898 -0.8939
 9749TIP3    H250739   5.846   2.294   2.934  0.4426 -0.5997 -0.3362
 9750TIP3   OH250740   2.427   4.519   4.899 -0.0556 -0.4911 -0.7118
 9750TIP3    H150741   2.359   4.566   4.849 -0.8624 -2.2591 -1.3055
 9750TIP3    H250742   2.389   4.508   4.986 -0.0056 -0.3536 -0.6722
 9751TIP3   OH250743   5.265   1.731  14.413 -0.2903 -0.5441  0.2626
 9751TIP3    H150744   5.289   1.653  14.362 -1.3613 -1.0528  0.5070
 9751TIP3    H250745   5.283   1.706  14.504 -1.2300 -0.7440  0.3993
 9752TIP3   OH250746   1.952   1.130  12.734 -0.2799  0.1227 -0.1652
 9752TIP3    H150747   2.045   1.134  12.712 -0.0564  1.5653  0.9307
 9752TIP3    H250748   1.947   1.066  12.805 -0.2402 -0.5492 -0.7657
 9753TIP3   OH250749   0.347   2.689  16.607  0.1095  0.0950 -0.1135
 9753TIP3    H150750   0.329   2.597  16.586  0.4804  0.0731 -0.3417
 9753TIP3    H250751   0.379   2.726  16.525 -1.3323  0.7695 -0.3995
 9754TIP3   OH250752   6.210   0.048   0.320 -0.2542 -0.1159  0.0848
 9754TIP3    H150753   6.251   0.086   0.242  0.6291  0.6195  0.9042
 9754TIP3    H250754   6.258  -0.034   0.335 -0.1447 -0.0483  0.1005
 9755TIP3   OH250755   0.510   0.628   5.793 -1.1244 -0.0725 -0.3305
 9755TIP3    H150756   0.589   0.594   5.835 -1.0770  0.7764  0.2831
 9755TIP3    H250757   0.439   0.600   5.850 -0.9713  1.9578  0.8944
 9756TIP3   OH250758   3.724   3.598   1.330  0.1372  0.2135 -0.4954
 9756TIP3    H150759   3.750   3.652   1.256 -2.9724  2.4149 -0.0726
 9756TIP3    H250760   3.720   3.659   1.404 -4.5146 -0.2506 -0.2375
 9757TIP3   OH250761   2.375   4.896  13.304 -0.4748  0.5979  0.2742
 9757TIP3    H150762   2.409   4.811  13.276 -0.7644  0.3375  0.7085
 9757TIP3    H250763   2.280   4.885  13.303 -0.5310  1.1125 -0.2691
 9758TIP3   OH250764   3.197   6.102   4.078 -0.1271  0.6906 -0.3249
 9758TIP3    H150765   3.105   6.115   4.058 -0.0728  1.4822 -0.0689
 9758TIP3    H250766   3.234   6.062   3.999 -0.3933  1.6639 -0.9497
 9759TIP3   OH250767   1.040   5.197  13.494 -0.3211  0.1775 -0.4712
 9759TIP3    H150768   1.114   5.140  13.515 -0.1418  0.9375  1.0963
 9759TIP3    H250769   1.079   5.269  13.444  0.1078  0.8574  0.8216
 9760TIP3   OH250770   4.311   1.453  14.736 -0.1469  0.2100 -0.5946
 9760TIP3    H150771   4.226   1.434  14.696  0.9578 -0.4023 -2.7180
 9760TIP3    H250772   4.311   1.549  14.745 -1.0859  0.2111 -0.5160
 9761TIP3   OH250773   3.409   1.150  16.792  0.4091  0.2215 -0.0428
 9761TIP3    H150774   3.433   1.242  16.784 -2.0576  0.9997  0.9363
 9761TIP3    H250775   3.372   1.143  16.880 -1.1104 -1.3130 -0.7831
 9762TIP3   OH250776   1.616   0.501   4.520  0.1571 -0.1635  0.2367
 9762TIP3    H150777   1.591   0.441   4.590  1.6813 -2.0130 -0.7381
 9762TIP3    H250778   1.559   0.476   4.447  0.1571  0.2052  0.1122
 9763TIP3   OH250779   6.260   5.696   1.376 -0.1765 -0.5380 -0.2669
 9763TIP3    H150780   6.167   5.690   1.352  0.1099  0.0446 -1.5500
 9763TIP3    H250781   6.279   5.790   1.374 -0.1201 -0.4681  2.2008
 9764TIP3   OH250782   1.297   6.683   3.854 -0.1644  0.4469 -0.1147
 9764TIP3    H150783   1.293   6.591   3.878 -2.1401  0.5141 -0.0941
 9764TIP3    H250784   1.245   6.727   3.921  0.7263  1.5750 -0.1489
 9765TIP3   OH250785   5.471   5.258  15.194 -0.1801  0.8189  0.1758
 9765TIP3    H150786   5.553   5.210  15.200 -0.8336 -0.1707  1.4623
 9765TIP3    H250787   5.437   5.259  15.283 -2.6110 -0.6700 -0.6886
 9766TIP3   OH250788   6.690   2.132   2.091 -0.6551  0.4887  0.5340
 9766TIP3    H150789   6.742   2.052   2.088 -2.0911 -0.4580  0.2136
 9766TIP3    H250790   6.739   2.194   2.038 -1.2760 -1.2471 -2.1798
 9767TIP3   OH250791   2.492   3.508  14.794 -0.3996 -0.4552 -0.3432
 9767TIP3    H150792   2.446   3.449  14.734  0.9581  0.2154 -2.0652
 9767TIP3    H250793   2.452   3.594  14.778 -1.7515 -0.6915  1.5198
 9768TIP3   OH250794   6.079   0.216   4.187  0.6591  0.2494  0.0534
 9768TIP3    H150795   6.052   0.261   4.267  1.5388  0.8486  0.0199
 9768TIP3    H250796   6.024   0.138   4.184 -1.4077  1.6881 -0.2960
 9769TIP3   OH250797   6.601   0.027  12.696  0.0840  0.4515  0.0144
 9769TIP3    H150798   6.697   0.022  12.700  0.0821  0.0108 -0.3543
 9769TIP3    H250799   6.581   0.120  12.703  0.5368  0.5347  0.1999
 9770TIP3   OH250800   0.650   1.815   1.633  0.7349  0.8079 -0.2215
 9770TIP3    H150801   0.678   1.866   1.558  1.6586  0.1744 -0.3147
 9770TIP3    H250802   0.697   1.732   1.625 -0.4987  0.0657  0.1002
 9771TIP3   OH250803   2.536   0.321  11.784 -0.4874 -0.4708  0.2041
 9771TIP3    H150804   2.535   0.405  11.737  0.9946  0.1621  1.2644
 9771TIP3    H250805   2.558   0.256  11.718  0.3082  0.2351 -0.2315
 9772TIP3   OH250806   4.167   2.152  13.175  0.3464 -0.2917 -0.6412
 9772TIP3    H150807   4.115   2.108  13.242  1.7854 -1.4162 -0.2225
 9772TIP3    H250808   4.258   2.141  13.205  0.8425  1.3711 -1.4916
 9773TIP3   OH250809   2.754   6.491  14.793 -0.2197  0.3172  0.4323
 9773TIP3    H150810   2.829   6.547  14.772 -1.5193  2.0286  0.3351
 9773TIP3    H250811   2.757   6.423  14.725 -0.4979  2.0747 -1.3982
 9774TIP3   OH250812   2.329   6.092   1.078 -0.4356 -0.2963 -0.3500
 9774TIP3    H150813   2.272   6.152   1.128 -1.1302 -1.8430  0.7736
 9774TIP3    H250814   2.337   6.133   0.992 -3.5283 -0.1717 -0.6525
 9775TIP3   OH250815   6.640   6.737  10.750 -0.0301 -0.0723 -0.3156
 9775TIP3    H150816   6.681   6.651  10.746 -1.7057 -0.8574 -0.8473
 9775TIP3    H250817   6.673   6.775  10.832  0.2788 -1.4314  0.2027
 9776TIP3   OH250818   3.889   1.848  16.267 -0.4116 -0.0946 -0.5408
 9776TIP3    H150819   3.815   1.858  16.208 -3.1405 -0.7015  2.6615
 9776TIP3    H250820   3.862   1.780  16.329  1.6308  1.6907  2.4659
 9777TIP3   OH250821   5.724   5.771  16.956  0.2708 -0.0099  0.3026
 9777TIP3    H150822   5.772   5.711  17.014  1.6045 -0.5893 -1.3382
 9777TIP3    H250823   5.780   5.778  16.878 -0.9915  1.5461 -0.4871
 9778TIP3   OH250824   5.993   2.795   1.439 -0.2285 -0.4565  0.1317
 9778TIP3    H150825   6.060   2.803   1.507 -0.0165 -2.2290  0.1776
 9778TIP3    H250826   6.041   2.803   1.356 -0.2096 -0.0812  0.1802
 9779TIP3   OH250827   5.912   6.175  16.856 -0.0373 -0.3257  0.5936
 9779TIP3    H150828   5.846   6.153  16.791  0.9101 -1.2568 -0.0593
 9779TIP3    H250829   5.989   6.201  16.805 -0.2760  1.9651  1.3423
 9780TIP3   OH250830   2.395   1.785  12.559 -0.0714  0.3853  0.2547
 9780TIP3    H150831   2.394   1.877  12.533 -0.4693  0.4617  0.5328
 9780TIP3    H250832   2.328   1.779  12.627 -1.4610 -0.5316 -1.1942
 9781TIP3   OH250833   1.051   4.610  12.930 -0.1053  0.3739 -1.1298
 9781TIP3    H150834   0.991   4.545  12.894  1.1535 -0.9770 -0.8769
 9781TIP3    H250835   1.024   4.619  13.022 -0.7059  0.7032 -1.3411
 9782TIP3   OH250836   1.868   2.975  17.104 -0.1312 -0.0842  0.0790
 9782TIP3    H150837   1.849   3.066  17.129 -1.4426 -0.4000  0.2557
 9782TIP3    H250838   1.782   2.935  17.091  0.3867 -1.7341  1.5238
 9783TIP3   OH250839   2.755   4.230  11.350  0.1673  0.1128 -0.2200
 9783TIP3    H150840   2.774   4.321  11.370 -0.3122  0.3107 -0.6433
 9783TIP3    H250841   2.817   4.206  11.281  2.3325 -0.7951  1.9879
 9784TIP3   OH250842   4.807   2.837   3.140 -0.0786 -0.2243 -0.0294
 9784TIP3    H150843   4.821   2.809   3.230 -0.9990  0.1667  0.2409
 9784TIP3    H250844   4.893   2.828   3.098  0.7344  1.0826  1.2956
 9785TIP3   OH250845   3.256   1.206   5.685 -0.1187 -0.0145 -0.2791
 9785TIP3    H150846   3.275   1.208   5.778  2.2070  3.6032 -0.7273
 9785TIP3    H250847   3.335   1.171   5.644  0.2461  1.6559 -1.0864
 9786TIP3   OH250848   4.794   6.036  15.231  0.4187 -0.0684 -0.2128
 9786TIP3    H150849   4.817   5.956  15.277  1.2980  0.6495  0.6154
 9786TIP3    H250850   4.806   6.015  15.139 -0.0572 -1.0990 -0.0517
 9787TIP3   OH250851   6.182   0.152  16.576 -0.1913  0.8367  0.1509
 9787TIP3    H150852   6.191   0.244  16.597  1.9528  0.2925  1.8275
 9787TIP3    H250853   6.235   0.107  16.642  2.9502 -1.2776 -3.5485
 9788TIP3   OH250854   3.375   4.311   5.922 -0.2921 -0.1366 -0.4004
 9788TIP3    H150855   3.433   4.250   5.967 -1.9193 -0.0375  1.9267
 9788TIP3    H250856   3.431   4.385   5.899  1.3201 -1.6954 -1.7133
 9789TIP3   OH250857   4.251   3.489   2.048 -0.0950  0.3965  0.5848
 9789TIP3    H150858   4.192   3.564   2.043  0.6862  0.9026 -1.2279
 9789TIP3    H250859   4.259   3.458   1.958  0.5183 -1.1513  1.1495
 9790TIP3   OH250860   3.607   2.551   1.147 -0.1860  0.2366  0.1201
 9790TIP3    H150861   3.615   2.626   1.206  1.2610  0.6845 -0.6080
 9790TIP3    H250862   3.552   2.584   1.075 -0.6292  0.1873  0.4346
 9791TIP3   OH250863   0.448   0.644  10.863  0.4180  0.3083  0.1319
 9791TIP3    H150864   0.356   0.643  10.835  0.2095  3.8791  0.4956
 9791TIP3    H250865   0.445   0.607  10.952 -0.5274 -0.5181 -0.2330
 9792TIP3   OH250866   4.225   5.248   2.963  0.3337  0.0234  0.2870
 9792TIP3    H150867   4.293   5.310   2.936  0.1078 -1.0893 -3.0937
 9792TIP3    H250868   4.155   5.260   2.899 -0.7166 -2.0096  1.0192
 9793TIP3   OH250869   2.195   1.409  14.259 -0.1904  0.2492 -0.5539
 9793TIP3    H150870   2.230   1.492  14.293 -1.5065  0.4278  0.4024
 9793TIP3    H250871   2.209   1.414  14.165  0.6831  1.1132 -0.3889
 9794TIP3   OH250872   1.248   6.054   4.695  0.1093 -0.0002  0.0567
 9794TIP3    H150873   1.176   5.994   4.677 -1.1531  1.1377  1.2683
 9794TIP3    H250874   1.307   6.005   4.752 -0.1490 -0.5987 -0.1850
 9795TIP3   OH250875   1.529   0.719   0.729 -0.0973 -0.3047  0.1689
 9795TIP3    H150876   1.538   0.735   0.635  0.2658 -0.9706  0.0844
 9795TIP3    H250877   1.553   0.802   0.770 -0.2511 -0.0137 -0.3251
 9796TIP3   OH250878   6.315   5.518   4.882  0.2717 -0.4713 -0.1232
 9796TIP3    H150879   6.228   5.555   4.896  0.5707  0.7855 -1.4101
 9796TIP3    H250880   6.342   5.486   4.967 -1.6795 -1.3678  0.1775
 9797TIP3   OH250881   2.812   4.218  16.768  0.1295 -0.4529 -0.2260
 9797TIP3    H150882   2.718   4.234  16.770 -0.1802 -2.1655 -0.1749
 9797TIP3    H250883   2.848   4.275  16.835 -0.4897  2.5267 -2.3383
 9798TIP3   OH250884   0.014   4.865  16.888 -0.0765 -0.3564  0.2421
 9798TIP3    H150885   0.093   4.919  16.894 -0.7904  1.1153 -2.7612
 9798TIP3    H250886   0.040   4.790  16.833 -0.9222  0.5303 -1.4143
 9799TIP3   OH250887   1.889   2.206   0.919 -0.2598 -0.0365  0.0935
 9799TIP3    H150888   1.980   2.220   0.892 -0.1670 -0.2340  0.3103
 9799TIP3    H250889   1.887   2.117   0.952 -0.1747  0.5123  1.6157
 9800TIP3   OH250890   4.229   5.857  15.627  0.4163  0.4265  0.0043
 9800TIP3    H150891   4.147   5.882  15.586  0.6712  1.0617 -0.1219
 9800TIP3    H250892   4.274   5.805  15.561  0.0595 -0.0415  0.1234
 9801TIP3   OH250893   4.595   0.978   1.625 -0.0255  0.0805  0.3925
 9801TIP3    H150894   4.686   0.983   1.596 -0.3849  1.2226 -0.5977
 9801TIP3    H250895   4.571   1.069   1.646 -1.4633  0.0759 -1.0712
 9802TIP3   OH250896   6.135   2.128  11.277 -0.2570  0.2977 -0.1377
 9802TIP3    H150897   6.116   2.104  11.186 -0.6015 -0.8877  0.2410
 9802TIP3    H250898   6.226   2.157  11.276 -0.8619  2.2810 -1.2452
 9803TIP3   OH250899   3.287   1.275   3.069  0.5536 -0.4099 -0.0255
 9803TIP3    H150900   3.377   1.275   3.036  0.3521  1.5814 -0.6182
 9803TIP3    H250901   3.260   1.183   3.064  2.6378 -1.0638  0.4168
 9804TIP3   OH250902   0.148   6.388  11.165  0.1177  0.7012  0.4019
 9804TIP3    H150903   0.160   6.464  11.107 -0.6286  0.3898 -0.1772
 9804TIP3    H250904   0.155   6.313  11.106  1.5439  0.2892  1.0856
 9805TIP3   OH250905   6.742   1.778  15.934 -0.4060 -0.0201  0.0578
 9805TIP3    H150906   6.798   1.733  15.871  0.4526  0.3265  0.5647
 9805TIP3    H250907   6.800   1.841  15.977 -1.4174  1.0651 -0.1341
 9806TIP3   OH250908   5.148   6.541   0.690 -0.0686  0.2857 -0.5553
 9806TIP3    H150909   5.240   6.520   0.708 -0.4764 -0.8550  0.2517
 9806TIP3    H250910   5.128   6.492   0.610 -0.4005 -0.7245  0.1290
 9807TIP3   OH250911   2.559   4.370  17.053  0.6560  0.5292 -0.4683
 9807TIP3    H150912   2.621   4.434  17.088  2.3414 -0.8466 -0.8858
 9807TIP3    H250913   2.484   4.422  17.026  0.3465  1.9347  2.7824
 9808TIP3   OH250914   6.119   6.787  15.947 -0.2958 -0.2104  0.7510
 9808TIP3    H150915   6.107   6.767  15.854  0.2921 -1.0602  0.8462
 9808TIP3    H250916   6.094   6.706  15.992 -0.6940  0.2368  1.3442
 9809TIP3   OH250917   4.684   4.638  17.032  0.2568 -0.2844 -0.3267
 9809TIP3    H150918   4.666   4.664  17.123  2.2716 -1.3421  0.4007
 9809TIP3    H250919   4.759   4.579  17.038  0.6268 -0.1265 -2.7242
 9810TIP3   OH250920   3.327   4.917   0.567  0.1000  0.6265  0.2002
 9810TIP3    H150921   3.380   4.985   0.527 -2.0047  1.1872 -1.7126
 9810TIP3    H250922   3.362   4.835   0.531  0.3529  0.9088 -0.2006
 9811TIP3   OH250923   5.116   5.318   4.397  0.4263  0.8980  0.0485
 9811TIP3    H150924   5.182   5.325   4.328  0.8823 -1.0461  0.2558
 9811TIP3    H250925   5.037   5.355   4.358  1.0349  1.0822 -1.0344
 9812TIP3   OH250926   2.950   0.311  14.431 -0.1144  0.2895 -0.1542
 9812TIP3    H150927   2.906   0.228  14.411 -1.2373  0.9877 -0.6328
 9812TIP3    H250928   2.907   0.342  14.511  0.3406  0.3889  0.0519
 9813TIP3   OH250929   2.105   3.719  12.996 -0.2776 -0.1843  0.1434
 9813TIP3    H150930   2.140   3.806  13.013  1.6473 -0.9978  0.4316
 9813TIP3    H250931   2.046   3.702  13.069  0.0259  0.5270  0.5608
 9814TIP3   OH250932   5.280   3.481  13.046  0.2609 -0.0768  0.1556
 9814TIP3    H150933   5.261   3.477  12.952  0.6047  0.6831  0.0460
 9814TIP3    H250934   5.376   3.481  13.050  0.2403 -0.6071  0.5282
 9815TIP3   OH250935   5.269   1.966  16.671  0.0917  0.7040 -0.3101
 9815TIP3    H150936   5.314   1.911  16.607 -1.4315  2.0406 -2.5961
 9815TIP3    H250937   5.338   1.998  16.729  1.6115  0.1049 -1.7672
 9816TIP3   OH250938   3.135   5.299  14.649  0.0170  0.3775  0.0445
 9816TIP3    H150939   3.228   5.297  14.628  0.0047 -0.0125  0.0310
 9816TIP3    H250940   3.121   5.223  14.705 -0.9331 -1.5679 -2.6969
 9817TIP3   OH250941   4.691   3.272  15.960 -0.3000  0.0766 -0.0993
 9817TIP3    H150942   4.741   3.271  15.878  0.3649 -0.5092  0.3088
 9817TIP3    H250943   4.749   3.231  16.024 -0.6861  0.8324  0.7480
 9818TIP3   OH250944   3.818   5.204   1.555 -0.6234 -0.2042  0.2550
 9818TIP3    H150945   3.775   5.245   1.630 -0.4604  0.5693 -0.0667
 9818TIP3    H250946   3.746   5.169   1.502 -0.8306  0.6562 -0.0357
 9819TIP3   OH250947   6.219   1.414   2.103  0.0843  0.5305  0.0061
 9819TIP3    H150948   6.124   1.424   2.094 -0.1028 -0.7060  0.5218
 9819TIP3    H250949   6.230   1.380   2.192  1.0377  0.9606  0.0544
 9820TIP3   OH250950   4.514   5.160   1.481  0.2033  0.3543 -0.2620
 9820TIP3    H150951   4.492   5.121   1.396  0.2578  0.2760 -0.2405
 9820TIP3    H250952   4.481   5.097   1.545 -1.5666  1.3347 -0.1807
 9821TIP3   OH250953   6.478   4.903  11.619  0.5161  0.7707 -0.1840
 9821TIP3    H150954   6.427   4.951  11.554  1.0821  1.6671  0.0207
 9821TIP3    H250955   6.464   4.951  11.701 -2.2023 -1.7583  0.9534
 9822TIP3   OH250956   1.368   3.963  11.036 -0.2485 -0.0485 -0.1417
 9822TIP3    H150957   1.314   3.916  10.972  2.1051 -0.2414 -2.0572
 9822TIP3    H250958   1.430   3.897  11.067  1.4581  1.1315 -0.9756
 9823TIP3   OH250959   2.922   5.333   0.478 -0.5085  0.4640  0.1891
 9823TIP3    H150960   2.885   5.278   0.409  0.3460  0.1998 -0.0678
 9823TIP3    H250961   2.876   5.306   0.557 -1.8187  1.0891 -0.3459
 9824TIP3   OH250962   6.018   2.417   5.808 -0.1027  0.1008 -0.0476
 9824TIP3    H150963   5.954   2.446   5.743 -0.7953 -0.7496  0.2462
 9824TIP3    H250964   5.986   2.332   5.838 -0.1272  0.7619  1.8653
 9825TIP3   OH250965   6.474   5.361  11.746  0.1828  0.3226  0.0629
 9825TIP3    H150966   6.442   5.342  11.834  0.0877  1.4645  0.2866
 9825TIP3    H250967   6.557   5.314  11.740  0.0299 -0.0268  0.6401
 9826TIP3   OH250968   3.135   5.531  14.974 -0.3220 -0.8215  0.3192
 9826TIP3    H150969   3.155   5.622  14.952  0.8351 -0.8697  1.1062
 9826TIP3    H250970   3.040   5.523  14.962 -0.1622 -0.0570 -1.6557
 9827TIP3   OH250971   1.533   1.374  17.221 -0.3298  0.0499 -0.0382
 9827TIP3    H150972   1.483   1.437  17.274 -0.0536 -0.0060  0.2913
 9827TIP3    H250973   1.469   1.307  17.197  0.3882 -2.1041  3.6371
 9828TIP3   OH250974   5.834   4.271   0.510  0.6066 -0.3944 -0.4809
 9828TIP3    H150975   5.913   4.220   0.529  1.5952  1.2081 -0.1816
 9828TIP3    H250976   5.837   4.345   0.571 -0.7345  0.0877 -0.9686
 9829TIP3   OH250977   3.641   3.650  16.033  0.1224 -0.5166 -0.5905
 9829TIP3    H150978   3.673   3.603  16.110 -1.4385 -1.4276 -0.4724
 9829TIP3    H250979   3.710   3.712  16.012  1.6255 -1.9293  0.0788
 9830TIP3   OH250980   1.532   0.563  15.779  0.0965  0.1545 -0.3846
 9830TIP3    H150981   1.567   0.482  15.816  0.9128  0.5732 -0.2373
 9830TIP3    H250982   1.600   0.594  15.719 -0.8153 -0.0166 -1.5291
 9831TIP3   OH250983   2.344   6.597   4.517  0.1237  0.3743 -0.1381
 9831TIP3    H150984   2.263   6.571   4.561  0.9220 -1.4157  0.3535
 9831TIP3    H250985   2.410   6.599   4.587  1.7040 -3.8121 -1.3291
 9832TIP3   OH250986   1.880   2.465  14.877 -0.7862 -0.2383 -0.4203
 9832TIP3    H150987   1.841   2.441  14.961 -0.3601 -2.4261 -0.8301
 9832TIP3    H250988   1.878   2.561  14.877 -2.6254 -0.2314  1.2128
 9833TIP3   OH250989   3.564   4.327   1.446  0.2370 -0.5753 -0.2953
 9833TIP3    H150990   3.653   4.319   1.480  0.4321 -0.3882 -0.7618
 9833TIP3    H250991   3.539   4.237   1.425  0.9111 -0.4458 -1.6705
 9834TIP3   OH250992   4.015   0.322   4.193  0.2268 -0.7232  0.4508
 9834TIP3    H150993   4.041   0.400   4.144  0.6433 -0.7859  0.5728
 9834TIP3    H250994   3.924   0.308   4.169 -0.5555  1.1355  2.1757
 9835TIP3   OH250995   0.707   0.279   4.760  0.0710  0.1376  0.2978
 9835TIP3    H150996   0.655   0.337   4.817  0.8260 -0.1820  1.3183
 9835TIP3    H250997   0.785   0.330   4.740 -0.2668  0.3094 -0.5930
 9836TIP3   OH250998   1.060   5.483   4.131 -0.8008 -0.0804  0.0254
 9836TIP3    H150999   0.979   5.533   4.133 -0.5090  0.4046 -0.1827
 9836TIP3    H251000   1.129   5.549   4.123 -0.4081 -0.5076 -0.1396
 9837TIP3   OH251001   6.718   4.520   5.268  0.5783 -0.2883 -0.5698
 9837TIP3    H151002   6.716   4.515   5.172 -0.0866 -0.8935 -0.5287
 9837TIP3    H251003   6.790   4.461   5.293  1.8109  1.1010 -0.7634
 9838TIP3   OH251004   2.642   6.023   4.575 -0.5493 -0.1802 -0.1761
 9838TIP3    H151005   2.696   6.020   4.496 -0.8244  1.5969 -0.4484
 9838TIP3    H251006   2.554   6.043   4.544 -1.0207 -1.2138  0.4377
 9839TIP3   OH251007   4.991   4.708   3.118 -0.1398  0.1224 -0.3626
 9839TIP3    H151008   5.076   4.725   3.078 -1.0204  0.6325 -2.0191
 9839TIP3    H251009   4.940   4.788   3.105 -0.9443 -0.2340  0.4725
 9840TIP3   OH251010   3.441   1.057   2.861  0.2620  0.4601  0.4155
 9840TIP3    H151011   3.477   1.086   2.945  0.7019  0.0495  0.3706
 9840TIP3    H251012   3.457   0.962   2.860 -3.1386 -0.2124  1.5739
 9841TIP3   OH251013   6.602   3.080   0.991  0.1244  0.6785  0.4654
 9841TIP3    H151014   6.529   3.059   1.049  0.7126  0.3006  1.0751
 9841TIP3    H251015   6.679   3.078   1.047  0.5341  1.7192 -0.0392
 9842TIP3   OH251016   2.590   1.716  13.338 -0.1861  0.3565 -0.7651
 9842TIP3    H151017   2.641   1.683  13.264 -0.8821  0.1476 -1.1551
 9842TIP3    H251018   2.646   1.700  13.415 -0.4131 -1.5021 -0.9750
 9843TIP3   OH251019   2.091   0.284  15.747  0.7934 -0.0310 -0.3060
 9843TIP3    H151020   2.042   0.214  15.704  1.7333 -1.0978  0.3405
 9843TIP3    H251021   2.183   0.260  15.736  1.1085  0.8384  0.3671
 9844TIP3   OH251022   6.205   3.401   5.192  0.1843 -0.6580  0.8485
 9844TIP3    H151023   6.255   3.482   5.203  0.4461 -0.5140 -1.1449
 9844TIP3    H251024   6.269   3.332   5.205  0.5828 -0.4891 -0.1369
 9845TIP3   OH251025   1.372   0.499  17.151  0.6942 -0.1092 -0.0738
 9845TIP3    H151026   1.335   0.586  17.135  0.9147  0.0825  0.4558
 9845TIP3    H251027   1.400   0.468  17.065 -0.3798 -0.1118 -0.4290
 9846TIP3   OH251028   6.739   4.369  14.977  0.5745  0.2239  0.1272
 9846TIP3    H151029   6.646   4.354  14.961  1.3629 -3.2894 -1.5453
 9846TIP3    H251030   6.765   4.434  14.912  0.0952 -1.6273 -1.9504
 9847TIP3   OH251031   1.604   6.004   0.948 -0.6435  0.7142  0.2584
 9847TIP3    H151032   1.679   5.957   0.912 -0.0829  0.7532  1.3551
 9847TIP3    H251033   1.530   5.943   0.936 -0.2085  0.1779  0.2823
 9848TIP3   OH251034   1.033   2.633   6.189 -0.0737 -0.2087  0.5878
 9848TIP3    H151035   0.990   2.713   6.159  0.5033  0.0336  0.3963
 9848TIP3    H251036   1.035   2.576   6.111 -0.3787 -0.3603  0.6925
 9849TIP3   OH251037   4.449   4.134   2.732 -0.2294 -0.4793 -0.6963
 9849TIP3    H151038   4.424   4.191   2.805 -0.3175  1.3438 -2.1048
 9849TIP3    H251039   4.367   4.120   2.684 -0.1962 -1.7674 -0.3973
 9850TIP3   OH251040   6.317   2.322   6.672 -0.2649 -0.2748  0.3819
 9850TIP3    H151041   6.404   2.294   6.644 -0.7699 -2.0051  0.4521
 9850TIP3    H251042   6.281   2.370   6.597 -0.3072 -1.9433 -0.6856
 9851TIP3   OH251043   3.684   0.920  14.205  0.0586 -0.2026 -0.7359
 9851TIP3    H151044   3.635   0.842  14.230  1.9158 -1.1775 -0.0617
 9851TIP3    H251045   3.737   0.893  14.130  2.0795 -0.1540  0.6208
 9852TIP3   OH251046   1.529   0.556   3.800  0.0774  0.4809 -0.0812
 9852TIP3    H151047   1.472   0.484   3.829  0.7716 -0.5016 -1.1155
 9852TIP3    H251048   1.618   0.522   3.811  0.3875  0.9295 -1.2168
 9853TIP3   OH251049   6.100   1.487   2.636  0.8860 -0.0958  0.4691
 9853TIP3    H151050   6.142   1.491   2.550 -0.9730 -0.4543 -0.4722
 9853TIP3    H251051   6.020   1.539   2.627  0.6030 -0.2291  1.9564
 9854TIP3   OH251052   2.711   1.774   3.304 -0.2596  0.1308  0.4691
 9854TIP3    H151053   2.688   1.814   3.388  1.1652 -1.6366  1.7202
 9854TIP3    H251054   2.806   1.760   3.309 -0.1822 -0.1205 -1.3834
 9855TIP3   OH251055   4.908   2.287  15.125  0.1369 -0.5138 -0.1952
 9855TIP3    H151056   4.816   2.314  15.126  0.4884  0.6997  1.5402
 9855TIP3    H251057   4.921   2.244  15.209  1.1298 -0.8115 -0.4917
 9856TIP3   OH251058   3.426   3.707   6.319  0.4745 -0.0326  0.4382
 9856TIP3    H151059   3.346   3.688   6.368  0.1618 -0.9326 -0.3926
 9856TIP3    H251060   3.404   3.781   6.263  0.3888  0.0755  0.6170
 9857TIP3   OH251061   3.062   5.189  12.237  0.2825  0.0795  0.0070
 9857TIP3    H151062   3.000   5.133  12.191  0.2103  0.2427 -0.0954
 9857TIP3    H251063   3.145   5.142  12.231 -0.3217 -1.3384  2.2933
 9858TIP3   OH251064   1.244   5.267  14.770 -0.3256  0.2148  0.3991
 9858TIP3    H151065   1.269   5.359  14.754  0.2819 -0.2302 -1.3903
 9858TIP3    H251066   1.279   5.248  14.857  0.6325  1.3168  0.2745
 9859TIP3   OH251067   6.225   0.480   2.459 -0.2977  0.4216  0.8239
 9859TIP3    H151068   6.283   0.404   2.469 -1.0346  0.0397  2.3697
 9859TIP3    H251069   6.152   0.462   2.518 -1.4124  1.4629 -0.2134
 9860TIP3   OH251070   5.687   4.109  17.117  0.4282 -0.4615 -0.0144
 9860TIP3    H151071   5.604   4.153  17.135  0.1016 -1.0460 -0.0834
 9860TIP3    H251072   5.716   4.146  17.033 -0.9071 -1.9118 -1.1506
 9861TIP3   OH251073   5.100   0.593  16.186 -0.2198 -0.0694  0.1552
 9861TIP3    H151074   5.019   0.641  16.206  1.3509  1.6809  2.6130
 9861TIP3    H251075   5.169   0.659  16.192  1.7132 -2.0851  0.8353
 9862TIP3   OH251076   6.407   6.322  11.889  0.0265  0.4406  0.4521
 9862TIP3    H151077   6.461   6.244  11.905  0.1122  0.2604 -0.6364
 9862TIP3    H251078   6.325   6.288  11.855 -0.2149  0.7906  0.6877
 9863TIP3   OH251079   0.274   2.359   0.616  0.4421  0.2690  0.2224
 9863TIP3    H151080   0.214   2.400   0.679 -2.4592 -1.1059 -1.5611
 9863TIP3    H251081   0.246   2.268   0.611  2.4916 -0.3333 -0.9502
 9864TIP3   OH251082   4.969   6.489  12.728 -0.7995 -0.0479 -0.0923
 9864TIP3    H151083   4.884   6.452  12.707 -0.8596  0.1673 -0.2280
 9864TIP3    H251084   4.971   6.490  12.824 -1.1841  0.4737 -0.0851
 9865TIP3   OH251085   2.668   1.308   0.469  0.3972  0.1948 -0.1544
 9865TIP3    H151086   2.645   1.397   0.495 -1.9804 -0.1685 -0.8543
 9865TIP3    H251087   2.688   1.263   0.551 -0.9188  0.6983  0.4504
 9866TIP3   OH251088   0.651   6.389   4.123  0.4337 -0.2734  0.5595
 9866TIP3    H151089   0.618   6.432   4.044  0.7094  1.8745  1.5925
 9866TIP3    H251090   0.576   6.385   4.181  0.6583 -0.2984  0.8476
 9867TIP3   OH251091   5.172   4.613   3.512 -0.4439  0.1020 -0.3231
 9867TIP3    H151092   5.126   4.697   3.508 -0.4595  0.3063  3.1583
 9867TIP3    H251093   5.237   4.618   3.441  1.0243  3.9744  1.1830
 9868TIP3   OH251094   2.935   2.928  11.154 -0.1510 -0.1274  0.4596
 9868TIP3    H151095   2.962   2.842  11.186 -0.3065 -0.6121 -0.6871
 9868TIP3    H251096   2.841   2.919  11.139 -0.9624  1.4275  4.0329
 9869TIP3   OH251097   5.291   3.979   4.091 -0.7605  0.0434  0.1016
 9869TIP3    H151098   5.228   3.962   4.161  1.0643 -1.0722  1.5129
 9869TIP3    H251099   5.295   4.074   4.085 -2.7125  0.1290 -0.1537
 9870TIP3   OH251100   5.019   3.533  17.023  0.5715  0.2498 -0.8340
 9870TIP3    H151101   4.997   3.553  16.932  0.3371  0.5750 -0.7050
 9870TIP3    H251102   5.044   3.617  17.061  1.5417 -0.0255 -0.8392
 9871TIP3   OH251103   1.796   5.236   5.548  0.2218 -0.4244 -0.5516
 9871TIP3    H151104   1.738   5.287   5.605  4.1696  1.5754  1.8417
 9871TIP3    H251105   1.795   5.148   5.587 -4.2112 -1.6165 -2.9279
 9872TIP3   OH251106   2.907   6.336  15.610 -0.3626  0.1358  0.3609
 9872TIP3    H151107   2.929   6.330  15.703  0.6508  0.0561  0.1211
 9872TIP3    H251108   2.813   6.319  15.606 -0.0782 -1.7338  1.1657
 9873TIP3   OH251109   4.297   5.757  13.530 -0.0471 -0.0760  0.1757
 9873TIP3    H151110   4.358   5.786  13.463 -0.9684  1.8969  0.1610
 9873TIP3    H251111   4.351   5.705  13.590  1.2272 -0.0186 -0.8926
 9874TIP3   OH251112   4.078   4.373   5.958  0.3401 -0.2149  0.0162
 9874TIP3    H151113   4.060   4.455   5.911  1.5846 -0.1129 -0.2796
 9874TIP3    H251114   4.112   4.314   5.892  1.7486 -0.1923  0.7028
 9875TIP3   OH251115   3.636   3.175  12.883 -1.2527 -0.3863  0.3899
 9875TIP3    H151116   3.707   3.113  12.869 -0.5646  0.1112  1.5845
 9875TIP3    H251117   3.565   3.144  12.827 -0.0069 -0.7411 -1.0188
 9876TIP3   OH251118   5.907   5.512  13.993  0.1333 -0.0625  0.1391
 9876TIP3    H151119   5.918   5.477  14.082  1.7281 -1.2217 -0.4906
 9876TIP3    H251120   5.996   5.528  13.962 -0.2976 -1.5788 -1.9968
 9877TIP3   OH251121   4.147   0.164  12.534 -0.1023  0.0499  0.2706
 9877TIP3    H151122   4.202   0.128  12.464  2.8154 -0.4392  2.7188
 9877TIP3    H251123   4.169   0.112  12.611 -3.7626  0.1241  1.4500
 9878TIP3   OH251124   3.183   2.516  10.861 -0.5638  0.5228  0.4246
 9878TIP3    H151125   3.180   2.518  10.957  1.1892 -1.5790  0.5449
 9878TIP3    H251126   3.126   2.443  10.838 -0.3360  0.5144 -0.1015
 9879TIP3   OH251127   0.064   3.673   4.580  0.7396 -0.6379  0.3693
 9879TIP3    H151128   0.150   3.690   4.541 -0.5229  2.6206 -1.1787
 9879TIP3    H251129   0.058   3.733   4.654 -0.7771  0.2814 -0.4642
 9880TIP3   OH251130   5.961   2.697   4.773 -0.3766  0.4988  0.1020
 9880TIP3    H151131   6.026   2.710   4.842 -0.8871  2.2721  0.2833
 9880TIP3    H251132   6.002   2.634   4.713 -0.1390 -1.4454  2.2589
 9881TIP3   OH251133   4.030   5.409  11.222  0.2917  0.6014  0.0736
 9881TIP3    H151134   3.971   5.473  11.263 -2.9431 -0.4503 -2.6222
 9881TIP3    H251135   4.015   5.421  11.128  1.3858 -2.5040 -0.5336
 9882TIP3   OH251136   5.977   1.386   4.084 -0.5164  0.1599  0.2092
 9882TIP3    H151137   6.053   1.442   4.101  0.6108 -0.9861 -0.8211
 9882TIP3    H251138   5.942   1.418   4.000 -0.1580 -0.3494 -0.1418
 9883TIP3   OH251139   6.021   0.072   4.519 -0.0699  0.5130 -0.9557
 9883TIP3    H151140   6.010   0.016   4.443  2.6882 -0.0631 -0.9986
 9883TIP3    H251141   6.016   0.161   4.483 -3.2656  0.3531 -1.0620
 9884TIP3   OH251142   4.721   3.306   1.234  0.1526  0.1799 -0.2751
 9884TIP3    H151143   4.640   3.354   1.215  0.8898  0.8963 -1.7307
 9884TIP3    H251144   4.791   3.367   1.210  1.1380 -0.1925  1.5910
 9885TIP3   OH251145   6.396   2.766   6.288 -0.6378 -0.0180  0.9588
 9885TIP3    H151146   6.468   2.730   6.341 -0.0388 -0.0997  0.0969
 9885TIP3    H251147   6.360   2.690   6.242 -0.8888  0.1160  0.9351
 9886TIP3   OH251148   5.482   1.130  12.523 -0.6993 -0.0908  0.0972
 9886TIP3    H151149   5.389   1.110  12.524 -0.9385  1.0442  1.3427
 9886TIP3    H251150   5.505   1.146  12.614  0.1676  2.0907 -0.4698
 9887TIP3   OH251151   1.797   1.127   0.782  0.7465 -0.2215 -0.1146
 9887TIP3    H151152   1.717   1.079   0.805  0.7104 -0.2976 -0.3942
 9887TIP3    H251153   1.771   1.219   0.784  0.1843 -0.3282 -1.9689
 9888TIP3   OH251154   5.008   3.357  11.143 -0.5494 -0.2484 -0.4632
 9888TIP3    H151155   5.027   3.263  11.152  1.6213  0.1900 -0.1451
 9888TIP3    H251156   4.991   3.369  11.049  0.1844 -0.7902 -0.6711
 9889TIP3   OH251157   2.155   0.615   3.231 -0.6588 -0.0239  0.0798
 9889TIP3    H151158   2.063   0.625   3.206 -1.2881  0.4252  2.4878
 9889TIP3    H251159   2.166   0.674   3.305  0.6729 -2.6301  2.0310
 9890TIP3   OH251160   2.467   2.914  11.788 -0.0745  0.2877 -0.5108
 9890TIP3    H151161   2.424   2.997  11.808 -0.2649 -0.4719  2.3396
 9890TIP3    H251162   2.411   2.873  11.722 -1.1223  1.4658 -0.3632
 9891TIP3   OH251163   3.329   2.184  13.722 -0.6746  0.4735 -0.0626
 9891TIP3    H151164   3.318   2.198  13.628 -1.8681 -1.4024 -0.2294
 9891TIP3    H251165   3.306   2.092  13.735 -1.5691  0.9819  2.2162
 9892TIP3   OH251166   6.033   0.560  15.978 -0.3293 -0.7007  0.9258
 9892TIP3    H151167   6.071   0.475  16.002 -0.9532 -1.5533 -0.9547
 9892TIP3    H251168   6.107   0.612  15.947 -0.0048 -0.7056  1.6887
 9893TIP3   OH251169   3.489   1.674   4.375  0.3481 -0.5163  0.2507
 9893TIP3    H151170   3.427   1.602   4.365 -0.2785  0.0524  0.0029
 9893TIP3    H251171   3.555   1.660   4.307 -1.2539  0.6520 -1.5735
 9894TIP3   OH251172   3.389   4.123   4.515  0.4511 -0.8469  0.2035
 9894TIP3    H151173   3.406   4.147   4.606  0.7215 -1.7806  0.4070
 9894TIP3    H251174   3.476   4.101   4.480  0.5651  0.9808 -0.7227
 9895TIP3   OH251175   2.286   4.255  12.152  0.2926  0.4323  0.3178
 9895TIP3    H151176   2.323   4.275  12.238 -0.9439 -0.5698  1.1055
 9895TIP3    H251177   2.194   4.281  12.160  0.4457  1.4911 -1.1184
 9896TIP3   OH251178   0.932   2.659  15.844 -0.1741 -0.4582 -0.6775
 9896TIP3    H151179   0.939   2.599  15.918 -1.7119  0.9544  0.6481
 9896TIP3    H251180   1.021   2.692  15.831 -0.3240  1.2099  2.2044
 9897TIP3   OH251181   1.567   2.965  12.124 -0.0953 -0.0761  0.0355
 9897TIP3    H151182   1.535   3.023  12.193 -1.0101 -0.0744 -0.3801
 9897TIP3    H251183   1.499   2.969  12.056 -1.7460 -4.0228  1.2814
 9898TIP3   OH251184   4.283   1.248   4.849 -0.2366 -0.3752  0.0678
 9898TIP3    H151185   4.280   1.329   4.900  1.0410  0.5288 -1.2280
 9898TIP3    H251186   4.336   1.189   4.902  0.3623  0.2639  0.2025
 9899TIP3   OH251187   1.120   2.118  11.727  0.1820  0.6462  0.0581
 9899TIP3    H151188   1.080   2.089  11.809 -0.2661  2.4172  0.4870
 9899TIP3    H251189   1.046   2.131  11.668  0.4460  0.1426 -0.3866
 9900TIP3   OH251190   3.498   1.187  14.655 -0.0534  0.2906  0.0589
 9900TIP3    H151191   3.507   1.260  14.595 -1.0702 -0.4687 -1.0433
 9900TIP3    H251192   3.487   1.110  14.599  0.3952 -0.6278  1.1990
 9901TIP3   OH251193   2.024   0.102   5.054  0.4450 -0.2313  0.1809
 9901TIP3    H151194   2.059   0.060   4.975 -0.1110  0.5055 -0.4569
 9901TIP3    H251195   2.027   0.195   5.036 -0.7788 -0.1066  0.5756
 9902TIP3   OH251196   1.989   2.458   0.684 -0.4436  0.1606 -1.1865
 9902TIP3    H151197   1.996   2.443   0.778  0.1053  2.1671 -0.8920
 9902TIP3    H251198   1.899   2.486   0.670 -0.7662 -0.9375 -1.3985
 9903TIP3   OH251199   6.086   6.747   5.515  0.1672 -0.0363  0.4623
 9903TIP3    H151200   6.164   6.771   5.566  1.6108 -1.9820 -0.7461
 9903TIP3    H251201   6.018   6.734   5.581  1.2104  0.4278  1.6525
 9904TIP3   OH251202   0.756   3.323  11.598  0.2535 -0.2824  0.8265
 9904TIP3    H151203   0.837   3.283  11.567  0.0758  0.9388 -1.3531
 9904TIP3    H251204   0.687   3.264  11.566  0.1880 -0.2349  0.8804
 9905TIP3   OH251205   5.344   2.006  14.567 -0.0106 -0.3922 -0.0827
 9905TIP3    H151206   5.274   1.951  14.602  0.7799 -1.2045  0.2418
 9905TIP3    H251207   5.312   2.096  14.578 -0.9371 -0.7516  0.1872
 9906TIP3   OH251208   1.452   0.548   0.484 -0.0778  0.2084  0.8692
 9906TIP3    H151209   1.541   0.562   0.516 -0.4455 -0.2877  2.1384
 9906TIP3    H251210   1.462   0.540   0.389  1.6742 -3.2403  1.2702
 9907TIP3   OH251211   5.795   1.367   0.696  0.2628 -0.3510 -0.0055
 9907TIP3    H151212   5.713   1.350   0.742 -0.2015 -0.4397 -0.8700
 9907TIP3    H251213   5.803   1.462   0.696 -0.6800 -0.2603 -1.3809
 9908TIP3   OH251214   0.771   5.624   5.597 -0.5981  0.0873  0.1487
 9908TIP3    H151215   0.793   5.679   5.522  1.4066  1.7728  1.8946
 9908TIP3    H251216   0.696   5.667   5.638  0.2878  0.9640  0.8877
 9909TIP3   OH251217   3.625   5.211  11.102 -0.4141  0.0651  0.0675
 9909TIP3    H151218   3.686   5.152  11.058  1.0451  1.2957  0.4023
 9909TIP3    H251219   3.560   5.233  11.035  0.2004 -0.2766 -0.6403
 9910TIP3   OH251220   6.424   0.047   3.907 -0.4608 -0.3459  0.2286
 9910TIP3    H151221   6.429   0.019   3.998 -0.3599  2.7682  1.2393
 9910TIP3    H251222   6.361   0.120   3.908 -0.2952 -0.1250 -2.1533
 9911TIP3   OH251223   3.679   6.122   3.061 -0.7383 -0.0030 -0.3290
 9911TIP3    H151224   3.704   6.143   2.971 -1.8709 -1.5469 -1.0287
 9911TIP3    H251225   3.762   6.112   3.108 -0.0559 -2.7016 -2.0441
 9912TIP3   OH251226   4.579   6.774  15.048  0.6855  0.2790  0.2007
 9912TIP3    H151227   4.580   6.799  15.140  2.6186 -0.7900  0.4970
 9912TIP3    H251228   4.667   6.795  15.016  0.1933  0.1666 -1.2644
 9913TIP3   OH251229   0.355   3.044  13.805  0.7307 -0.6842 -0.8015
 9913TIP3    H151230   0.351   3.118  13.744  0.1488 -0.6421 -0.7167
 9913TIP3    H251231   0.434   2.996  13.779  1.8858  0.7022 -0.0081
 9914TIP3   OH251232   0.993   0.397   0.632 -0.3377 -0.0105 -0.0647
 9914TIP3    H151233   0.952   0.457   0.570 -1.8789 -1.1629 -0.1852
 9914TIP3    H251234   1.079   0.435   0.649 -1.2120  2.1111 -0.2913
 9915TIP3   OH251235   3.206   6.186  15.730  0.4005 -0.0140  0.3046
 9915TIP3    H151236   3.122   6.165  15.772  0.8034 -0.6572  0.7994
 9915TIP3    H251237   3.184   6.200  15.638 -0.3334  0.3701  0.5295
 9916TIP3   OH251238   1.549   6.499   3.409 -0.1179  0.1909  0.1587
 9916TIP3    H151239   1.480   6.433   3.408 -0.2961  0.3341  1.8941
 9916TIP3    H251240   1.503   6.581   3.425  0.2291  0.5919 -0.8552
 9917TIP3   OH251241   1.417   5.458   4.838  0.4873  0.1734 -0.5069
 9917TIP3    H151242   1.389   5.367   4.826 -0.6981  0.4462  0.1028
 9917TIP3    H251243   1.463   5.458   4.921  0.3460  0.1643 -0.4288
 9918TIP3   OH251244   0.926   3.018  14.683  0.6139 -0.6425 -0.2168
 9918TIP3    H151245   0.943   3.104  14.722  0.3171  0.1976 -1.9289
 9918TIP3    H251246   0.838   2.995  14.713  0.6930 -0.3688  0.2341
 9919TIP3   OH251247   2.525   3.410  13.427  0.2389  0.1448  0.0788
 9919TIP3    H151248   2.578   3.488  13.416 -2.7866  2.2154 -0.3624
 9919TIP3    H251249   2.448   3.440  13.475 -2.7045 -1.7804 -3.2242
 9920TIP3   OH251250   5.959   5.294  16.287 -0.1013 -0.2394 -0.0996
 9920TIP3    H151251   5.921   5.207  16.297 -1.6999  0.6238  1.8685
 9920TIP3    H251252   6.037   5.281  16.233 -1.3160 -2.5937 -1.3669
 9921TIP3   OH251253   3.885   6.005   3.877 -0.1425 -0.4847 -0.1427
 9921TIP3    H151254   3.934   5.931   3.914  0.9981 -0.2175 -1.0992
 9921TIP3    H251255   3.933   6.028   3.798 -1.3101  0.3764 -0.6058
 9922TIP3   OH251256   5.570   0.547   6.652  0.0546 -0.3068 -0.8702
 9922TIP3    H151257   5.503   0.546   6.720 -1.0822 -0.7393 -1.9950
 9922TIP3    H251258   5.546   0.621   6.595  0.2967 -0.7160 -1.5082
 9923TIP3   OH251259   2.492   4.450   2.148 -0.1024  0.6035 -0.3490
 9923TIP3    H151260   2.431   4.383   2.178 -1.0001  1.6750  0.2114
 9923TIP3    H251261   2.467   4.529   2.195  2.2910  0.8491  0.5851
 9924TIP3   OH251262   2.403   4.033  12.383  0.2443 -0.4511  0.2932
 9924TIP3    H151263   2.420   4.050  12.290  0.6939  0.6831  0.5773
 9924TIP3    H251264   2.381   4.118  12.419  2.1466 -0.4996  1.6628
 9925TIP3   OH251265   5.052   3.654  13.211 -0.3400 -0.4568  0.3029
 9925TIP3    H151266   5.114   3.705  13.158  0.0732 -3.1801 -1.9782
 9925TIP3    H251267   5.076   3.671  13.301  2.8813 -0.3886 -0.5287
 9926TIP3   OH251268   0.627   0.179  13.840  0.0596 -0.2146 -0.4211
 9926TIP3    H151269   0.683   0.245  13.797  0.5652  0.2491  0.9068
 9926TIP3    H251270   0.671   0.162  13.924 -1.2559 -0.6016  0.2034
 9927TIP3   OH251271   6.071   5.422   5.407 -0.0040  0.0459 -0.5421
 9927TIP3    H151272   6.093   5.498   5.354 -1.7025  0.0452 -1.2684
 9927TIP3    H251273   6.059   5.457   5.495 -1.2391  0.6887 -0.9658
 9928TIP3   OH251274   3.272   4.174  14.109 -0.3530 -0.2223 -0.1872
 9928TIP3    H151275   3.331   4.249  14.100  0.3544 -0.8193 -0.6024
 9928TIP3    H251276   3.262   4.163  14.203 -0.3058  0.2730 -0.1187
 9929TIP3   OH251277   2.238   4.642   4.739 -0.1186 -0.4771  0.9697
 9929TIP3    H151278   2.183   4.720   4.738 -0.0965 -0.4566 -1.1935
 9929TIP3    H251279   2.181   4.572   4.706  0.7250 -0.7494  0.0720
 9930TIP3   OH251280   4.180   4.575   5.584 -0.5353 -0.3953 -0.6249
 9930TIP3    H151281   4.120   4.576   5.658  0.2264  0.6262 -0.0092
 9930TIP3    H251282   4.261   4.615   5.617 -0.5669  1.1611 -2.3015
 9931TIP3   OH251283   5.603   2.447  13.100 -0.3979 -0.2254  0.1905
 9931TIP3    H151284   5.537   2.390  13.139 -0.7618  2.0108  2.9850
 9931TIP3    H251285   5.553   2.512  13.051 -0.1915  0.4968  0.9386
 9932TIP3   OH251286   5.007   1.133   4.744  0.0783 -0.1117 -0.1970
 9932TIP3    H151287   5.075   1.198   4.728  0.0763 -0.2625 -0.8523
 9932TIP3    H251288   5.052   1.048   4.737 -0.3206 -0.2395 -1.4578
 9933TIP3   OH251289   5.614   5.681   1.324 -1.0374  0.1176  0.0010
 9933TIP3    H151290   5.587   5.589   1.325 -0.3199 -0.1217 -1.4479
 9933TIP3    H251291   5.709   5.678   1.337 -0.6361  0.4749 -2.6220
 9934TIP3   OH251292   3.235   2.069   5.142 -0.3201  0.4374 -0.7600
 9934TIP3    H151293   3.235   2.155   5.101  0.9714  0.9526  0.2667
 9934TIP3    H251294   3.186   2.081   5.223  0.3960  0.3725 -0.3115
 9935TIP3   OH251295   4.704   4.791  11.184  0.3499  0.1899  0.2373
 9935TIP3    H151296   4.758   4.869  11.179  0.3001  0.1412 -1.3110
 9935TIP3    H251297   4.766   4.719  11.194  0.5478  0.2064 -0.7892
 9936TIP3   OH251298   1.376   4.925  17.278  0.3598  0.1990  0.0817
 9936TIP3    H151299   1.326   4.865  17.333  0.6737  1.2849  1.5679
 9936TIP3    H251300   1.309   4.970  17.225 -0.0904  0.4305  0.8414
 9937TIP3   OH251301   2.280   1.745  13.891  0.4619 -0.3627 -0.2353
 9937TIP3    H151302   2.215   1.690  13.935 -2.2544  2.1707 -0.9193
 9937TIP3    H251303   2.285   1.710  13.802  0.4956 -0.9510 -0.0026
 9938TIP3   OH251304   1.408   4.846  14.209  0.3792  0.1493 -0.5258
 9938TIP3    H151305   1.424   4.759  14.173 -2.0940 -0.7858  0.4483
 9938TIP3    H251306   1.314   4.846  14.231  0.8110  2.2323  1.6346
 9939TIP3   OH251307   6.202   5.179   4.171  0.0082 -0.2390 -0.6981
 9939TIP3    H151308   6.213   5.272   4.150 -3.8546  0.6234  0.5506
 9939TIP3    H251309   6.139   5.147   4.106 -0.8702 -1.2392  0.6122
 9940TIP3   OH251310   3.192   2.275  16.055  0.0346  0.5673  0.0888
 9940TIP3    H151311   3.106   2.236  16.070 -0.7355  1.8783 -0.8544
 9940TIP3    H251312   3.242   2.205  16.012 -1.0362  0.2773 -0.7269
 9941TIP3   OH251313   4.367   4.115   3.691 -0.5550  0.0277 -0.7860
 9941TIP3    H151314   4.457   4.147   3.697 -0.6393  0.0249  0.6110
 9941TIP3    H251315   4.374   4.020   3.698 -0.8200  0.1435  1.5363
 9942TIP3   OH251316   1.806   0.170  13.233 -0.4183  0.4940  0.0143
 9942TIP3    H151317   1.711   0.174  13.230 -0.4287  0.6789  0.4936
 9942TIP3    H251318   1.835   0.256  13.204 -0.4248  0.7954  0.8747
 9943TIP3   OH251319   3.168   0.941  11.468 -0.3400 -0.6970  0.2826
 9943TIP3    H151320   3.206   1.023  11.501 -2.0081 -0.1221  0.8264
 9943TIP3    H251321   3.215   0.872  11.515 -1.0904  0.0483  2.1750
 9944TIP3   OH251322   4.096   4.710  16.810 -0.0691 -0.2443  0.2704
 9944TIP3    H151323   4.168   4.772  16.800 -1.2036  0.9187 -0.8273
 9944TIP3    H251324   4.017   4.763  16.801 -1.0561 -1.8469 -0.8294
 9945TIP3   OH251325   2.842   5.582  10.583  0.5028  0.1523  0.6685
 9945TIP3    H151326   2.833   5.525  10.660 -1.5456  1.8128  1.7195
 9945TIP3    H251327   2.776   5.550  10.522  1.9316 -0.9751 -0.3279
 9946TIP3   OH251328   3.136   1.069  13.553  0.4714  0.3287 -0.0476
 9946TIP3    H151329   3.203   1.046  13.488  2.4978 -0.8736  2.4044
 9946TIP3    H251330   3.171   1.147  13.596  0.5401 -0.5828  1.5644
 9947TIP3   OH251331   5.302   5.857   1.671 -0.1331  0.5068 -0.4335
 9947TIP3    H151332   5.323   5.796   1.600 -0.3020  0.0313 -0.0768
 9947TIP3    H251333   5.233   5.813   1.720 -0.7248  1.2827 -0.5663
 9948TIP3   OH251334   3.034   0.089  13.638 -0.1486  0.7035 -0.3051
 9948TIP3    H151335   2.947   0.115  13.608 -0.1083  1.2607  0.0491
 9948TIP3    H251336   3.082   0.068  13.558 -0.6539  0.2433 -0.4925
 9949TIP3   OH251337   2.510   4.669  13.213 -0.7538 -0.3262  0.0801
 9949TIP3    H151338   2.500   4.592  13.156  0.1660 -0.2090 -0.2576
 9949TIP3    H251339   2.554   4.635  13.291 -0.0860 -0.0983 -0.1913
 9950TIP3   OH251340   3.518   4.669   2.920 -0.1186  0.5334  0.1341
 9950TIP3    H151341   3.548   4.682   2.831  0.2337 -0.0336  0.1670
 9950TIP3    H251342   3.571   4.597   2.953  0.6046  1.5471  1.2158
 9951TIP3   OH251343   3.231   2.315  15.350  0.0407 -0.2552  0.4632
 9951TIP3    H151344   3.277   2.389  15.389 -1.1831 -0.5525  2.5709
 9951TIP3    H251345   3.202   2.262  15.425 -3.7463 -0.0445 -0.7165
 9952TIP3   OH251346   4.399   4.377   2.432 -0.2105 -0.0018  0.1973
 9952TIP3    H151347   4.401   4.465   2.395 -0.5006 -0.0470  0.0736
 9952TIP3    H251348   4.415   4.390   2.526 -0.3741  0.1944  0.1981
 9953TIP3   OH251349   4.594   0.062  13.084 -0.0515  0.2432  0.5731
 9953TIP3    H151350   4.637  -0.004  13.138 -1.7391  0.0817  1.7838
 9953TIP3    H251351   4.607   0.033  12.994 -1.1264 -1.9710  1.1102
 9954TIP3   OH251352   6.420   4.984  16.124 -0.1055 -0.0297  0.1573
 9954TIP3    H151353   6.362   4.946  16.058  1.0941 -1.0965 -0.3054
 9954TIP3    H251354   6.368   5.053  16.165 -1.8321 -1.2422  0.0467
 9955TIP3   OH251355   4.133   4.014  15.612  0.4807 -0.5344 -0.1945
 9955TIP3    H151356   4.092   4.084  15.562  1.4309  0.2059  0.0547
 9955TIP3    H251357   4.068   3.990  15.678  0.1044  0.0225 -0.3610
 9956TIP3   OH251358   3.809   5.848  15.851  0.5200  0.0834  0.0957
 9956TIP3    H151359   3.875   5.796  15.899 -0.4706 -3.2802 -1.9879
 9956TIP3    H251360   3.729   5.838  15.902  0.3197 -0.5007 -0.3263
 9957TIP3   OH251361   1.293   4.523  15.896  0.2870  0.4020 -0.2760
 9957TIP3    H151362   1.303   4.590  15.829 -0.7759 -0.4513 -1.3168
 9957TIP3    H251363   1.216   4.549  15.946  0.7816  0.7678  0.3035
 9958TIP3   OH251364   6.395   0.648   0.037 -0.1517  0.4703 -0.1662
 9958TIP3    H151365   6.382   0.562  -0.003 -1.1332  0.2648  0.5895
 9958TIP3    H251366   6.409   0.630   0.130 -2.2702  1.2288  0.3429
 9959TIP3   OH251367   4.989   0.342  16.046 -0.6285 -0.4216  0.0512
 9959TIP3    H151368   4.989   0.396  16.125 -1.1266  0.0824 -0.2879
 9959TIP3    H251369   4.983   0.253  16.078 -2.0476 -0.1580  0.5583
 9960TIP3   OH251370   0.502   6.183  16.591  0.1136 -0.0738 -0.1709
 9960TIP3    H151371   0.563   6.242  16.636 -1.4220  0.3196  1.4590
 9960TIP3    H251372   0.520   6.097  16.627 -0.6804  0.1371  0.7386
 9961TIP3   OH251373   4.093   0.229  16.264  0.0507 -0.3402  0.3898
 9961TIP3    H151374   4.151   0.177  16.207  1.7713  1.2059  0.6746
 9961TIP3    H251375   4.146   0.305  16.289 -1.0719 -0.4361  3.1773
 9962TIP3   OH251376   3.384   1.099   5.455  0.6824  0.8289  0.5132
 9962TIP3    H151377   3.302   1.052   5.468  0.9181  0.1268 -0.4241
 9962TIP3    H251378   3.361   1.175   5.401  0.8121  0.0501 -0.6558
 9963TIP3   OH251379   0.077   5.463  12.684  0.0855  0.0105 -0.2577
 9963TIP3    H151380   0.076   5.468  12.780  0.6990 -0.6991 -0.2141
 9963TIP3    H251381   0.166   5.488  12.659  0.3200 -1.1215 -0.5685
 9964TIP3   OH251382   6.777   2.376   4.873 -0.4103 -0.1317 -0.3981
 9964TIP3    H151383   6.782   2.311   4.943  0.4240 -3.3462 -3.2815
 9964TIP3    H251384   6.867   2.403   4.859 -0.5069  0.0728 -0.6228
 9965TIP3   OH251385   1.617   0.512  14.902 -0.1099  0.1398 -0.3159
 9965TIP3    H151386   1.551   0.581  14.909  0.8447  1.0261 -0.1241
 9965TIP3    H251387   1.686   0.538  14.962 -0.9746 -2.3760  1.8922
 9966TIP3   OH251388   2.526   6.254  14.791  0.6565 -0.1701 -0.3110
 9966TIP3    H151389   2.608   6.257  14.742 -0.0499 -0.4335 -1.5364
 9966TIP3    H251390   2.513   6.344  14.821  0.8029  0.1322 -1.1289
 9967TIP3   OH251391   0.990   4.104   5.839  0.0018  0.0660 -0.4743
 9967TIP3    H151392   0.941   4.185   5.834 -0.6429 -0.1854  1.3589
 9967TIP3    H251393   0.989   4.069   5.750  2.0429  3.0474 -1.7467
 9968TIP3   OH251394   5.065   3.609   6.361 -0.2953  0.2259  0.2044
 9968TIP3    H151395   5.119   3.579   6.434 -1.2964  0.2857  0.9791
 9968TIP3    H251396   5.102   3.565   6.284 -0.3661 -1.2436  0.9960
 9969TIP3   OH251397   1.078   3.007   6.181 -0.3198  0.3092  0.5957
 9969TIP3    H151398   1.032   3.087   6.155 -0.2555 -0.2146 -1.2199
 9969TIP3    H251399   1.011   2.952   6.219 -0.5786  0.7919  0.8412
 9970TIP3   OH251400   5.403   4.050   2.390  0.0991  0.4318 -0.0565
 9970TIP3    H151401   5.355   3.971   2.414 -1.1914  1.2986  0.2958
 9970TIP3    H251402   5.470   4.059   2.457 -0.6958  0.4449  0.7465
 9971TIP3   OH251403   2.429   6.747  11.567  0.3150 -0.1240  0.2659
 9971TIP3    H151404   2.459   6.760  11.477 -0.1750 -0.2366  0.0858
 9971TIP3    H251405   2.493   6.687  11.606  0.1736 -0.5716 -0.1958
 9972TIP3   OH251406   6.441   0.558   5.018  0.6900  0.0596 -0.2777
 9972TIP3    H151407   6.455   0.508   5.098  2.5835  0.9431 -0.0408
 9972TIP3    H251408   6.436   0.491   4.949  1.0661 -0.5725  0.3040
 9973TIP3   OH251409   6.145   6.683  12.854  0.6552  0.1253  0.1878
 9973TIP3    H151410   6.138   6.590  12.876 -1.0953 -0.0474 -1.0339
 9973TIP3    H251411   6.201   6.684  12.776 -1.6993 -0.1824 -1.5456
 9974TIP3   OH251412   6.690   6.447   1.210 -0.1424 -0.5345  0.0676
 9974TIP3    H151413   6.639   6.520   1.173  0.3859 -1.2227 -2.0984
 9974TIP3    H251414   6.732   6.407   1.134  2.4432 -0.9023  1.6414
 9975TIP3   OH251415   2.337   5.585  13.830 -0.5130 -0.4343  0.0412
 9975TIP3    H151416   2.356   5.491  13.835  0.2951 -0.1629  2.3459
 9975TIP3    H251417   2.243   5.591  13.847 -0.4915 -0.7816  0.2929
 9976TIP3   OH251418   1.746   1.459   3.170  0.1924  0.2310  0.1684
 9976TIP3    H151419   1.754   1.403   3.248 -1.3524  0.8603  0.7833
 9976TIP3    H251420   1.670   1.425   3.124  0.6215  0.3872 -0.6646
 9977TIP3   OH251421   4.926   5.193  16.361  0.1720 -0.3510  0.0070
 9977TIP3    H151422   5.021   5.207  16.365  0.1211  0.2892 -1.0204
 9977TIP3    H251423   4.916   5.116  16.305  0.0340  0.1601 -0.6709
 9978TIP3   OH251424   0.025   0.382   1.431 -0.2740 -0.0924  0.0026
 9978TIP3    H151425   0.112   0.380   1.391 -0.2064 -1.4536  0.2062
 9978TIP3    H251426  -0.013   0.297   1.410 -1.1046  0.0389  0.9356
 9979TIP3   OH251427   1.764   5.166   1.045 -0.2709  0.2067  0.1721
 9979TIP3    H151428   1.677   5.134   1.070 -0.3354 -2.4590 -3.1550
 9979TIP3    H251429   1.751   5.204   0.958  1.6087  1.2284  0.3107
 9980TIP3   OH251430   2.392   5.321  13.892 -1.1235 -0.3888 -0.3160
 9980TIP3    H151431   2.376   5.247  13.834  0.3900 -0.5451 -0.5717
 9980TIP3    H251432   2.383   5.285  13.980 -0.8160 -0.7875 -0.4449
 9981TIP3   OH251433   6.648   4.490  13.865  0.2334 -0.3077  0.1962
 9981TIP3    H151434   6.713   4.472  13.797 -0.4749 -1.1387 -0.2731
 9981TIP3    H251435   6.665   4.425  13.933 -0.6695 -1.1200 -0.3352
 9982TIP3   OH251436   1.425   6.713  13.501  0.3827 -0.0612  0.1464
 9982TIP3    H151437   1.449   6.773  13.430  2.6495  0.4471  1.2991
 9982TIP3    H251438   1.333   6.690  13.483 -0.1979  2.8992 -0.9059
 9983TIP3   OH251439   5.706   0.076  14.843 -0.8442 -0.2223 -0.3365
 9983TIP3    H151440   5.767   0.127  14.896 -1.5009  0.2056  0.0223
 9983TIP3    H251441   5.641   0.140  14.814 -1.3243 -0.7404 -0.4054
 9984TIP3   OH251442   5.744   3.068   3.359  0.0392  0.0978  0.6682
 9984TIP3    H151443   5.812   3.017   3.403  0.6127 -0.5291 -0.9136
 9984TIP3    H251444   5.679   3.085   3.427  1.1669 -0.3826  1.8911
 9985TIP3   OH251445   1.412   5.883   4.838 -0.5666 -0.0293 -0.4419
 9985TIP3    H151446   1.468   5.877   4.915 -0.6669  1.7472 -0.1952
 9985TIP3    H251447   1.375   5.796   4.827 -1.3960 -0.0338  2.1632
 9986TIP3   OH251448   2.045   1.359   0.326 -0.0768 -0.1691 -0.2246
 9986TIP3    H151449   2.076   1.437   0.372  0.3310 -0.5627  0.1727
 9986TIP3    H251450   1.965   1.334   0.371  0.3954 -0.6338  0.3613
 9987TIP3   OH251451   3.252   2.977   4.985 -0.2650 -0.2983 -0.0696
 9987TIP3    H151452   3.250   2.881   4.982  3.0720 -0.4214 -0.3912
 9987TIP3    H251453   3.336   2.998   5.025 -0.2346  2.5146 -1.4872
 9988TIP3   OH251454   4.396   3.480  13.923  0.3070  0.4226  0.3741
 9988TIP3    H151455   4.463   3.414  13.939  0.9065  0.6593 -1.0689
 9988TIP3    H251456   4.367   3.507  14.010 -0.4666 -2.2556  0.9964
 9989TIP3   OH251457   3.479   0.413  12.642  0.6215  0.2521  0.4178
 9989TIP3    H151458   3.564   0.388  12.677  1.4748  1.8396 -0.5004
 9989TIP3    H251459   3.435   0.457  12.714  0.1525 -1.4763  1.2133
 9990TIP3   OH251460   0.613   3.096  11.518  0.1547  0.0911 -0.1114
 9990TIP3    H151461   0.561   3.125  11.443  1.0033 -0.2246 -0.8379
 9990TIP3    H251462   0.672   3.029  11.481  1.5700  0.9618  0.5365
 9991TIP3   OH251463   2.481   6.483  16.193  0.5076  0.1717  0.3991
 9991TIP3    H151464   2.442   6.527  16.269  1.7089  1.7193  0.1291
 9991TIP3    H251465   2.509   6.398  16.227  0.6786  0.6972  1.5959
 9992TIP3   OH251466   4.069   0.621  14.553 -0.0076  0.4813  0.2389
 9992TIP3    H151467   4.065   0.525  14.557 -1.3842  0.4929 -0.4550
 9992TIP3    H251468   4.070   0.648  14.645 -2.2131 -0.1324  0.4759
 9993TIP3   OH251469   0.347   3.220  15.093  0.5016 -0.7857  0.1666
 9993TIP3    H151470   0.283   3.278  15.051 -0.9760 -1.4626  1.4187
 9993TIP3    H251471   0.363   3.261  15.179 -0.2451 -1.9986  0.8916
 9994TIP3   OH251472   0.901   5.282  15.440  0.1523 -0.0707 -0.2187
 9994TIP3    H151473   0.950   5.211  15.398 -0.2874 -0.9784  0.8136
 9994TIP3    H251474   0.815   5.280  15.398 -0.2254 -0.8596  0.5763
 9995TIP3   OH251475   2.206   0.990   4.667  0.4095  0.2162 -0.1774
 9995TIP3    H151476   2.159   1.072   4.651  1.0514  0.1687 -2.5045
 9995TIP3    H251477   2.288   1.016   4.709 -0.4047  0.5369  1.2605
 9996TIP3   OH251478   6.143   5.873   5.885  0.8220  0.0640  0.2568
 9996TIP3    H151479   6.157   5.849   5.793 -0.5194 -1.0321  0.3285
 9996TIP3    H251480   6.197   5.812   5.935  1.5706  0.6755  0.2198
 9997TIP3   OH251481   0.942   0.733   2.515  0.7651 -0.1314  0.0601
 9997TIP3    H151482   0.852   0.703   2.510  0.2748  1.2237  0.4918
 9997TIP3    H251483   0.995   0.653   2.514 -0.3600 -0.8898 -1.7788
 9998TIP3   OH251484   1.344   3.037   0.487  0.3559 -0.4359  0.1825
 9998TIP3    H151485   1.306   3.106   0.541 -0.4621  0.1094 -1.0757
 9998TIP3    H251486   1.269   2.985   0.459  0.6983 -0.3196 -0.9702
 9999TIP3   OH251487   2.602   5.182   5.637 -0.2525 -0.3797 -0.3104
 9999TIP3    H151488   2.606   5.176   5.733 -0.4026  1.0721 -0.2008
 9999TIP3    H251489   2.512   5.160   5.615 -0.4743  0.2732 -0.0426
10000TIP3   OH251490   1.024   3.504   4.241 -0.1576 -0.5243 -0.2142
10000TIP3    H151491   0.933   3.530   4.222  0.0022 -0.0448 -0.3284
10000TIP3    H251492   1.077   3.570   4.197  0.2374  0.4949  1.7462
10001TIP3   OH251493   1.786   6.817  15.004 -0.9010  0.3941 -0.4123
10001TIP3    H151494   1.818   6.811  15.094 -0.0760  1.8616 -0.6031
10001TIP3    H251495   1.850   6.871  14.958 -1.2158 -0.4957 -1.9423
10002TIP3   OH251496   3.279   5.138   1.777  0.6069  0.0502 -0.0065
10002TIP3    H151497   3.220   5.200   1.821  0.8131  1.4045 -1.5988
10002TIP3    H251498   3.322   5.190   1.709  0.6193 -1.9001 -1.5282
10003TIP3   OH251499   3.120   2.607   3.864  0.0512  0.2066 -0.0141
10003TIP3    H151500   3.083   2.578   3.781 -1.4666  1.8220  0.0670
10003TIP3    H251501   3.167   2.688   3.843  1.1333 -0.3074  0.3950
10004TIP3   OH251502   1.638   6.616   5.242 -0.4559  0.8449 -0.1592
10004TIP3    H151503   1.642   6.548   5.310  1.2757 -0.7276 -1.7765
10004TIP3    H251504   1.686   6.690   5.279 -1.3977  0.8137  1.1710
10005TIP3   OH251505   1.460   3.781   3.273 -0.0793 -0.8108  0.0093
10005TIP3    H151506   1.424   3.836   3.343  0.5940 -1.0207  0.5275
10005TIP3    H251507   1.487   3.701   3.318  1.3291 -0.5342 -0.3129
10006TIP3   OH251508   2.384   0.574   1.696  0.8763 -0.2918  0.3376
10006TIP3    H151509   2.347   0.486   1.705 -0.3645  0.0527 -1.2212
10006TIP3    H251510   2.434   0.571   1.615  2.0083  0.0558  1.0074
10007TIP3   OH251511   3.301   5.665  13.603  0.2365  0.3743  0.2067
10007TIP3    H151512   3.319   5.576  13.573 -0.3681  0.2127  0.3097
10007TIP3    H251513   3.230   5.655  13.667  0.5575  0.8692  0.6443
10008TIP3   OH251514   3.226   6.240   3.108 -0.4972 -0.3558  0.0245
10008TIP3    H151515   3.317   6.248   3.134 -0.7477 -1.4855  1.3316
10008TIP3    H251516   3.176   6.277   3.181 -1.1247 -1.2972  0.0922
10009TIP3   OH251517   2.581   5.578   3.312 -0.0553 -0.5355  0.0655
10009TIP3    H151518   2.660   5.577   3.258 -0.0318 -1.2560  0.1045
10009TIP3    H251519   2.593   5.653   3.370  0.0730  0.0438 -0.6960
10010TIP3   OH251520   4.569   4.800   2.953 -0.0084  0.2495  0.0452
10010TIP3    H151521   4.568   4.891   2.981  0.2008  0.8197 -1.7128
10010TIP3    H251522   4.478   4.780   2.931  0.6229  1.6396 -4.3597
10011TIP3   OH251523   3.216   0.222  14.841 -0.0085  0.1551  0.1346
10011TIP3    H151524   3.310   0.234  14.852 -0.1806  0.9344  0.8343
10011TIP3    H251525   3.186   0.186  14.924 -0.0358 -1.9490 -0.7720
10012TIP3   OH251526   4.134   3.911   2.831  0.9411  0.5177 -0.4286
10012TIP3    H151527   4.052   3.937   2.787 -0.1442 -1.2239  0.5030
10012TIP3    H251528   4.178   3.856   2.767  1.2080  1.1416 -0.7870
10013TIP3   OH251529   1.196   5.604  13.197  0.2708 -0.8413 -0.8779
10013TIP3    H151530   1.180   5.695  13.223  3.4363 -0.9188  1.7954
10013TIP3    H251531   1.131   5.586  13.130 -2.8832  2.1908  1.1926
10014TIP3   OH251532   1.646   6.053  15.839  0.2140 -0.3213  0.0930
10014TIP3    H151533   1.622   6.144  15.860 -0.2852 -0.3606 -0.2791
10014TIP3    H251534   1.594   6.033  15.761  0.1415 -1.0093  0.3208
10015TIP3   OH251535   4.370   2.017  11.310 -0.3502 -0.0260 -0.4089
10015TIP3    H151536   4.328   2.007  11.224  1.3704  2.6003 -1.6075
10015TIP3    H251537   4.299   2.041  11.369 -1.0833  1.1468 -1.7427
10016TIP3   OH251538   2.758   4.865  12.347  0.3813  0.1041  0.3433
10016TIP3    H151539   2.834   4.821  12.385  1.2511  1.3423  0.0993
10016TIP3    H251540   2.776   4.867  12.253 -1.1152 -1.7448  0.0003
10017TIP3   OH251541   6.693   2.765   3.269  0.4323  0.0148  0.0366
10017TIP3    H151542   6.733   2.844   3.306  2.2614 -0.6851 -0.3976
10017TIP3    H251543   6.611   2.796   3.231  2.2085  2.2000 -2.2157
10018TIP3   OH251544   5.537   2.628  11.968  0.0646 -0.5306 -0.1388
10018TIP3    H151545   5.481   2.632  11.890  0.9660 -1.1341 -0.8310
10018TIP3    H251546   5.529   2.714  12.008  1.2126  0.5075 -2.0657
10019TIP3   OH251547   6.470   1.319   1.912 -0.2834 -0.1386  0.7164
10019TIP3    H151548   6.492   1.411   1.893 -0.2713 -0.2720  0.0760
10019TIP3    H251549   6.402   1.324   1.979  1.3009  0.2985  2.3277
10020TIP3   OH251550   1.364   1.020   4.866  0.1616 -0.2815 -0.1288
10020TIP3    H151551   1.327   1.015   4.778 -1.6903 -1.9170  0.7031
10020TIP3    H251552   1.456   0.997   4.855 -0.3604 -1.8350 -1.4600
10021TIP3   OH251553   3.296   5.245   2.427  0.2308 -0.3356  0.0216
10021TIP3    H151554   3.298   5.341   2.435  1.2872 -0.5996  3.7451
10021TIP3    H251555   3.205   5.221   2.444  0.7220 -0.2138  3.0715
10022TIP3   OH251556   6.668   4.692   4.317 -0.2101  0.3057 -0.1471
10022TIP3    H151557   6.666   4.687   4.413  0.7025 -0.7234 -0.1699
10022TIP3    H251558   6.754   4.658   4.294 -1.2440 -1.5130 -1.4458
10023TIP3   OH251559   2.071   5.481   2.431  0.1123  0.2613 -0.3786
10023TIP3    H151560   2.099   5.441   2.349  2.8153  0.2133  0.5177
10023TIP3    H251561   2.044   5.407   2.486 -1.9470  0.3137 -1.2621
10024TIP3   OH251562   1.091   1.744   4.720 -0.0267  0.0440 -0.8155
10024TIP3    H151563   1.118   1.781   4.804 -1.9654  0.8471 -0.5296
10024TIP3    H251564   1.113   1.811   4.655 -1.9606  1.0246 -0.4947
10025TIP3   OH251565   4.480   4.459  13.153  0.8281 -0.0728  0.1483
10025TIP3    H151566   4.460   4.516  13.227  1.2444  0.4749 -0.1561
10025TIP3    H251567   4.529   4.514  13.093  1.2692 -0.7658 -0.1361
10026TIP3   OH251568   3.716   0.352  14.156 -0.0984  0.0373  0.0156
10026TIP3    H151569   3.770   0.333  14.079  0.6531  1.2588  0.2270
10026TIP3    H251570   3.693   0.265  14.191  0.7148 -0.5166 -0.7855
10027TIP3   OH251571   5.828   4.217   1.111  0.8287 -0.5835  0.1526
10027TIP3    H151572   5.852   4.309   1.097 -0.9628 -0.0572  0.3306
10027TIP3    H251573   5.866   4.195   1.196  2.3328 -0.3928 -0.4604
10028TIP3   OH251574   2.981   5.251   5.509 -0.1646  0.1129 -0.2179
10028TIP3    H151575   2.922   5.196   5.457  0.1428 -0.0015 -0.4449
10028TIP3    H251576   2.925   5.289   5.576 -0.4626 -0.1448 -0.3193
10029TIP3   OH251577   5.963   3.881  11.099 -0.0590  0.1343  0.1169
10029TIP3    H151578   5.937   3.794  11.069 -0.3497  0.9164 -1.9463
10029TIP3    H251579   6.053   3.892  11.069 -0.3020  0.8677 -0.3571
10030TIP3   OH251580   3.036   1.760   0.160  0.2998 -0.1372  0.1275
10030TIP3    H151581   3.121   1.716   0.153  0.3677  0.3549 -2.7321
10030TIP3    H251582   2.973   1.698   0.124  0.0475  1.0059 -1.5072
10031TIP3   OH251583   0.398   4.405   1.473  0.0849  0.2627 -0.3810
10031TIP3    H151584   0.381   4.354   1.552  0.8879  1.6620  0.7078
10031TIP3    H251585   0.483   4.376   1.442 -1.0814 -1.6944 -1.8709
10032TIP3   OH251586   3.929   6.251   0.880 -0.4432 -0.3140 -0.3292
10032TIP3    H151587   3.848   6.200   0.892 -0.4299 -0.5977 -1.3637
10032TIP3    H251588   3.938   6.259   0.785  1.0767 -0.7989 -0.2348
10033TIP3   OH251589   2.652   5.713  17.004 -0.2284 -0.1878  0.3042
10033TIP3    H151590   2.631   5.704  17.097  1.6461 -1.0229  0.6662
10033TIP3    H251591   2.720   5.648  16.988 -0.4700  0.0084 -1.6415
10034TIP3   OH251592   2.777   3.710  14.377  0.6777 -0.6040 -0.1050
10034TIP3    H151593   2.740   3.645  14.437  0.2930 -0.0691  0.2400
10034TIP3    H251594   2.867   3.681  14.364  1.3529  0.3159  2.2451
10035TIP3   OH251595   5.751   2.333   1.611  0.7544 -0.2628  0.3671
10035TIP3    H151596   5.826   2.382   1.647  0.9512 -0.6134  0.4363
10035TIP3    H251597   5.783   2.300   1.527 -0.3594  2.2767 -1.1174
10036TIP3   OH251598   1.944   6.584  12.754 -0.1880  0.2506 -0.2856
10036TIP3    H151599   1.976   6.527  12.824 -1.1266  0.9732  0.7423
10036TIP3    H251600   1.860   6.617  12.786  0.6678  2.7759 -0.5267
10037TIP3   OH251601   3.839   2.140  16.260  0.4468 -0.1966 -0.2049
10037TIP3    H151602   3.887   2.058  16.270  0.7208 -0.1819 -1.3339
10037TIP3    H251603   3.792   2.131  16.177  1.2108  1.1464 -0.8009
10038TIP3   OH251604   4.754   1.401   3.026  0.0208  0.2466 -0.5744
10038TIP3    H151605   4.758   1.490   2.991  0.9798  0.4172 -0.0307
10038TIP3    H251606   4.746   1.345   2.948 -3.0661  0.9177 -0.8229
10039TIP3   OH251607   3.272   4.228  11.673  0.4572  0.2276  0.6450
10039TIP3    H151608   3.297   4.256  11.585 -0.8403 -1.8648 -0.4151
10039TIP3    H251609   3.240   4.308  11.715  0.7824  1.1851 -0.8820
10040TIP3   OH251610   1.952   6.380  11.778  0.8305  0.6349 -0.1473
10040TIP3    H151611   2.012   6.360  11.850  1.7833 -0.6600 -1.2691
10040TIP3    H251612   1.867   6.348  11.808  0.9748  1.2220  0.8951
10041TIP3   OH251613   5.013   0.595  12.398  0.2306  0.0619 -0.2942
10041TIP3    H151614   5.082   0.541  12.359  2.0779  0.9933  1.5435
10041TIP3    H251615   5.002   0.558  12.486 -2.5565 -0.8751 -1.0117
10042TIP3   OH251616   5.977   4.853   1.406 -0.2216 -0.0358  0.1194
10042TIP3    H151617   5.985   4.915   1.334 -0.2656  0.8836  0.8905
10042TIP3    H251618   6.063   4.854   1.448 -0.2558 -0.4175  0.2055
10043TIP3   OH251619   2.178   0.113  13.800 -0.6654  0.6432  0.1390
10043TIP3    H151620   2.234   0.185  13.828  0.8113 -0.3393 -0.2055
10043TIP3    H251621   2.157   0.066  13.881 -1.1547  1.1316  0.2947
10044TIP3   OH251622   4.765   2.246   1.099  0.0499 -0.3954 -0.1934
10044TIP3    H151623   4.701   2.305   1.059  1.6163  1.1415 -0.5071
10044TIP3    H251624   4.713   2.189   1.156 -1.4763  1.5583  0.4402
10045TIP3   OH251625   4.105   4.528   2.444  0.3026 -0.4387  0.5765
10045TIP3    H151626   4.132   4.491   2.360 -0.4814 -0.9990  0.5692
10045TIP3    H251627   4.031   4.474   2.472 -1.3816  1.5939  0.1868
10046TIP3   OH251628   0.898   5.067   0.344 -0.2516  0.0701  0.4265
10046TIP3    H151629   0.868   4.979   0.319 -0.2423  0.2672 -0.2648
10046TIP3    H251630   0.985   5.052   0.382  0.4033 -0.0359 -1.0968
10047TIP3   OH251631   3.656   4.122  16.094  0.1723 -0.2885  0.4573
10047TIP3    H151632   3.733   4.085  16.137 -0.0897 -1.8689 -0.3990
10047TIP3    H251633   3.624   4.052  16.037  0.1897  1.5510 -1.8862
10048TIP3   OH251634   2.709   5.341   2.802  0.3880 -0.6820  0.0603
10048TIP3    H151635   2.677   5.420   2.844 -0.8836 -0.6027 -1.0035
10048TIP3    H251636   2.712   5.275   2.872 -0.1078 -0.1260  0.6060
10049TIP3   OH251637   3.844   6.365  16.505  0.0864  0.3014 -0.7215
10049TIP3    H151638   3.841   6.366  16.410  2.6765  1.0262 -0.8374
10049TIP3    H251639   3.918   6.308  16.526 -0.1041  0.6105  0.8451
10050TIP3   OH251640   4.010   4.499  11.508  0.1295  0.5083  0.6965
10050TIP3    H151641   3.972   4.569  11.561  3.0601  1.9703  0.9866
10050TIP3    H251642   4.096   4.533  11.481  0.7041 -2.1047 -1.0062
10051TIP3   OH251643   3.849   4.416   5.653 -0.4539 -0.0018 -0.0249
10051TIP3    H151644   3.805   4.480   5.596  1.2115  0.0873 -1.2355
10051TIP3    H251645   3.927   4.462   5.683 -0.4682 -0.6547  1.0211
10052TIP3   OH251646   5.370   4.717  11.834 -0.4628  0.5995 -0.1576
10052TIP3    H151647   5.352   4.755  11.920  0.1129  0.3967  0.0550
10052TIP3    H251648   5.463   4.696  11.836  0.1825  3.1271 -1.8609
10053TIP3   OH251649   1.684   4.714  16.788  0.1543 -0.0335  0.1282
10053TIP3    H151650   1.779   4.702  16.795  0.3741  1.7757  0.4341
10053TIP3    H251651   1.667   4.795  16.835 -1.4732 -0.0082 -0.4926
10054TIP3   OH251652   3.487   2.928   0.552  0.2051 -0.0536  0.5480
10054TIP3    H151653   3.479   2.953   0.644  1.3379  1.1695  0.3386
10054TIP3    H251654   3.576   2.954   0.528 -0.1602 -0.1268 -0.9643
10055TIP3   OH251655   2.838   5.147  11.230  0.6248  0.2097 -0.1166
10055TIP3    H151656   2.789   5.106  11.160  0.7390  0.8577 -0.5868
10055TIP3    H251657   2.929   5.122  11.214  0.5282 -0.4626  0.3800
10056TIP3   OH251658   0.289   0.626  16.428  0.2576 -0.5534  0.3434
10056TIP3    H151659   0.245   0.711  16.437  0.3984 -0.5366  0.8918
10056TIP3    H251660   0.311   0.601  16.518  0.8917 -0.8162  0.1190
10057TIP3   OH251661   0.024   5.146  14.413  0.4246 -0.3104 -0.4958
10057TIP3    H151662  -0.054   5.133  14.466  0.2419  1.5581 -0.2920
10057TIP3    H251663   0.084   5.195  14.469  0.2090  1.7429 -1.9924
10058TIP3   OH251664   0.950   2.446  16.003 -0.0183  0.3367  0.1024
10058TIP3    H151665   1.033   2.403  16.026 -0.6642 -0.8355  0.2506
10058TIP3    H251666   0.892   2.426  16.077 -0.0323  2.3137  0.6576
10059TIP3   OH251667   3.315   3.012  14.385 -0.2184  0.1830  0.1187
10059TIP3    H151668   3.352   3.071  14.451  0.3055  1.2521 -1.1081
10059TIP3    H251669   3.342   2.924  14.412  0.5290  0.6777  0.9641
10060TIP3   OH251670   5.753   6.290   5.291 -0.1420  0.0511  0.0605
10060TIP3    H151671   5.757   6.385   5.294  3.1464 -0.0398  0.8622
10060TIP3    H251672   5.739   6.269   5.198  0.2550  1.2833 -0.2769
10061TIP3   OH251673   3.143   4.670  12.740 -0.4248  0.3980 -0.2429
10061TIP3    H151674   3.167   4.682  12.648 -1.7933  0.8378 -0.5489
10061TIP3    H251675   3.148   4.575  12.754 -0.6249  0.2929 -0.8808
10062TIP3   OH251676   1.307   5.584  10.869 -0.2480  0.4324  0.4575
10062TIP3    H151677   1.396   5.611  10.893 -0.8175  3.6069 -0.7393
10062TIP3    H251678   1.256   5.600  10.947 -0.4162  2.1338  0.0229
10063TIP3   OH251679   6.781   1.866   5.432 -0.2339  0.5074 -0.2062
10063TIP3    H151680   6.828   1.800   5.381 -0.5713  0.5245 -0.5358
10063TIP3    H251681   6.766   1.938   5.371  0.0901  0.8726  0.1397
10064TIP3   OH251682   0.938   4.071  13.014  0.8155 -0.0905 -0.5500
10064TIP3    H151683   0.895   4.139  13.066 -0.3638 -0.9359 -0.4185
10064TIP3    H251684   1.012   4.043  13.067  1.5091  1.2978 -0.7354
10065TIP3   OH251685   5.950   0.733   0.974 -0.1079 -0.2113 -0.0233
10065TIP3    H151686   5.976   0.718   0.883  1.0905 -1.6324  0.5229
10065TIP3    H251687   5.872   0.679   0.987 -0.2955  0.0149 -0.2158
10066TIP3   OH251688   1.657   3.681   4.977  0.3599 -0.3366  0.1913
10066TIP3    H151689   1.605   3.608   4.942  0.8751  0.0106 -1.3519
10066TIP3    H251690   1.594   3.753   4.985  0.4355 -0.1371 -0.9595
10067TIP3   OH251691   2.876   0.259  12.494 -0.0956  0.3933  0.5568
10067TIP3    H151692   2.901   0.257  12.401  0.7803  0.5655  0.7874
10067TIP3    H251693   2.871   0.167  12.520 -0.1810  0.3487  0.3829
10068TIP3   OH251694   1.681   2.456   3.155  0.0488 -0.1488  0.6299
10068TIP3    H151695   1.591   2.441   3.127  0.3821 -0.9475 -0.0321
10068TIP3    H251696   1.696   2.390   3.223  0.3252 -0.4209  0.3087
10069TIP3   OH251697   2.358   1.910   4.210  0.1739 -0.7637 -1.3000
10069TIP3    H151698   2.300   1.963   4.154 -0.2297 -1.0752 -1.1817
10069TIP3    H251699   2.299   1.850   4.255  0.4091 -0.0255  0.0138
10070TIP3   OH251700   1.435   3.579   5.458  0.1881 -0.2423  0.0756
10070TIP3    H151701   1.451   3.617   5.372  1.0868 -0.9732 -0.0887
10070TIP3    H251702   1.413   3.654   5.514  0.9825  0.3948 -0.4603
10071TIP3   OH251703   2.839   4.839   1.399  0.4563 -0.0606 -0.2366
10071TIP3    H151704   2.824   4.782   1.475 -2.3133 -1.0083 -1.4709
10071TIP3    H251705   2.895   4.909   1.434  3.3510 -3.0669  1.4870
10072TIP3   OH251706   2.175   4.873  13.620  0.3337 -0.3193 -0.2968
10072TIP3    H151707   2.170   4.840  13.530  3.4217  0.5147 -0.8196
10072TIP3    H251708   2.141   4.962  13.615 -0.2211 -0.5389 -0.4732
10073TIP3   OH251709   2.664   4.810   5.419 -0.1173  0.3227 -0.3123
10073TIP3    H151710   2.713   4.753   5.479 -1.1213  0.2722  0.4740
10073TIP3    H251711   2.579   4.822   5.462 -1.4489 -1.0353 -2.4666
10074TIP3   OH251712   1.474   5.354   1.198  0.4294  0.0592  0.2643
10074TIP3    H151713   1.472   5.437   1.150  1.2785 -0.3308 -0.4496
10074TIP3    H251714   1.463   5.380   1.290  0.6394  0.9587  0.0450
10075TIP3   OH251715   3.584   6.417   5.187 -0.0847 -0.0924 -1.0756
10075TIP3    H151716   3.617   6.497   5.146  0.1074  0.3029 -0.1550
10075TIP3    H251717   3.489   6.428   5.189 -0.0904 -0.0820 -1.3373
10076TIP3   OH251718   5.818   6.037  12.982 -0.2492 -0.6076 -0.4312
10076TIP3    H151719   5.888   5.992  13.030  0.2359  1.1890  0.6236
10076TIP3    H251720   5.778   5.970  12.928  0.3804 -2.3070  1.1722
10077TIP3   OH251721   2.603   4.734  14.222 -0.2789  0.5118  0.1608
10077TIP3    H151722   2.638   4.668  14.281  0.1781  0.7946  0.2057
10077TIP3    H251723   2.587   4.810  14.279 -0.7581  0.4615  0.1032
10078TIP3   OH251724   1.023   1.372  15.223 -0.1439 -0.1584  0.3937
10078TIP3    H151725   1.030   1.415  15.309  0.3959  1.4385 -0.4246
10078TIP3    H251726   1.093   1.307  15.223  0.5116  0.5433  0.7638
10079TIP3   OH251727   2.227   3.739   1.294  0.2363 -0.0943 -0.3832
10079TIP3    H151728   2.162   3.679   1.257  0.4570  0.2638 -1.3751
10079TIP3    H251729   2.307   3.687   1.299 -0.4256 -0.9574  2.1271
10080TIP3   OH251730   1.966   6.739   0.842 -1.0972 -0.1449 -0.6128
10080TIP3    H151731   2.019   6.819   0.843 -1.4139  0.0498  0.7226
10080TIP3    H251732   2.030   6.668   0.841 -0.8122  0.1081 -0.4680
10081TIP3   OH251733   0.134   3.024   5.017 -0.0115  0.3727  0.2177
10081TIP3    H151734   0.194   3.070   4.959 -0.6858  0.2012 -0.6323
10081TIP3    H251735   0.056   3.080   5.020  0.3248  0.7875  1.6205
10082TIP3   OH251736   4.579   0.872  12.973  0.1993  0.7352 -0.0411
10082TIP3    H151737   4.557   0.818  12.897  0.4689  0.4958  0.0523
10082TIP3    H251738   4.522   0.949  12.965 -1.2254 -0.2097  0.5829
10083TIP3   OH251739   2.680   0.605  12.772  0.1099  0.1971  0.0885
10083TIP3    H151740   2.618   0.555  12.718 -0.8435  1.2984  0.1200
10083TIP3    H251741   2.657   0.583  12.862 -0.0650  0.4009  0.0946
10084TIP3   OH251742   1.136   5.687  10.667  0.1488  0.2271 -0.5461
10084TIP3    H151743   1.202   5.660  10.730 -0.4302  0.6250  0.2398
10084TIP3    H251744   1.182   5.747  10.608  0.5154  0.4192 -0.0682
10085TIP3   OH251745   0.516   2.153  13.277  0.0778  0.1920 -0.1255
10085TIP3    H151746   0.444   2.111  13.325 -1.6505 -1.3010 -3.8081
10085TIP3    H251747   0.489   2.245  13.269  0.3859  0.4548  1.7068
10086TIP3   OH251748   5.656   0.034  12.680 -0.5733 -0.3389 -0.3000
10086TIP3    H151749   5.587   0.098  12.695 -0.0142  0.2750 -0.3215
10086TIP3    H251750   5.621  -0.024  12.612 -0.6576  0.5985 -1.0728
10087TIP3   OH251751   3.837   1.129  11.841 -0.0378  0.5918 -0.4211
10087TIP3    H151752   3.919   1.169  11.871  0.9208 -1.2963 -0.4683
10087TIP3    H251753   3.778   1.136  11.917  2.2843 -3.9381  2.0218
10088TIP3   OH251754   1.744   2.617   3.444 -0.1521  0.5350  0.0431
10088TIP3    H151755   1.838   2.632   3.459 -0.1733  0.8065 -0.0905
10088TIP3    H251756   1.740   2.584   3.355 -0.3730  2.5598 -0.7340
10089TIP3   OH251757   2.616   0.625   5.884 -0.2510  0.4105  0.1235
10089TIP3    H151758   2.586   0.632   5.974 -1.8613  1.5298 -0.4801
10089TIP3    H251759   2.711   0.637   5.889 -0.5687  2.6181  1.4306
10090TIP3   OH251760   0.346   1.350  11.263  0.1327 -0.2530 -0.2069
10090TIP3    H151761   0.415   1.332  11.200 -0.5295  0.4594 -1.1508
10090TIP3    H251762   0.265   1.322  11.221 -0.2022 -0.7806  0.7568
10091TIP3   OH251763   5.956   4.861  13.611 -0.2808 -0.4572  0.0660
10091TIP3    H151764   6.039   4.875  13.565 -0.7631  0.7169 -0.4697
10091TIP3    H251765   5.914   4.789  13.563  0.0591 -0.5028 -0.1659
10092TIP3   OH251766   5.560   1.892  14.398 -0.4426  0.1742  0.2044
10092TIP3    H151767   5.489   1.846  14.352  0.6000 -1.2658  0.0100
10092TIP3    H251768   5.519   1.924  14.478 -1.1127 -1.4452  0.5278
10093TIP3   OH251769   1.915   5.965  12.474 -0.6127 -0.2157 -0.2444
10093TIP3    H151770   1.906   6.045  12.421  0.1321  1.2501  1.7953
10093TIP3    H251771   2.009   5.953  12.485 -0.7593 -0.0768  1.3362
10094TIP3   OH251772   5.231   4.156  11.026  0.4816 -0.4982  0.0956
10094TIP3    H151773   5.228   4.103  10.947  2.5358  0.7980 -0.9138
10094TIP3    H251774   5.280   4.103  11.089  0.5886 -0.7325 -0.1831
10095TIP3   OH251775   0.798   4.659  15.236 -0.2327  0.1553  0.5251
10095TIP3    H151776   0.776   4.669  15.329  1.1992  0.2584  0.8540
10095TIP3    H251777   0.737   4.717  15.191 -0.0389  1.1329  1.5087
10096TIP3   OH251778   1.331   5.197   0.573  0.0233 -0.1393 -0.5926
10096TIP3    H151779   1.403   5.257   0.591 -1.5954  1.5093  0.5183
10096TIP3    H251780   1.310   5.159   0.658 -4.0580  3.5907  0.2254
10097TIP3   OH251781   5.144   5.055  13.117 -0.0241  0.1639 -0.1723
10097TIP3    H151782   5.237   5.033  13.108  0.0700  1.0209 -1.5347
10097TIP3    H251783   5.112   5.058  13.027 -2.0895 -3.0598  0.3880
10098TIP3   OH251784   1.321   5.784  13.455 -0.2842  0.1352 -0.7214
10098TIP3    H151785   1.230   5.775  13.484  0.2392  0.3012  1.0825
10098TIP3    H251786   1.345   5.873  13.479  0.3092  0.1425 -1.3413
10099TIP3   OH251787   0.599   2.902   6.256  0.2038  0.0008 -0.3354
10099TIP3    H151788   0.553   2.825   6.223 -0.0304  0.2578 -0.6067
10099TIP3    H251789   0.637   2.943   6.179  1.6658 -0.7008 -0.0224
10100TIP3   OH251790   3.377   1.198  14.327  0.4297 -0.3704  0.6520
10100TIP3    H151791   3.404   1.109  14.304 -0.3841 -1.1415  2.5270
10100TIP3    H251792   3.458   1.242  14.351  0.7723 -0.7869  0.2672
10101TIP3   OH251793   3.755   0.846  13.408 -0.4512  0.0798  0.3004
10101TIP3    H151794   3.667   0.834  13.444 -1.0916 -2.2226 -1.8080
10101TIP3    H251795   3.740   0.888  13.323  0.5517  0.3765  0.2683
10102TIP3   OH251796   0.339   1.387  13.920  0.3212  0.2250  0.5073
10102TIP3    H151797   0.244   1.379  13.913  0.3976 -1.2779  1.0114
10102TIP3    H251798   0.352   1.462  13.978 -0.5111  1.9255 -1.4528
10103TIP3   OH251799   5.644   1.023   5.775  0.6062 -0.1269 -0.0763
10103TIP3    H151800   5.680   0.994   5.859  2.4788  1.9353 -0.1549
10103TIP3    H251801   5.550   1.005   5.783  0.7739 -0.0994  2.4025
10104TIP3   OH251802   4.376   2.731   0.116  0.2631  0.2853 -0.4183
10104TIP3    H151803   4.403   2.681   0.192 -0.0680  0.0372 -0.4633
10104TIP3    H251804   4.297   2.687   0.085 -0.0055  0.8131 -0.4811
10105TIP3   OH251805   0.893   1.725   1.998  0.0072  0.3365  0.3543
10105TIP3    H151806   0.966   1.710   1.939 -0.4337 -1.1570  0.1613
10105TIP3    H251807   0.910   1.810   2.037  1.0672  0.6721 -0.8134
10106TIP3   OH251808   0.027   4.032   3.043  0.4453 -0.0064  0.1305
10106TIP3    H151809   0.016   3.986   3.126 -2.7977 -0.3703 -0.4351
10106TIP3    H251810  -0.043   4.097   3.042  0.2757 -0.1838 -2.4469
10107TIP3   OH251811   2.014   3.922   0.901  0.3494 -0.1285 -0.0989
10107TIP3    H151812   1.950   3.984   0.934 -0.1135 -0.4262 -0.4329
10107TIP3    H251813   2.075   3.975   0.850  0.5034  0.1878  0.4138
10108TIP3   OH251814   4.846   1.813  11.541  0.3068 -0.5712  0.2062
10108TIP3    H151815   4.845   1.874  11.615  0.2263 -1.0690  0.6156
10108TIP3    H251816   4.938   1.809  11.515  0.4760 -1.1391  0.8941
10109TIP3   OH251817   4.989   5.670  13.936 -0.1605  0.8008  0.6035
10109TIP3    H151818   4.916   5.610  13.953 -0.4884  0.6027 -1.3454
10109TIP3    H251819   4.955   5.756  13.960 -1.2085  0.7643 -0.6688
10110TIP3   OH251820   6.531   5.559   4.187 -0.5831  0.0600  0.9518
10110TIP3    H151821   6.568   5.576   4.101 -0.5957  1.7137  1.2596
10110TIP3    H251822   6.586   5.490   4.224 -0.5949 -0.6780 -0.3755
10111TIP3   OH251823   3.505   1.615   5.126 -0.5289  0.1699  0.1609
10111TIP3    H151824   3.505   1.700   5.083  1.5493 -1.1530 -2.6089
10111TIP3    H251825   3.474   1.554   5.059  0.0041 -1.5603  1.4537
10112TIP3   OH251826   5.989   0.704   4.079  0.1920  0.1452 -0.3551
10112TIP3    H151827   6.067   0.650   4.091  1.1155  0.9812 -2.4385
10112TIP3    H251828   6.011   0.788   4.119 -0.0701  0.0108  0.0739
10113TIP3   OH251829   3.687   1.829  14.312 -0.2670 -1.0928 -0.0318
10113TIP3    H151830   3.720   1.871  14.391 -0.5095  2.3734 -1.6558
10113TIP3    H251831   3.763   1.823  14.254 -1.1105  1.3167 -1.4824
10114TIP3   OH251832   3.271   0.513  16.740  0.3345 -0.3157  0.0634
10114TIP3    H151833   3.312   0.442  16.691 -2.0554 -1.0513 -0.9402
10114TIP3    H251834   3.242   0.473  16.822 -0.4522 -0.3892 -0.2394
10115TIP3   OH251835   1.573   1.322   0.859  0.0405  0.9021 -0.2100
10115TIP3    H151836   1.549   1.412   0.882 -1.0786  0.0586  2.0254
10115TIP3    H251837   1.500   1.269   0.889  1.3186 -0.9045 -0.2049
10116TIP3   OH251838   4.384   5.970  15.824  0.1922  0.0336  0.0284
10116TIP3    H151839   4.337   5.934  15.749 -0.0995  0.4253  0.0225
10116TIP3    H251840   4.316   5.979  15.892 -0.5670  4.1001 -1.1418
10117TIP3   OH251841   0.727   3.450  11.169  0.2014 -0.4288 -0.1961
10117TIP3    H151842   0.660   3.385  11.147  1.0365 -1.3820  0.0435
10117TIP3    H251843   0.693   3.494  11.246  0.0202 -1.1649  0.1524
10118TIP3   OH251844   1.456   4.406   5.359 -0.2355 -0.1063  0.1839
10118TIP3    H151845   1.494   4.466   5.423 -0.0164 -1.5544  1.4387
10118TIP3    H251846   1.532   4.366   5.316 -0.3827  0.2343 -0.4033
10119TIP3   OH251847   6.224   2.946   2.082  0.1866  0.0673 -0.0471
10119TIP3    H151848   6.257   2.890   2.151  1.9610 -0.6676 -1.4421
10119TIP3    H251849   6.128   2.940   2.089  0.3535 -1.6828  0.9721
10120TIP3   OH251850   2.324   0.944  10.481  0.0680  0.6005 -0.8629
10120TIP3    H151851   2.316   0.870  10.541  0.1703  0.1661 -1.3930
10120TIP3    H251852   2.238   0.986  10.483  0.3052  1.0618  0.2084
10121TIP3   OH251853   2.095   1.255   4.571  0.0727 -0.1848 -0.3674
10121TIP3    H151854   2.150   1.332   4.557  0.0250  0.2818  1.7636
10121TIP3    H251855   2.014   1.274   4.524 -0.0521  1.2259  0.3663
10122TIP3   OH251856   4.041   5.533  11.922  0.1665  0.5780  0.0356
10122TIP3    H151857   4.044   5.524  11.827 -1.1190  1.9704 -0.1486
10122TIP3    H251858   4.058   5.625  11.938 -2.6419  0.9659  0.9698
10123TIP3   OH251859   0.512   4.589   2.976 -0.1013  0.5842 -0.0380
10123TIP3    H151860   0.591   4.558   2.931  0.1952  1.8675 -0.4171
10123TIP3    H251861   0.440   4.546   2.931  0.2847  0.7242 -0.7934
10124TIP3   OH251862   6.400   4.430   3.507  0.4048 -0.7732 -0.6873
10124TIP3    H151863   6.376   4.339   3.523 -0.3827 -0.4176  0.2041
10124TIP3    H251864   6.478   4.444   3.561 -0.5276 -0.4185  0.6005
10125TIP3   OH251865   3.270   3.270   5.685  0.0932  0.0211  0.0033
10125TIP3    H151866   3.255   3.328   5.760  0.8450 -0.2040  0.3366
10125TIP3    H251867   3.183   3.244   5.656 -0.2477  1.4238 -0.2289
10126TIP3   OH251868   0.789   6.078  16.998  0.5615  0.2452 -0.2383
10126TIP3    H151869   0.850   6.012  17.031  0.7725  1.0214  0.9491
10126TIP3    H251870   0.751   6.116  17.077  1.4402  2.4853 -0.8772
10127TIP3   OH251871   5.515   2.259   0.114  0.3385 -0.4073  0.1210
10127TIP3    H151872   5.568   2.321   0.165  0.4983 -1.4159  1.1979
10127TIP3    H251873   5.459   2.217   0.179  1.6899 -2.8946 -0.2629
10128TIP3   OH251874   6.174   4.287  13.471  0.4192  0.1471  0.2709
10128TIP3    H151875   6.100   4.302  13.530 -0.0029 -0.2355 -0.1646
10128TIP3    H251876   6.225   4.218  13.514 -0.5639 -1.0315 -0.4318
10129TIP3   OH251877   3.223   5.946  13.137  0.5013 -0.1853  0.5820
10129TIP3    H151878   3.305   5.979  13.173  1.0323 -0.2850 -0.5195
10129TIP3    H251879   3.212   5.860  13.178  2.3524 -1.3624 -1.2933
10130TIP3   OH251880   1.623   6.460  13.485  0.1975 -1.0770  0.4764
10130TIP3    H151881   1.554   6.497  13.429  0.8704  1.1339  1.0251
10130TIP3    H251882   1.655   6.384  13.437 -0.4297 -0.2345 -1.3165
10131TIP3   OH251883   1.069   0.114  11.349 -0.8159 -0.5226 -0.1274
10131TIP3    H151884   1.059   0.144  11.258  0.1445  0.6636  0.1342
10131TIP3    H251885   1.148   0.060  11.347  0.1057  0.7963  0.2977
10132TIP3   OH251886   5.897   3.697  11.858  0.0196  0.2968 -0.1870
10132TIP3    H151887   5.830   3.735  11.802 -1.1462 -0.7432  0.4789
10132TIP3    H251888   5.978   3.705  11.807 -0.8552  0.1774 -1.6319
10133TIP3   OH251889   1.673   5.000  14.729 -0.1969  0.5330 -0.3227
10133TIP3    H151890   1.743   5.041  14.678 -0.3777  0.8728 -0.3048
10133TIP3    H251891   1.664   4.912  14.693  1.1806 -0.0006  0.5819
10134TIP3   OH251892   2.356   0.012  11.062 -0.1800  0.7143 -0.2557
10134TIP3    H151893   2.275  -0.026  11.027 -0.5079  0.7386  0.4671
10134TIP3    H251894   2.411   0.026  10.985 -0.8009  0.5489 -0.7337
10135TIP3   OH251895   1.186   2.868  14.167  0.0729  0.1753 -0.0924
10135TIP3    H151896   1.241   2.946  14.174 -1.3737  1.5925 -3.6785
10135TIP3    H251897   1.109   2.888  14.221  0.1084  0.8619 -0.2966
10136TIP3   OH251898   3.405   5.340  15.964  0.0973  0.4689 -0.2023
10136TIP3    H151899   3.467   5.406  15.995  3.4133 -2.4182 -0.3039
10136TIP3    H251900   3.381   5.369  15.876 -0.3307  2.6803  0.6082
10137TIP3   OH251901   5.548   6.642   6.372 -0.0475  0.0668  0.0668
10137TIP3    H151902   5.461   6.608   6.393 -0.3346  1.1079  0.5996
10137TIP3    H251903   5.559   6.718   6.430  1.4984 -0.4737  0.4967
10138TIP3   OH251904   6.243   1.565   5.431 -0.2325 -0.1839 -0.2066
10138TIP3    H151905   6.262   1.595   5.520  1.3527 -3.2123  0.5240
10138TIP3    H251906   6.149   1.580   5.421 -0.2904  0.9288  1.6769
10139TIP3   OH251907   1.960   2.932  13.781 -0.4399  0.2795  0.0574
10139TIP3    H151908   2.041   2.890  13.812  0.1492  0.1661 -1.5782
10139TIP3    H251909   1.987   3.021  13.759 -0.2575 -0.3748 -2.5146
10140TIP3   OH251910   0.941   3.610  11.545  0.4378 -0.5732  0.0397
10140TIP3    H151911   0.894   3.623  11.627 -0.1171 -0.1759 -0.3368
10140TIP3    H251912   0.979   3.523  11.552 -2.9075 -2.2034 -0.9000
10141TIP3   OH251913   3.688   2.314  13.934  0.7539  0.4658  0.2298
10141TIP3    H151914   3.635   2.307  13.855 -0.6947  0.5437  1.1834
10141TIP3    H251915   3.778   2.302  13.904  0.1763  0.1018 -1.3670
10142TIP3   OH251916   3.633   1.648  17.067  0.0552 -0.2325  0.2716
10142TIP3    H151917   3.591   1.697  16.997  1.3902 -0.3810 -0.6505
10142TIP3    H251918   3.573   1.576  17.086  0.0414 -0.6251 -1.2482
10143TIP3   OH251919   1.817   2.465   5.617  0.2592  0.2887 -0.3120
10143TIP3    H151920   1.810   2.406   5.692 -1.4775  0.6684 -0.1674
10143TIP3    H251921   1.831   2.408   5.542 -1.3414 -0.3147 -0.1593
10144TIP3   OH251922   2.799   1.935  13.190  0.4622 -0.1027  0.0852
10144TIP3    H151923   2.808   1.913  13.283 -1.4569  0.2967  0.3804
10144TIP3    H251924   2.715   1.979  13.183  0.7225  0.1608 -1.8093
10145TIP3   OH251925   5.136   6.300   6.136 -0.2445  0.6836 -0.2112
10145TIP3    H151926   5.176   6.218   6.107 -0.6858  0.4505 -0.1681
10145TIP3    H251927   5.060   6.272   6.188 -0.8221  1.1221 -0.8073
10146TIP3   OH251928   3.578   4.415  13.737  0.4088 -0.4267  0.5285
10146TIP3    H151929   3.514   4.385  13.673 -0.2577 -1.1123  1.4974
10146TIP3    H251930   3.559   4.508  13.748 -0.2967 -0.5873  0.6640
10147TIP3   OH251931   4.910   0.526   4.574  0.2626  0.2955 -0.6449
10147TIP3    H151932   4.983   0.522   4.636  0.0118  0.0160 -0.3631
10147TIP3    H251933   4.877   0.436   4.570 -1.5507  0.8375  1.0213
10148TIP3   OH251934   2.236   6.424   2.014 -0.3388  0.5867 -0.2133
10148TIP3    H151935   2.188   6.506   2.026 -0.1981  0.7907 -0.9974
10148TIP3    H251936   2.325   6.443   2.044  0.3976  1.5267 -2.8250
10149TIP3   OH251937   6.329   5.173   1.900 -0.1015  0.3739  0.0265
10149TIP3    H151938   6.360   5.199   1.813  0.3977  0.8913  0.3570
10149TIP3    H251939   6.405   5.135   1.943  0.1112  1.6897  0.8586
10150TIP3   OH251940   3.231   6.803  14.412  0.1894 -0.2590  0.1447
10150TIP3    H151941   3.239   6.836  14.322 -2.1175  2.5199  0.8656
10150TIP3    H251942   3.143   6.765  14.416  0.5147 -0.9381  1.0671
10151TIP3   OH251943   4.375   0.174   3.690  0.1458  0.0291  0.3569
10151TIP3    H151944   4.296   0.201   3.643  0.1236 -1.1461 -0.2885
10151TIP3    H251945   4.343   0.149   3.777 -0.1078  0.1544  0.3003
10152TIP3   OH251946   0.270   4.816  15.399 -0.6848  0.5176 -0.9169
10152TIP3    H151947   0.354   4.862  15.393  0.1124 -0.8418 -0.3107
10152TIP3    H251948   0.242   4.828  15.489 -0.6092  0.0306 -0.8302
10153TIP3   OH251949   4.069   2.599  15.703  0.0981  0.2085 -0.3849
10153TIP3    H151950   4.062   2.638  15.616  0.5722  1.9124  0.3237
10153TIP3    H251951   4.066   2.674  15.763  4.3810 -0.4743  0.8743
10154TIP3   OH251952   1.422   0.265  12.312  0.9349 -0.1686  0.1106
10154TIP3    H151953   1.486   0.320  12.269  0.1471  1.2038  0.6655
10154TIP3    H251954   1.454   0.175  12.298  1.5229  0.3323 -1.9241
10155TIP3   OH251955   1.811   3.872  11.917 -0.3796 -0.7681 -0.2896
10155TIP3    H151956   1.772   3.837  11.997 -3.6210 -0.5549 -1.7059
10155TIP3    H251957   1.739   3.916  11.872  1.7630  0.5991 -2.5262
10156TIP3   OH251958   0.527   3.027  13.375 -0.4228 -0.3449  0.1459
10156TIP3    H151959   0.599   3.078  13.338 -2.3214  1.8378 -0.6699
10156TIP3    H251960   0.553   3.011  13.466  0.9006  0.7683 -0.0224
10157TIP3   OH251961   0.608   3.781   4.531  0.1474  0.2594 -0.4678
10157TIP3    H151962   0.588   3.700   4.484  1.1204  0.0314 -0.4992
10157TIP3    H251963   0.632   3.844   4.462 -2.8561  1.2789 -0.6465
10158TIP3   OH251964   1.228   0.751  11.445 -0.8384 -0.2877  0.0776
10158TIP3    H151965   1.215   0.778  11.537 -0.1700 -2.6303  0.8872
10158TIP3    H251966   1.172   0.675  11.434  1.4065 -1.9115 -0.5251
10159TIP3   OH251967   3.060   6.487  14.350  0.5527 -0.2847  0.0587
10159TIP3    H151968   3.130   6.512  14.290  1.5711 -1.6513  0.6415
10159TIP3    H251969   2.993   6.554  14.339  1.6773  0.6812 -0.9919
10160TIP3   OH251970   0.395   1.510   4.841 -0.4145 -0.4535  0.2001
10160TIP3    H151971   0.362   1.477   4.924  0.8622  1.4783  1.5357
10160TIP3    H251972   0.420   1.432   4.792 -0.7430 -1.6017  1.8333
10161TIP3   OH251973   2.302   5.637   3.500  0.4080  0.2959  0.6998
10161TIP3    H151974   2.393   5.623   3.473  0.5042 -0.8853  1.5898
10161TIP3    H251975   2.267   5.549   3.513 -1.5720  0.6441 -1.8593
10162TIP3   OH251976   6.655   2.632  11.482  0.1452  0.3182  0.3663
10162TIP3    H151977   6.692   2.659  11.397  0.3913  0.4004  0.4986
10162TIP3    H251978   6.692   2.544  11.496 -1.7635 -0.6885 -0.7191
10163TIP3   OH251979   4.496   1.343  12.878 -0.0178 -0.1714  0.3234
10163TIP3    H151980   4.547   1.314  12.802 -0.7283 -0.6798  0.0279
10163TIP3    H251981   4.420   1.386  12.840  0.5727  1.2981  0.7642
10164TIP3   OH251982   2.191   3.436  12.158  0.2757  0.4128  0.3307
10164TIP3    H151983   2.123   3.394  12.211  0.4974 -0.2265  0.1076
10164TIP3    H251984   2.250   3.365  12.134  0.0126  0.6388 -1.0256
10165TIP3   OH251985   3.026   6.319  13.216 -0.3384 -0.4784  0.9422
10165TIP3    H151986   3.026   6.224  13.230 -0.0756 -0.3951  1.5370
10165TIP3    H251987   2.978   6.331  13.134 -1.7242 -1.0128  1.6509
10166TIP3   OH251988   4.684   6.123   5.588 -0.0872 -0.3950 -0.7823
10166TIP3    H151989   4.766   6.098   5.630 -0.9799 -1.0487  0.6188
10166TIP3    H251990   4.658   6.045   5.538 -1.3363 -1.2447  1.1517
10167TIP3   OH251991   0.908   5.725  16.321  0.2994 -0.0854  0.6695
10167TIP3    H151992   0.906   5.685  16.408 -2.3988 -0.9020  0.2767
10167TIP3    H251993   0.952   5.660  16.265 -0.4561 -0.7906  0.8763
10168TIP3   OH251994   5.706   6.377   3.051 -0.0031 -0.2208 -0.1239
10168TIP3    H151995   5.708   6.420   2.965 -0.7919 -1.3165 -0.6944
10168TIP3    H251996   5.682   6.287   3.032  2.7304 -1.2117  0.9652
10169TIP3   OH251997   5.231   2.136  12.898 -0.4185 -0.0074  0.2583
10169TIP3    H151998   5.137   2.131  12.881 -0.4864 -0.1000  0.6561
10169TIP3    H251999   5.271   2.091  12.824 -0.5722  2.1255 -1.1749
10170TIP3   OH252000   3.450   3.985   4.850 -0.5170  0.0534 -0.1053
10170TIP3    H152001   3.391   4.060   4.842  0.0336  0.3491 -1.5882
10170TIP3    H252002   3.410   3.930   4.918 -2.2797  0.4267 -0.8098
10171TIP3   OH252003   0.645   2.425  14.577 -0.1138 -0.7367  0.0755
10171TIP3    H152004   0.680   2.343  14.543  2.9407  0.5333 -0.0067
10171TIP3    H252005   0.638   2.481  14.500  2.1431  0.5222  0.7355
10172TIP3   OH252006   3.224   4.535   3.493  0.2580  0.5192  0.4868
10172TIP3    H152007   3.244   4.447   3.526 -1.1899 -0.2420 -0.6028
10172TIP3    H252008   3.129   4.539   3.492  0.2734  1.0536 -2.1053
10173TIP3   OH252009   2.521   1.038  16.506  0.1869 -0.8510  0.2973
10173TIP3    H152010   2.565   1.017  16.424  1.2898 -1.9145  1.1378
10173TIP3    H252011   2.502   1.132  16.500  1.1501 -0.7157 -0.7363
10174TIP3   OH252012   1.761   2.492   2.781 -0.0293 -0.0294 -0.0682
10174TIP3    H152013   1.710   2.432   2.836 -0.7551 -1.2321 -1.9760
10174TIP3    H252014   1.804   2.435   2.717  0.9135  1.3105 -0.6532
10175TIP3   OH252015   1.183   5.612  16.675 -0.0492  0.3399  0.4881
10175TIP3    H152016   1.102   5.574  16.642  1.0054 -1.0493 -0.6034
10175TIP3    H252017   1.189   5.581  16.765  0.3516 -1.4198 -0.1190
10176TIP3   OH252018   2.817   1.787   0.465  0.7443  0.0627 -0.0643
10176TIP3    H152019   2.818   1.795   0.560 -1.9905  2.6773 -0.1696
10176TIP3    H252020   2.897   1.831   0.436 -0.6760  3.4327  0.8769
10177TIP3   OH252021   2.469   2.044  15.314  0.5828  0.3215 -0.2356
10177TIP3    H152022   2.437   2.028  15.403 -0.6163 -1.2641 -0.9314
10177TIP3    H252023   2.545   1.986  15.306  0.2360 -0.0957 -0.5015
10178TIP3   OH252024   2.871   2.212   0.513  0.0610  0.5291  0.0730
10178TIP3    H152025   2.814   2.206   0.437  1.5901  0.6019 -1.0995
10178TIP3    H252026   2.859   2.301   0.546  0.4718  0.9768 -0.9610
10179TIP3   OH252027   1.337   5.682   1.869 -0.7989 -0.1789 -0.0968
10179TIP3    H152028   1.329   5.672   1.774 -0.6462 -0.5113 -0.0779
10179TIP3    H252029   1.263   5.737   1.894 -0.0903  0.9998 -0.5814
10180TIP3   OH252030   4.584   3.843  11.802 -0.0383 -0.5534  0.0598
10180TIP3    H152031   4.546   3.755  11.789 -2.7246  0.4596  0.7313
10180TIP3    H252032   4.612   3.843  11.893 -1.8598 -0.0718  0.6396
10181TIP3   OH252033   6.580   4.401  14.204 -0.0455 -0.7516 -0.1681
10181TIP3    H152034   6.524   4.323  14.213 -0.0731 -0.5497  1.7817
10181TIP3    H252035   6.522   4.468  14.169 -0.5464 -1.0585  0.0668
10182TIP3   OH252036   4.859   6.683  12.524 -0.6445  0.5786 -0.2873
10182TIP3    H152037   4.911   6.755  12.560  0.1304 -0.6500  1.1406
10182TIP3    H252038   4.905   6.604  12.553 -1.2277 -0.5018 -2.1915
10183TIP3   OH252039   6.538   5.629   1.710 -0.1653 -0.0013 -0.1916
10183TIP3    H152040   6.492   5.580   1.778 -0.5944  0.8119  0.1112
10183TIP3    H252041   6.602   5.682   1.758 -1.6614  1.9025 -0.2442
10184TIP3   OH252042   4.359   1.713  14.752 -0.1202  0.0465  0.5061
10184TIP3    H152043   4.414   1.752  14.819  1.9659  2.0118 -2.2340
10184TIP3    H252044   4.273   1.753  14.765  1.0586  2.8428  0.0953
10185TIP3   OH252045   4.233   0.906  14.206 -0.2390 -0.3932 -0.0475
10185TIP3    H152046   4.314   0.874  14.166 -0.3660 -0.3860 -0.3121
10185TIP3    H252047   4.260   0.984  14.255 -0.0308 -0.5743  0.1257
10186TIP3   OH252048   1.339   4.719   1.796 -0.0847 -0.4557  0.0537
10186TIP3    H152049   1.405   4.739   1.729  1.1400 -2.0422  0.7559
10186TIP3    H252050   1.365   4.633   1.830 -1.0936  0.0201  2.0758
10187TIP3   OH252051   5.538   4.459   4.656 -0.3529  0.3610 -0.3357
10187TIP3    H152052   5.466   4.504   4.701 -0.7165  1.2746 -1.7805
10187TIP3    H252053   5.617   4.506   4.683 -0.7684  2.1756 -2.1326
10188TIP3   OH252054   4.006   1.939  16.672  0.3332  0.1138 -0.0988
10188TIP3    H152055   4.055   2.008  16.628 -0.7103  0.6789 -0.3901
10188TIP3    H252056   3.942   1.909  16.606  0.8764 -1.2469 -0.0367
10189TIP3   OH252057   4.802   5.663   5.620  1.1613  0.7570  0.0254
10189TIP3    H152058   4.780   5.592   5.681 -1.6073 -0.3990 -2.2085
10189TIP3    H252059   4.783   5.743   5.668 -2.1868 -0.1450  0.2963
10190TIP3   OH252060   3.554   2.373  11.573  0.4798 -0.6481  0.3292
10190TIP3    H152061   3.545   2.436  11.645 -0.6513 -0.4182 -0.0110
10190TIP3    H252062   3.638   2.330  11.590  0.1459 -0.7278  1.8966
10191TIP3   OH252063   5.561   4.013   4.735  0.3847 -0.7346 -0.2927
10191TIP3    H152064   5.593   4.054   4.815 -1.8012  0.7592 -0.1468
10191TIP3    H252065   5.590   4.071   4.665 -1.1571  0.1219 -0.2365
10192TIP3   OH252066   4.020   5.966   4.782 -0.1157  0.6223  0.2948
10192TIP3    H152067   3.951   5.933   4.839 -0.0628 -1.9050 -1.0083
10192TIP3    H252068   4.032   5.897   4.716  2.4228  1.7751 -0.5414
10193TIP3   OH252069   0.986   3.696   1.685  0.2552 -0.0363  0.5762
10193TIP3    H152070   0.992   3.744   1.603 -0.2900  0.0981  0.6125
10193TIP3    H252071   1.063   3.640   1.686  0.1223 -0.2406 -0.1561
10194TIP3   OH252072   3.225   5.194   5.740 -0.6105  0.2527  0.6551
10194TIP3    H152073   3.138   5.156   5.750 -0.3060 -0.1795  1.7280
10194TIP3    H252074   3.242   5.238   5.823 -0.4110  1.6190 -0.0891
10195TIP3   OH252075   5.718   5.288   0.526 -0.1189  0.4959  0.4050
10195TIP3    H152076   5.799   5.242   0.503 -0.2420  0.2848  0.3922
10195TIP3    H252077   5.703   5.265   0.617 -0.0801  0.6615  0.4531
10196TIP3   OH252078   3.951   6.813   0.273  0.6344  0.0792 -0.3300
10196TIP3    H152079   3.905   6.858   0.345  0.8420 -0.9801  0.4847
10196TIP3    H252080   3.882   6.763   0.229  1.1521 -2.5344  1.6811
10197TIP3   OH252081   0.913   3.384   1.013 -0.0701  0.4238 -0.6735
10197TIP3    H152082   0.939   3.302   1.055 -0.9209  0.2285 -0.5201
10197TIP3    H252083   0.937   3.373   0.921 -0.1660  0.0105 -0.6482
10198TIP3   OH252084   4.048   2.797   0.244 -0.2351 -0.5474  0.1055
10198TIP3    H152085   4.107   2.814   0.318 -1.2097  0.8261  0.5848
10198TIP3    H252086   4.053   2.876   0.191 -1.5501 -0.4619  0.0936
10199TIP3   OH252087   1.710   2.312  16.866  0.1366  0.0199  0.2892
10199TIP3    H152088   1.716   2.305  16.771  1.4043  0.1225  0.3593
10199TIP3    H252089   1.699   2.222  16.896  1.2768 -0.1715  0.1501
10200TIP3   OH252090   2.375   0.727   4.711  0.2375 -0.1893  0.0354
10200TIP3    H152091   2.386   0.792   4.641 -1.4809  0.2022  0.1129
10200TIP3    H252092   2.281   0.729   4.731  0.8284  0.2783  2.9326
10201TIP3   OH252093   0.172   4.878  12.433 -0.4610 -0.4015  0.0666
10201TIP3    H152094   0.175   4.882  12.529 -0.1592 -0.9342  0.0843
10201TIP3    H252095   0.247   4.823  12.410 -2.5687 -3.2578 -0.2657
10202TIP3   OH252096   2.545   0.372  13.525 -0.0415  0.3901  0.2406
10202TIP3    H152097   2.549   0.416  13.610 -0.8510  1.5613 -0.3156
10202TIP3    H252098   2.634   0.377  13.491  1.4312 -4.1526  2.9965
10203TIP3   OH252099   3.682   1.217   5.009 -0.1000  0.6175 -0.0025
10203TIP3    H152100   3.760   1.167   4.988 -0.7865  0.2892 -1.8460
10203TIP3    H252101   3.701   1.306   4.980  0.7893  1.2589  2.4761
10204TIP3   OH252102   4.861   6.600   1.756  0.3913  0.0141 -0.0775
10204TIP3    H152103   4.808   6.667   1.799  1.8606 -0.7155  3.0160
10204TIP3    H252104   4.812   6.578   1.677 -2.1312  1.8716  0.9005
10205TIP3   OH252105   5.936   3.852  16.820 -0.1338  0.5154 -0.2279
10205TIP3    H152106   5.927   3.803  16.902 -2.1374 -0.4771 -1.0150
10205TIP3    H252107   5.973   3.789  16.758 -1.1296  0.4706 -0.7912
10206TIP3   OH252108   4.713   2.220  12.901 -0.0044  0.3015 -0.0311
10206TIP3    H152109   4.675   2.265  12.826 -1.3025  1.0024  1.0155
10206TIP3    H252110   4.641   2.166  12.935  0.8699 -0.8080  0.0974
10207TIP3   OH252111   5.076   2.549  14.721 -0.0452  0.3642 -0.1753
10207TIP3    H152112   5.164   2.526  14.690  0.9707  0.9591  2.1248
10207TIP3    H252113   5.078   2.644  14.730 -0.7533  0.3333  0.3794
10208TIP3   OH252114   6.435   1.442   4.796  0.3102 -0.3269 -0.3570
10208TIP3    H152115   6.373   1.500   4.840 -0.6889  0.0431 -2.1950
10208TIP3    H252116   6.492   1.502   4.747  1.1685 -0.7430  0.1368
10209TIP3   OH252117   2.880   3.150   2.354 -0.6093  0.4258 -0.0183
10209TIP3    H152118   2.841   3.212   2.292 -0.1719  2.1905  1.4159
10209TIP3    H252119   2.850   3.179   2.440  0.2817 -0.8542  0.7504
10210TIP3   OH252120   4.175   2.749  16.299 -0.2526 -0.0477  0.8810
10210TIP3    H152121   4.255   2.802  16.300  0.1073 -0.5947  1.1262
10210TIP3    H252122   4.133   2.770  16.215 -1.0439  2.0085  1.7400
10211TIP3   OH252123   3.340   4.688  15.206  0.1026 -0.2781  0.2854
10211TIP3    H152124   3.356   4.764  15.151  1.1148  1.4098  2.8426
10211TIP3    H252125   3.273   4.716  15.268 -0.8862 -2.0802  0.0742
10212TIP3   OH252126   2.757   5.568  17.227 -0.0034 -0.6506 -0.5553
10212TIP3    H152127   2.820   5.569  17.155 -0.0394 -0.2287 -0.5840
10212TIP3    H252128   2.732   5.476  17.236  0.7130 -0.8358 -0.4618
10213TIP3   OH252129   0.026   2.072  11.510  0.3626  0.2544 -0.4176
10213TIP3    H152130   0.089   2.059  11.581 -0.9161 -1.3633  0.4546
10213TIP3    H252131   0.080   2.090  11.433  1.8572 -0.2040  0.5063
10214TIP3   OH252132   3.821   2.922  11.894 -0.0077  0.0830 -0.9362
10214TIP3    H152133   3.753   2.856  11.911 -0.0975  0.0631 -1.3716
10214TIP3    H252134   3.785   2.976  11.824  0.7798 -0.4521 -1.7662
10215TIP3   OH252135   0.749   2.806   4.638  0.3794 -0.3458 -0.1175
10215TIP3    H152136   0.686   2.733   4.643  0.1254 -0.0067  2.0235
10215TIP3    H252137   0.695   2.883   4.619  0.2480 -0.2061  0.7994
10216TIP3   OH252138   0.855   0.466   0.872  0.2564 -0.1774  0.4532
10216TIP3    H152139   0.916   0.457   0.799  1.8784 -0.4813  1.8030
10216TIP3    H252140   0.885   0.401   0.936 -1.3769 -0.1861  1.2179
10217TIP3   OH252141   1.258   5.446  14.448  0.1065 -0.0082 -0.3028
10217TIP3    H152142   1.206   5.490  14.381  0.5386  0.4428 -0.3495
10217TIP3    H252143   1.317   5.389  14.400  0.0455 -0.0919 -0.2788
10218TIP3   OH252144   6.713   5.425   2.734 -0.9454  0.0360 -0.3490
10218TIP3    H152145   6.788   5.402   2.789 -1.1300 -0.0770 -0.1413
10218TIP3    H252146   6.692   5.515   2.760 -1.6792 -0.3725  0.5146
10219TIP3   OH252147   3.854   4.851  12.464  0.1721  0.0036 -0.2827
10219TIP3    H152148   3.821   4.932  12.426  4.2429  1.0361 -1.9536
10219TIP3    H252149   3.937   4.875  12.505  1.0236 -3.1234  0.0038
10220TIP3   OH252150   4.733   2.409   6.095 -0.0233 -0.4990 -0.2563
10220TIP3    H152151   4.696   2.497   6.088 -1.0325 -1.0397 -2.2005
10220TIP3    H252152   4.745   2.395   6.189 -0.4595  1.4535  0.1113
10221TIP3   OH252153   1.506   2.971   5.139 -0.2323 -0.2210 -0.2647
10221TIP3    H152154   1.539   2.972   5.229  0.9474 -0.4089 -0.6809
10221TIP3    H252155   1.584   2.989   5.085 -1.1254  1.0212 -1.1890
10222TIP3   OH252156   6.058   1.720   4.919 -0.1588  0.3383  0.4749
10222TIP3    H152157   6.073   1.628   4.939  1.0086  0.9288  2.4734
10222TIP3    H252158   6.120   1.740   4.849  0.0921 -0.1984  0.5388
10223TIP3   OH252159   3.080   0.855   2.240 -0.0821 -0.4191  0.1678
10223TIP3    H152160   3.159   0.819   2.199 -0.2280  0.0844 -0.5715
10223TIP3    H252161   3.112   0.907   2.313  0.3641  0.8842 -0.9449
10224TIP3   OH252162   5.432   2.285  13.254 -0.6156  0.1248  0.4633
10224TIP3    H152163   5.370   2.233  13.202  1.7278 -0.6687 -1.6418
10224TIP3    H252164   5.383   2.364  13.277 -2.0877 -0.0046 -2.0430
10225TIP3   OH252165   1.759   4.131   2.479  0.2148  0.5607 -0.1385
10225TIP3    H152166   1.759   4.223   2.451 -0.7792  0.3803 -0.7579
10225TIP3    H252167   1.767   4.082   2.398 -0.2015  0.0818  0.1096
10226TIP3   OH252168   6.263   6.753   0.019  0.1131 -0.4331 -0.3754
10226TIP3    H152169   6.340   6.810   0.010 -0.5181  0.2283 -1.6952
10226TIP3    H252170   6.299   6.666   0.034  1.1346 -0.2935 -1.9633
10227TIP3   OH252171   2.310   5.382   3.384 -0.1742 -0.0689  0.1545
10227TIP3    H152172   2.351   5.406   3.301  0.3980 -2.2826 -0.2463
10227TIP3    H252173   2.245   5.315   3.360 -0.3194 -0.4119  1.4326
10228TIP3   OH252174   6.304   5.473   0.558  1.2782  0.3793 -0.2930
10228TIP3    H152175   6.242   5.489   0.487  2.5314  0.3123 -1.4395
10228TIP3    H252176   6.328   5.381   0.548  0.5266  0.0342  0.9978
10229TIP3   OH252177   5.313   2.485  13.802  0.0254  0.1208  0.1195
10229TIP3    H152178   5.266   2.440  13.872 -0.2115  1.2622  0.6955
10229TIP3    H252179   5.306   2.578  13.823  0.5388  0.4400 -1.0468
10230TIP3   OH252180   5.002   2.254   6.165 -0.2052 -0.1817 -0.6665
10230TIP3    H152181   5.037   2.181   6.216 -0.1775 -1.0320 -1.8589
10230TIP3    H252182   4.920   2.277   6.209  0.5892  0.1495  0.6662
10231TIP3   OH252183   3.458   1.235  13.606 -0.4950  0.1889 -0.6981
10231TIP3    H152184   3.407   1.308  13.573 -0.8844  1.0254  1.6762
10231TIP3    H252185   3.507   1.271  13.680  0.2031 -1.6550 -0.2313
10232TIP3   OH252186   3.140   2.034  17.000  0.3678 -0.4678  0.4201
10232TIP3    H152187   3.091   2.014  17.080  2.6735 -1.3978  1.6310
10232TIP3    H252188   3.226   2.063  17.030  0.6082  1.1137 -1.6758
10233TIP3   OH252189   3.962   0.510  11.890  0.3839 -0.0307  0.3818
10233TIP3    H152190   3.937   0.423  11.922 -0.4568  0.1386  0.1944
10233TIP3    H252191   3.899   0.570  11.930  2.2464  0.7607  2.1922
10234TIP3   OH252192   3.927   5.846  15.558  0.7357 -0.1053  0.2533
10234TIP3    H152193   3.852   5.882  15.511  1.5961  0.7370 -0.4935
10234TIP3    H252194   3.893   5.823  15.644 -0.5913 -0.5773 -0.3836
10235TIP3   OH252195   5.884   3.812  14.957  0.0924  0.3090 -0.4413
10235TIP3    H152196   5.830   3.851  15.025  2.4870  1.4827  0.8764
10235TIP3    H252197   5.838   3.830  14.875 -1.8966  0.5069  0.7096
10236TIP3   OH252198   1.895   4.944  11.510  0.0744 -1.0137 -0.6550
10236TIP3    H152199   1.935   5.016  11.461 -2.5766  0.2282 -1.1111
10236TIP3    H252200   1.968   4.886  11.532  2.3102  1.7943 -0.2928
10237TIP3   OH252201   5.256   3.766   1.221 -0.2184 -0.2721 -0.4393
10237TIP3    H152202   5.252   3.740   1.313  2.0756  0.8847  0.0074
10237TIP3    H252203   5.249   3.861   1.223 -0.3720 -0.2515 -1.5069
10238TIP3   OH252204   2.849   0.071  11.755 -0.1378 -0.4534  0.0701
10238TIP3    H152205   2.872   0.014  11.682 -2.0851 -0.3777 -0.6329
10238TIP3    H252206   2.871   0.020  11.833  1.5693 -0.6919 -0.5603
10239TIP3   OH252207   4.888   1.836  15.136 -0.0463  0.0170 -0.3213
10239TIP3    H152208   4.899   1.798  15.049 -0.7758 -2.1058  0.4855
10239TIP3    H252209   4.809   1.889  15.129  1.0220  1.5241 -1.4777
10240TIP3   OH252210   5.691   6.812   0.062  0.1279  0.5915 -0.5573
10240TIP3    H152211   5.690   6.885   0.123 -1.4737 -0.3874  0.6313
10240TIP3    H252212   5.666   6.736   0.115 -0.2524 -0.4521 -2.2042
10241TIP3   OH252213   6.506   1.777   6.007 -0.4291  0.4706 -0.5032
10241TIP3    H152214   6.542   1.849   6.059  2.0706  0.1380 -1.6853
10241TIP3    H252215   6.532   1.798   5.917 -0.9990 -1.1338 -1.0494
10242TIP3   OH252216   4.813   4.999   4.197  0.5298 -0.4039 -0.0751
10242TIP3    H152217   4.786   4.995   4.105 -1.6959 -0.4717  0.5660
10242TIP3    H252218   4.815   4.907   4.225 -2.2954 -0.1898  0.9186
10243TIP3   OH252219   3.588   2.013  16.160 -0.0685 -0.3847  0.2992
10243TIP3    H152220   3.514   1.980  16.108  0.0381  0.2820 -0.2860
10243TIP3    H252221   3.653   2.039  16.095  1.4003 -2.5735  0.8542
10244TIP3   OH252222   0.226   2.069   2.209  0.3799 -0.7966 -0.2228
10244TIP3    H152223   0.211   1.989   2.158  1.1967 -0.2849 -1.2953
10244TIP3    H252224   0.295   2.045   2.271  1.9204 -0.4594 -1.7399
10245TIP3   OH252225   0.761   4.093   0.712 -0.0879 -0.4888  0.3296
10245TIP3    H152226   0.830   4.073   0.648 -0.4161 -1.9607  0.4107
10245TIP3    H252227   0.802   4.155   0.772  0.7009 -0.2418 -0.4470
10246TIP3   OH252228   1.760   2.970   1.732 -0.4809  0.3025  0.2389
10246TIP3    H152229   1.765   2.928   1.818  0.5947 -0.6865 -0.2965
10246TIP3    H252230   1.850   2.972   1.700 -0.8668  0.6754 -0.8646
10247TIP3   OH252231   6.705   6.384  16.477  0.5196  0.1369 -0.1003
10247TIP3    H152232   6.708   6.479  16.481 -0.6360  0.1910 -0.1720
10247TIP3    H252233   6.760   6.354  16.549  3.0652  0.8274 -1.6930
10248TIP3   OH252234   1.760   0.171  16.520 -0.3532  0.1598  0.0174
10248TIP3    H152235   1.837   0.155  16.576  0.3131 -1.2557 -1.2719
10248TIP3    H252236   1.774   0.115  16.444 -2.6157 -0.0087 -0.2958
10249TIP3   OH252237   0.014   2.884  14.875  0.1828 -0.5885  0.2792
10249TIP3    H152238   0.068   2.927  14.941 -0.2044  0.2274  0.0737
10249TIP3    H252239   0.005   2.950  14.806  0.2741 -1.3017 -0.4151
10250TIP3   OH252240   2.728   5.808   0.952  0.3043 -0.0220 -0.3887
10250TIP3    H152241   2.768   5.761   1.025 -0.2642 -0.8142 -0.5816
10250TIP3    H252242   2.702   5.892   0.990 -0.1406 -0.4954  0.3686
10251TIP3   OH252243   0.625   6.770   0.730  0.2569  0.8078 -0.1479
10251TIP3    H152244   0.602   6.850   0.683 -1.9900 -0.0587 -0.5875
10251TIP3    H252245   0.558   6.707   0.704  1.1046 -0.7688  1.3925
10252TIP3   OH252246   3.517   6.077   4.245 -0.0635 -0.8202 -1.0010
10252TIP3    H152247   3.600   6.122   4.262 -0.2528 -0.3302 -1.3458
10252TIP3    H252248   3.541   5.999   4.195  0.1927 -0.7041 -1.0583
10253TIP3   OH252249   1.483   3.282  16.904  0.2243 -0.0299  0.3219
10253TIP3    H152250   1.461   3.374  16.916  2.0054  0.5599 -0.6889
10253TIP3    H252251   1.497   3.249  16.993 -1.4408  0.3924  0.7514
10254TIP3   OH252252   1.546   2.800  13.990  0.1578  0.3603  0.3452
10254TIP3    H152253   1.520   2.857  13.918  2.7971 -0.4625 -1.3359
10254TIP3    H252254   1.638   2.820  14.004  1.1728 -3.4444 -0.3080
10255TIP3   OH252255   0.127   2.691   3.862 -0.2888 -0.1641 -0.1188
10255TIP3    H152256   0.084   2.738   3.934 -0.5805 -0.0265 -0.3825
10255TIP3    H252257   0.150   2.759   3.799  3.2013  0.1902  1.4485
10256TIP3   OH252258   4.690   3.953   5.314 -0.3117 -0.1937  0.2517
10256TIP3    H152259   4.629   3.889   5.280  0.0775 -0.3459 -0.1768
10256TIP3    H252260   4.776   3.910   5.310  0.0035  0.4705 -0.3773
10257TIP3   OH252261   2.312   1.089   1.408  0.2419 -0.2249  0.1421
10257TIP3    H152262   2.317   1.170   1.358 -0.8761  0.5297  1.2205
10257TIP3    H252263   2.359   1.107   1.489 -0.2195 -0.5782  0.4920
10258TIP3   OH252264   6.730   5.963  13.787 -0.3459  0.5475  0.0662
10258TIP3    H152265   6.720   6.054  13.817 -0.6302  0.3414  0.6060
10258TIP3    H252266   6.660   5.951  13.723  0.2102  0.9623 -0.6337
10259TIP3   OH252267   4.267   5.648   2.327 -0.3402 -0.1191 -0.4812
10259TIP3    H152268   4.200   5.598   2.281  1.0863  0.2104 -3.0539
10259TIP3    H252269   4.227   5.733   2.343 -1.5651 -0.9161  0.7445
10260TIP3   OH252270   0.942   1.720   6.494  0.5720 -0.6294  0.3322
10260TIP3    H152271   0.980   1.808   6.485 -1.5878  0.2812 -0.4313
10260TIP3    H252272   0.941   1.704   6.588  2.3033 -0.4428  0.3949
10261TIP3   OH252273   2.956   5.501  12.479  1.0298  0.5597  0.5980
10261TIP3    H152274   2.919   5.468  12.397 -0.6626 -1.5470  2.1384
10261TIP3    H252275   3.046   5.526  12.457  0.5917  0.0768 -1.8936
10262TIP3   OH252276   2.061   1.041  15.146  0.2527  0.1155 -0.6444
10262TIP3    H152277   1.967   1.059  15.133  0.4644  0.9624 -1.0476
10262TIP3    H252278   2.073   1.047  15.241  0.3989  2.6570 -0.7754
10263TIP3   OH252279   0.951   3.368   5.345 -0.1214 -0.0535  0.1119
10263TIP3    H152280   0.900   3.439   5.385  1.7946  0.9482  0.8167
10263TIP3    H252281   0.977   3.402   5.260 -0.9957 -0.7332 -0.4285
10264TIP3   OH252282   4.903   4.788   5.333 -0.2270  0.4066  0.1075
10264TIP3    H152283   4.985   4.837   5.343  0.6536 -1.0954  0.3296
10264TIP3    H252284   4.930   4.700   5.307 -1.6937 -0.5150  1.5865
10265TIP3   OH252285   4.589   0.249   6.451  0.5265  0.0332 -0.0967
10265TIP3    H152286   4.639   0.329   6.440  1.8676 -0.7905 -0.0464
10265TIP3    H252287   4.654   0.179   6.456 -0.6293 -1.1179 -0.5500
10266TIP3   OH252288   0.687   0.110   3.402 -0.2696 -0.4229  0.0359
10266TIP3    H152289   0.600   0.137   3.430  0.0544 -0.6328  1.2545
10266TIP3    H252290   0.743   0.125   3.478  0.7832 -0.1792 -0.7704
10267TIP3   OH252291   6.814   5.148   5.134 -0.4625 -0.6267 -0.1209
10267TIP3    H152292   6.824   5.209   5.207  2.3862 -0.6619 -0.4314
10267TIP3    H252293   6.815   5.061   5.175 -0.1138 -0.6058 -0.0846
10268TIP3   OH252294   5.184   0.585  10.973  0.5100  0.2335  0.1001
10268TIP3    H152295   5.151   0.665  11.014  0.6088  0.3959 -0.1328
10268TIP3    H252296   5.207   0.613  10.884 -3.7672 -1.0172 -1.5319
10269TIP3   OH252297   0.974   5.864  15.632  0.3206  0.7291 -0.3988
10269TIP3    H152298   0.992   5.808  15.556  1.2529 -0.0108  0.3535
10269TIP3    H252299   0.974   5.805  15.706 -2.2584  1.2053  0.0144
10270TIP3   OH252300   5.795   4.051  11.226 -0.7584 -0.6908  0.4059
10270TIP3    H152301   5.847   3.984  11.180 -1.0487  1.0230 -2.5630
10270TIP3    H252302   5.843   4.133  11.211 -2.3437  0.3253  0.8000
10271TIP3   OH252303   1.759   1.699  16.150  0.4784 -0.4139  0.2982
10271TIP3    H152304   1.785   1.616  16.110 -1.6865 -0.8558 -0.2046
10271TIP3    H252305   1.801   1.698  16.236  1.8068 -1.2731 -0.3311
10272TIP3   OH252306   0.210   2.192   0.187  0.2354  0.6851 -0.0066
10272TIP3    H152307   0.206   2.214   0.094 -3.7598 -0.9277 -0.3322
10272TIP3    H252308   0.222   2.097   0.188 -1.3515  0.4777  1.0516
10273TIP3   OH252309   2.359   2.378   2.389  0.6269 -0.2504  0.0069
10273TIP3    H152310   2.292   2.358   2.324  0.3107  1.8468 -0.3329
10273TIP3    H252311   2.428   2.314   2.373 -0.5679 -1.3832 -0.6969
10274TIP3   OH252312   3.981   2.313  13.369 -0.7087  0.6477 -0.2053
10274TIP3    H152313   3.986   2.408  13.366  0.0817  0.5745 -2.3709
10274TIP3    H252314   3.942   2.288  13.285  0.5346 -1.0031 -0.3165
10275TIP3   OH252315   4.427   2.882   3.148  0.1283 -0.0554 -0.3651
10275TIP3    H152316   4.407   2.788   3.152  0.4646 -0.0439  1.7647
10275TIP3    H252317   4.502   2.893   3.205 -0.9160  1.7946  0.6867
10276TIP3   OH252318   4.956   0.095  16.174 -0.1496  0.1179  0.3706
10276TIP3    H152319   4.974   0.004  16.152 -0.4253  0.2844 -0.5849
10276TIP3    H252320   4.976   0.102  16.267 -1.2314 -1.2060  0.7324
10277TIP3   OH252321   2.397   2.575  12.218  0.3013  0.4624  0.2827
10277TIP3    H152322   2.306   2.552  12.238  0.9198 -0.7728  1.8390
10277TIP3    H252323   2.394   2.617  12.133 -1.6439 -0.2719 -0.0172
10278TIP3   OH252324   3.158   4.113  12.729 -0.0384 -0.5450  0.2876
10278TIP3    H152325   3.232   4.103  12.789  0.4687  0.8018 -0.1033
10278TIP3    H252326   3.082   4.086  12.781  0.3456  1.0045  1.6727
10279TIP3   OH252327   6.078   6.691   1.198  0.1280  0.3957  0.2726
10279TIP3    H152328   6.149   6.642   1.157 -2.1190 -2.1292 -0.7585
10279TIP3    H252329   6.081   6.666   1.290  0.0189 -0.4185  0.0587
10280TIP3   OH252330   4.741   5.009   3.926 -0.0419 -0.0708 -0.6891
10280TIP3    H152331   4.824   5.001   3.879  0.7428 -1.6640  0.9168
10280TIP3    H252332   4.674   4.992   3.860  0.9172  0.6964 -1.8852
10281TIP3   OH252333   3.716   0.257  15.594  0.6490 -0.3710 -0.5129
10281TIP3    H152334   3.801   0.298  15.578  0.1197  1.4949  1.2716
10281TIP3    H252335   3.734   0.195  15.666  0.4425  0.3023  0.1281
10282TIP3   OH252336   4.514   1.980   5.941  0.1524  0.2413 -0.3500
10282TIP3    H152337   4.447   1.925   5.981  0.7547 -0.0334  0.2889
10282TIP3    H252338   4.550   1.927   5.870  0.9019 -0.2837  0.4232
10283TIP3   OH252339   3.405   4.082  16.932  0.1965  0.2236  0.1419
10283TIP3    H152340   3.331   4.090  16.992  0.7586  1.0298  0.7228
10283TIP3    H252341   3.478   4.054  16.987  0.3526 -0.5021 -0.4199
10284TIP3   OH252342   0.206   2.322  14.078 -0.2488 -0.0336 -0.3867
10284TIP3    H152343   0.129   2.379  14.070  0.9260  1.7293  0.3555
10284TIP3    H252344   0.265   2.351  14.008  0.8230  0.4287  0.6897
10285TIP3   OH252345   3.370   6.804   4.822 -0.0376  0.1672 -0.4931
10285TIP3    H152346   3.316   6.833   4.749  0.1226 -0.9629 -1.0720
10285TIP3    H252347   3.459   6.800   4.786  0.2299  0.7581  0.0927
10286TIP3   OH252348   4.715   1.278  12.375  0.1227  0.6067  0.4372
10286TIP3    H152349   4.730   1.371  12.359  0.1928  0.6969  1.0383
10286TIP3    H252350   4.801   1.237  12.365 -0.2321  0.3232 -1.7645
10287TIP3   OH252351   2.803   1.524  16.404  0.0428  0.3097 -0.7688
10287TIP3    H152352   2.731   1.577  16.437 -0.7545 -1.2732  0.1074
10287TIP3    H252353   2.881   1.579  16.415 -1.0237  2.0167 -1.7102
10288TIP3   OH252354   5.745   3.769   4.812 -0.1547 -0.2569  0.1144
10288TIP3    H152355   5.759   3.828   4.737  0.6750  0.1047  0.5415
10288TIP3    H252356   5.727   3.684   4.773  2.9067 -0.6871 -0.5351
10289TIP3   OH252357   6.591   4.601   2.967  0.4343  0.1314  1.3548
10289TIP3    H152358   6.565   4.508   2.965 -0.0808  0.3003 -0.7179
10289TIP3    H252359   6.593   4.627   2.875  2.8488  1.5659  1.7637
10290TIP3   OH252360   2.384   2.841  17.034  0.5913  0.0899  0.2012
10290TIP3    H152361   2.418   2.911  17.090 -0.4931  0.4731  0.4022
10290TIP3    H252362   2.439   2.765  17.054  0.6171  0.3967  1.3331
10291TIP3   OH252363   5.299   3.708   5.895 -0.2561  0.3002 -0.4679
10291TIP3    H152364   5.376   3.663   5.932 -0.3249 -0.9385 -1.8006
10291TIP3    H252365   5.283   3.780   5.956  0.9671 -0.3980  0.7276
10292TIP3   OH252366   1.298   2.640  11.536 -0.6663 -0.4888 -0.0088
10292TIP3    H152367   1.251   2.722  11.523 -1.0434 -0.7015  0.0077
10292TIP3    H252368   1.331   2.616  11.449  1.6767  1.0139  0.4176
10293TIP3   OH252369   3.762   0.540  12.785 -0.0251  0.0294 -0.4854
10293TIP3    H152370   3.741   0.452  12.752 -0.9468  0.7706 -1.9077
10293TIP3    H252371   3.830   0.525  12.851 -2.7549 -2.1323  1.9684
10294TIP3   OH252372   2.858   5.354  12.255  0.8739  0.1936  0.8432
10294TIP3    H152373   2.936   5.301  12.273  1.4714  1.8916  3.4549
10294TIP3    H252374   2.786   5.303  12.292  1.0159 -0.2617  0.5115
10295TIP3   OH252375   0.878   5.302  16.175 -0.3126 -0.0884  0.2004
10295TIP3    H152376   0.821   5.349  16.235  1.2166  1.9808  0.1169
10295TIP3    H252377   0.963   5.302  16.218  0.2322 -0.7596 -0.8420
10296TIP3   OH252378   2.451   3.899  14.048 -0.0088 -0.1833  0.2248
10296TIP3    H152379   2.406   3.955  14.111  1.2388  0.0218  0.9499
10296TIP3    H252380   2.485   3.960  13.983  0.9316 -0.1378  0.7524
10297TIP3   OH252381   3.878   4.602  11.194  0.1333  0.5534 -0.2009
10297TIP3    H152382   3.836   4.547  11.260 -0.9907  0.3844 -1.0588
10297TIP3    H252383   3.943   4.652  11.244 -1.1654  0.9326  1.1612
10298TIP3   OH252384   2.464   1.538   5.740 -0.7211 -0.8079  0.1586
10298TIP3    H152385   2.546   1.580   5.715 -1.5921  0.4713 -0.5821
10298TIP3    H252386   2.458   1.551   5.834 -0.5907  0.0294  0.0553
10299TIP3   OH252387   1.246   1.488   1.769 -0.1411  0.4309 -0.7256
10299TIP3    H152388   1.210   1.546   1.836 -0.5388 -3.3149  2.4668
10299TIP3    H252389   1.315   1.439   1.813  1.0152 -0.6850 -3.6422
10300TIP3   OH252390   1.237   6.234   6.457  0.1078  0.2159  0.0567
10300TIP3    H152391   1.223   6.157   6.402 -1.2353  0.9276 -0.6257
10300TIP3    H252392   1.290   6.292   6.403  0.3708  0.1381  0.2318
10301TIP3   OH252393   0.113   0.354   6.008 -0.1086  0.1028  0.4539
10301TIP3    H152394   0.167   0.276   6.001 -2.4816 -1.6433  0.7239
10301TIP3    H252395   0.092   0.377   5.917  0.7798  0.5522  0.3651
10302TIP3   OH252396   0.111   0.449   2.320  0.1716 -0.7097  0.2800
10302TIP3    H152397   0.029   0.499   2.316  0.2109 -0.7476 -1.1374
10302TIP3    H252398   0.087   0.366   2.361 -0.6270 -0.9618 -0.6900
10303TIP3   OH252399   3.631   3.401  14.451 -1.2256  0.3768 -0.2560
10303TIP3    H152400   3.573   3.379  14.378  0.5718 -1.9174 -1.0553
10303TIP3    H252401   3.693   3.465  14.414  0.3238 -1.5578 -1.0838
10304TIP3   OH252402   4.500   5.496  14.298 -0.1677 -0.5293 -0.2160
10304TIP3    H152403   4.521   5.429  14.363  0.4312  0.1912  0.3371
10304TIP3    H252404   4.495   5.577  14.348 -1.8573 -0.3013 -0.7321
10305TIP3   OH252405   0.044   0.471  14.852 -0.1088  0.3564 -0.0972
10305TIP3    H152406  -0.024   0.501  14.913 -0.9471 -1.1084 -0.3003
10305TIP3    H252407   0.019   0.509  14.768 -0.4602  0.1371 -0.0924
10306TIP3   OH252408   6.459   0.493   5.378 -0.0792 -0.3287 -0.4640
10306TIP3    H152409   6.456   0.585   5.349  0.6579 -0.5466 -1.2570
10306TIP3    H252410   6.551   0.480   5.403 -0.7569 -0.0555  2.2922
10307TIP3   OH252411   0.237   5.167  10.914 -0.3434  0.2061  0.4395
10307TIP3    H152412   0.209   5.251  10.950  0.4529  0.1973  1.0955
10307TIP3    H252413   0.166   5.107  10.936  0.0743  0.2231  1.9495
10308TIP3   OH252414   3.996   4.165  12.563 -0.3659 -0.5535  0.7241
10308TIP3    H152415   4.053   4.107  12.513 -0.7983 -1.9507  1.8136
10308TIP3    H252416   3.913   4.116  12.570 -1.0511  0.6037  0.8365
10309TIP3   OH252417   5.597   4.664  15.812  0.0996 -0.1508  0.0045
10309TIP3    H152418   5.556   4.585  15.845 -1.9479  0.5101 -0.8974
10309TIP3    H252419   5.563   4.734  15.867 -1.4257  0.6403 -1.9080
10310TIP3   OH252420   3.815   2.566  12.238  0.2728 -1.2062  0.1466
10310TIP3    H152421   3.725   2.547  12.211  0.1779  0.4454 -0.8085
10310TIP3    H252422   3.809   2.651  12.282  1.3170 -1.2051  0.2846
10311TIP3   OH252423   1.693   1.902   4.593  0.5356  0.0546 -0.1327
10311TIP3    H152424   1.659   1.824   4.637  1.8633 -1.3027 -1.4905
10311TIP3    H252425   1.745   1.946   4.661  1.0997 -1.0805  0.1938
10312TIP3   OH252426   0.195   5.307  17.128  0.1495  0.4478  0.0983
10312TIP3    H152427   0.145   5.226  17.136 -1.2491  1.2413 -0.6308
10312TIP3    H252428   0.198   5.324  17.034  0.1923  1.4049  0.2735
10313TIP3   OH252429   6.782   1.326  15.964  0.4359 -0.0306 -0.2052
10313TIP3    H152430   6.757   1.416  15.986  0.9260  0.1558 -0.3890
10313TIP3    H252431   6.807   1.330  15.872  1.2787 -0.1702  0.0129
10314TIP3   OH252432   0.359   6.543  17.218  0.0772 -0.0496 -0.4006
10314TIP3    H152433   0.422   6.603  17.259  1.4042 -0.4626 -1.7794
10314TIP3    H252434   0.413   6.483  17.167 -1.4289 -0.6167 -1.3626
10315TIP3   OH252435   4.883   5.153  11.828 -0.6961 -0.2929  0.1928
10315TIP3    H152436   4.831   5.231  11.807 -2.0098 -1.9604 -3.0261
10315TIP3    H252437   4.867   5.138  11.921 -0.9456  2.8703  0.7201
10316TIP3   OH252438   2.230   6.739   1.366  0.4209 -0.7162  0.7155
10316TIP3    H152439   2.262   6.709   1.452  0.5877 -0.3609  0.7759
10316TIP3    H252440   2.308   6.760   1.317  0.2649  1.1876  1.2364
10317TIP3   OH252441   0.407   0.238   3.361  0.3421 -0.2860 -0.0604
10317TIP3    H152442   0.444   0.200   3.282 -1.4195 -0.7986 -0.6615
10317TIP3    H252443   0.373   0.323   3.334  0.4245 -0.1300  0.3169
10318TIP3   OH252444   4.724   6.201   3.078 -0.3279  0.2464 -0.0582
10318TIP3    H152445   4.775   6.175   3.001 -0.1761 -1.9568  0.7459
10318TIP3    H252446   4.782   6.259   3.126 -0.3858  1.5725 -1.5417
10319TIP3   OH252447   0.020   5.216   2.338 -0.4735  0.1291  0.0194
10319TIP3    H152448   0.052   5.156   2.405  0.2134  0.0536 -0.3745
10319TIP3    H252449  -0.061   5.175   2.306 -0.8061  0.1672  0.7967
10320TIP3   OH252450   6.308   5.651   2.249 -0.3001  0.0282  0.3701
10320TIP3    H152451   6.389   5.665   2.299  0.2912 -0.9795 -0.2851
10320TIP3    H252452   6.331   5.585   2.184 -0.7144  2.2831 -2.1138
10321TIP3   OH252453   2.182   2.726   2.031 -0.1540  0.3498  0.2260
10321TIP3    H152454   2.132   2.644   2.024  1.7877 -0.8786  0.2693
10321TIP3    H252455   2.196   2.736   2.125  3.0967 -1.4965  0.0093
10322TIP3   OH252456   2.104   6.297  11.988 -0.0210  0.6663  0.4838
10322TIP3    H152457   2.125   6.347  12.067  1.5232 -1.4890  1.4907
10322TIP3    H252458   2.104   6.206  12.016  0.4268 -0.1442 -1.9823
10323TIP3   OH252459   0.659   2.982  14.726 -0.5607  0.1085  0.4867
10323TIP3    H152460   0.601   3.028  14.786  2.5448  4.6848  0.2496
10323TIP3    H252461   0.641   3.022  14.641 -0.7630 -2.1604 -0.5559
10324TIP3   OH252462   1.541   1.258   2.275 -0.6945  0.4346 -0.3949
10324TIP3    H152463   1.455   1.291   2.302 -0.1881  1.6464 -0.2108
10324TIP3    H252464   1.564   1.195   2.343 -1.0076  0.8339  0.0926
10325TIP3   OH252465   2.174   6.428  16.810 -0.2017  0.6619  0.5747
10325TIP3    H152466   2.145   6.518  16.795  0.2516  0.6575 -0.3311
10325TIP3    H252467   2.099   6.374  16.785  0.2066  0.7006 -0.7458
10326TIP3   OH252468   2.944   4.334  10.709 -0.5102 -0.2086  0.5145
10326TIP3    H152469   2.885   4.368  10.642 -0.4965 -1.7216 -0.2924
10326TIP3    H252470   2.998   4.408  10.733  1.7048 -0.3688 -3.5496
10327TIP3   OH252471   6.780   5.640  15.657 -0.0583  0.5170 -0.6300
10327TIP3    H152472   6.870   5.616  15.679  0.1820  0.6105 -1.4916
10327TIP3    H252473   6.773   5.622  15.564 -1.7801 -2.1633 -0.0305
10328TIP3   OH252474   3.173   4.106   0.372 -0.0665 -0.1603 -0.6141
10328TIP3    H152475   3.224   4.029   0.398  1.4026  0.4861 -1.4683
10328TIP3    H252476   3.136   4.082   0.287  1.1864  0.4051 -1.3370
10329TIP3   OH252477   5.612   1.841  15.263 -0.4031 -0.6332  0.5399
10329TIP3    H152478   5.591   1.820  15.354 -1.4383  0.1982  0.4940
10329TIP3    H252479   5.708   1.839  15.260 -0.2670  1.5913  2.1936
10330TIP3   OH252480   2.016   4.664   6.371 -0.0072 -0.8075  0.0588
10330TIP3    H152481   2.064   4.601   6.317  0.5754  1.8023 -2.6212
10330TIP3    H252482   2.070   4.675   6.449  2.8961  0.6051 -2.0466
10331TIP3   OH252483   6.201   0.804  13.373 -0.0213  0.0945 -0.6971
10331TIP3    H152484   6.249   0.757  13.441  0.7463 -1.4685 -2.2768
10331TIP3    H252485   6.211   0.896  13.395 -2.7560 -0.4446  3.2851
10332TIP3   OH252486   5.845   3.063  11.382  0.1420 -0.2708 -0.2477
10332TIP3    H152487   5.750   3.080  11.386  0.2665  0.4801 -0.3882
10332TIP3    H252488   5.860   3.032  11.293 -0.0613 -0.9478 -0.0473
10333TIP3   OH252489   2.438   4.660   4.519  0.3906 -0.1219 -0.6392
10333TIP3    H152490   2.496   4.716   4.571 -0.2307 -0.6993  0.7221
10333TIP3    H252491   2.368   4.635   4.580 -1.4790  0.8273 -2.3330
10334TIP3   OH252492   0.712   3.198   5.860  0.1818 -0.0692  0.2809
10334TIP3    H152493   0.656   3.234   5.792  1.1303 -1.1317 -1.0941
10334TIP3    H252494   0.666   3.217   5.942 -1.2549  0.7096 -0.6911
10335TIP3   OH252495   0.827   2.706   1.658 -0.1840 -0.4850 -0.4392
10335TIP3    H152496   0.851   2.646   1.729 -4.0319 -2.4594 -0.6651
10335TIP3    H252497   0.761   2.763   1.697  0.3791  0.8735 -1.4453
10336TIP3   OH252498   0.942   2.211  15.366 -0.4871  0.0226 -0.3287
10336TIP3    H152499   0.976   2.277  15.306 -0.2821 -0.0832 -0.3288
10336TIP3    H252500   1.018   2.183  15.417 -0.2721 -1.2152 -1.2788
10337TIP3   OH252501   2.370   2.631  15.194 -0.1564 -0.1889 -0.2989
10337TIP3    H152502   2.427   2.575  15.142 -0.4796 -1.9193  1.1658
10337TIP3    H252503   2.289   2.636  15.144  0.7129  1.0661 -1.6550
10338TIP3   OH252504   4.854   0.060   2.901  1.0185 -0.1370 -0.5449
10338TIP3    H152505   4.781   0.024   2.851 -0.7941  1.2496  1.0501
10338TIP3    H252506   4.874   0.143   2.858  1.1355 -0.1468 -0.5096
10339TIP3   OH252507   1.690   1.121   2.844  0.7744  0.5798 -0.5111
10339TIP3    H152508   1.768   1.077   2.809  1.5986  0.2160  1.7030
10339TIP3    H252509   1.619   1.060   2.829  0.7380  1.2121 -3.2222
10340TIP3   OH252510   6.296   1.393  14.174 -0.4838 -0.0478  0.3493
10340TIP3    H152511   6.296   1.448  14.252  3.8888  0.8040 -0.1047
10340TIP3    H252512   6.269   1.451  14.103 -0.4404  0.2558  0.5798
10341TIP3   OH252513   3.455   3.348   1.385 -0.2606  0.0073  0.1890
10341TIP3    H152514   3.455   3.257   1.355 -1.7921 -0.0921  0.4374
10341TIP3    H252515   3.388   3.351   1.453 -0.7101  1.4759 -0.2924
10342TIP3   OH252516   1.456   2.809  14.310 -0.4978 -0.0357  0.0162
10342TIP3    H152517   1.482   2.869  14.240 -1.9668 -1.0602 -1.4345
10342TIP3    H252518   1.400   2.862  14.367  0.6304  0.7762  0.3861
10343TIP3   OH252519   0.177   1.623   4.139 -0.9731  0.5538 -0.4206
10343TIP3    H152520   0.131   1.663   4.214 -0.9168  0.3776 -0.2914
10343TIP3    H252521   0.222   1.696   4.097 -0.0129  0.4647  0.4294
10344TIP3   OH252522   3.983   2.674   0.814 -0.0598  0.4266 -0.1196
10344TIP3    H152523   4.065   2.640   0.777 -0.3262 -0.3737  0.0103
10344TIP3    H252524   4.011   2.735   0.882  0.4249 -0.6079  0.6193
10345TIP3   OH252525   6.445   2.088  14.840  0.2791 -0.5182  0.3903
10345TIP3    H152526   6.465   2.019  14.777 -3.1742  0.9995 -2.5485
10345TIP3    H252527   6.382   2.049  14.900  1.2634 -1.0312  1.1136
10346TIP3   OH252528   4.848   4.436  15.446  0.1721  0.3816 -0.4032
10346TIP3    H152529   4.760   4.473  15.456  0.1213  0.4820 -1.2120
10346TIP3    H252530   4.893   4.498  15.389  0.1883 -0.6320 -1.4974
10347TIP3   OH252531   3.594   2.512  17.045  0.6388 -0.3234 -0.4562
10347TIP3    H152532   3.680   2.521  17.087  0.6405  0.1988 -0.5689
10347TIP3    H252533   3.597   2.574  16.973 -0.5376  1.0777  0.6772
10348TIP3   OH252534   5.757   1.154  11.941 -0.5743 -0.2943  0.1895
10348TIP3    H152535   5.807   1.200  12.008 -0.7812  1.7147 -0.9977
10348TIP3    H252536   5.822   1.134  11.873 -0.8478 -0.1733 -0.1033
10349TIP3   OH252537   1.530   4.914   2.069 -0.2012 -1.0439 -0.2897
10349TIP3    H152538   1.523   4.830   2.115  2.6162 -1.2577 -0.1635
10349TIP3    H252539   1.586   4.895   1.993  0.4174  0.6979 -0.2980
10350TIP3   OH252540   4.611   2.479   4.082 -0.1351 -0.5255  0.5032
10350TIP3    H152541   4.543   2.426   4.040 -0.9942  2.0958 -1.5441
10350TIP3    H252542   4.678   2.488   4.015 -0.4640  1.7714  0.4716
10351TIP3   OH252543   2.696   1.264  14.775 -0.0195  0.2600  0.4774
10351TIP3    H152544   2.749   1.185  14.765  0.6607  0.8575 -0.7753
10351TIP3    H252545   2.710   1.313  14.694 -0.3321  1.7290  1.2876
10352TIP3   OH252546   3.631   5.896   3.222  0.1330 -0.3100 -0.8518
10352TIP3    H152547   3.635   5.979   3.175  0.7813  0.3999  0.4128
10352TIP3    H252548   3.539   5.869   3.217  0.0276  0.2076 -1.7199
10353TIP3   OH252549   0.410   0.379   5.237  0.2009 -0.4542  0.7734
10353TIP3    H152550   0.334   0.427   5.204  1.0616 -0.0538 -0.7003
10353TIP3    H252551   0.438   0.427   5.315  0.2286  0.6655  0.0891
10354TIP3   OH252552   6.132   1.146  13.505  0.6591 -0.2809 -0.1265
10354TIP3    H152553   6.069   1.121  13.437  2.0783  1.1979 -2.0426
10354TIP3    H252554   6.080   1.194  13.570 -0.1850  0.9238 -1.6768
10355TIP3   OH252555   6.809   3.552  15.463  0.6028 -0.3938  0.8211
10355TIP3    H152556   6.715   3.534  15.461  0.7311 -0.9708 -1.3822
10355TIP3    H252557   6.815   3.646  15.481 -0.3826 -0.4108  1.2596
10356TIP3   OH252558   6.542   5.868  12.576 -0.0881 -0.6931 -0.2242
10356TIP3    H152559   6.622   5.832  12.614 -0.5797 -1.2783  0.2595
10356TIP3    H252560   6.472   5.812  12.609 -0.5811 -0.8970 -1.5932
10357TIP3   OH252561   2.740   0.952   6.629 -0.2809 -0.1075  0.0980
10357TIP3    H152562   2.680   1.019   6.596 -0.4681 -0.2446  0.1646
10357TIP3    H252563   2.684   0.885   6.668 -0.1593 -0.8533 -0.9851
10358TIP3   OH252564   2.573   5.001  12.866  0.3640  0.2480 -0.7717
10358TIP3    H152565   2.658   4.958  12.881  0.6522  1.3685  0.9006
10358TIP3    H252566   2.557   5.052  12.946 -2.5019 -0.9666 -0.4953
10359TIP3   OH252567   6.390   4.352  13.083 -0.3914 -0.4115  0.4070
10359TIP3    H152568   6.434   4.431  13.050 -0.5211 -0.4202  0.2127
10359TIP3    H252569   6.458   4.306  13.132 -0.4183  0.0164  0.8458
10360TIP3   OH252570   5.717   4.645   4.202  0.1424  0.0384 -0.3097
10360TIP3    H152571   5.715   4.699   4.123  0.0052  0.7060  0.1453
10360TIP3    H252572   5.809   4.622   4.214  0.2446  0.4510 -0.3180
10361TIP3   OH252573   2.921   1.255   4.071 -0.1043 -0.3552 -0.1374
10361TIP3    H152574   3.010   1.283   4.050 -0.1638 -0.9750 -1.2635
10361TIP3    H252575   2.891   1.316   4.138  0.3643  1.2427 -1.3584
10362TIP3   OH252576   2.246   1.256  15.013 -0.4209 -0.3601 -0.1613
10362TIP3    H152577   2.203   1.195  15.073 -0.8388  0.6830  0.6149
10362TIP3    H252578   2.176   1.314  14.984  0.2993  0.8154  0.4399
10363TIP3   OH252579   2.377   5.764  16.481  0.1245  0.0830 -0.4911
10363TIP3    H152580   2.436   5.705  16.434  0.7137 -0.2856  0.7037
10363TIP3    H252581   2.425   5.847  16.486  1.2558 -0.6736  1.9022
10364TIP3   OH252582   4.253   5.385  13.427  0.1774  0.0388  0.5764
10364TIP3    H152583   4.222   5.341  13.348 -0.9767 -0.6974  1.4221
10364TIP3    H252584   4.245   5.479  13.406 -0.6150 -0.1448  0.0045
10365TIP3   OH252585   2.891   4.912   2.306 -0.4125  0.4802 -0.0419
10365TIP3    H152586   2.846   4.935   2.387 -0.0054  3.2209 -0.5316
10365TIP3    H252587   2.970   4.966   2.307  0.7290 -1.1343 -1.1988
10366TIP3   OH252588   2.179   1.749   4.378  0.5053  0.8922  0.2381
10366TIP3    H152589   2.088   1.721   4.387  0.5045  0.4153 -1.2458
10366TIP3    H252590   2.230   1.680   4.421  0.3334 -0.1216 -1.1688
10367TIP3   OH252591   4.116   1.494   5.831  0.2061 -0.2123  0.8715
10367TIP3    H152592   4.044   1.522   5.887 -0.1626 -0.0362  0.3201
10367TIP3    H252593   4.157   1.575   5.801 -0.4756 -0.2698 -0.2347
10368TIP3   OH252594   0.728   2.450   1.020 -0.2460  0.6371 -0.4150
10368TIP3    H152595   0.746   2.490   0.936  1.6916  0.8940  0.0901
10368TIP3    H252596   0.795   2.382   1.029 -0.2715  0.7758  1.0127
10369TIP3   OH252597   2.799   5.604   3.119 -0.3450  0.6336  0.0590
10369TIP3    H152598   2.725   5.632   3.065  1.4244  1.0339 -2.2448
10369TIP3    H252599   2.869   5.586   3.056  0.4696 -3.1855  1.9050
10370TIP3   OH252600   5.211   1.115   1.471 -0.0440  0.6875 -0.1281
10370TIP3    H152601   5.142   1.118   1.405  1.7597  3.9976 -2.0335
10370TIP3    H252602   5.281   1.065   1.429  0.3101  1.0321  0.0435
10371TIP3   OH252603   4.669   2.304  11.073  0.9112 -0.1349  0.2544
10371TIP3    H152604   4.627   2.317  10.988  1.1878 -1.0114 -0.0187
10371TIP3    H252605   4.741   2.244  11.055  1.6105  0.4958  0.9213
10372TIP3   OH252606   2.148   5.372  11.662  0.1018  0.9977  0.0121
10372TIP3    H152607   2.099   5.452  11.645 -0.4963  0.6433  0.0325
10372TIP3    H252608   2.208   5.365  11.589 -0.3180  1.1096 -0.3465
10373TIP3   OH252609   3.267   6.527   4.532  0.0676  0.1173  0.1922
10373TIP3    H152610   3.322   6.600   4.560  1.4538 -0.3229 -1.2922
10373TIP3    H252611   3.249   6.477   4.612 -0.5900  1.8582  1.1556
10374TIP3   OH252612   2.872   6.078  15.478  0.1254 -0.6590  0.2874
10374TIP3    H152613   2.827   6.131  15.412  1.5792  0.6831  0.3643
10374TIP3    H252614   2.827   6.098  15.560  1.5760  1.5531  0.5607
10375TIP3   OH252615   5.015   3.251   4.553  0.4987  0.4856 -0.0794
10375TIP3    H152616   4.987   3.175   4.603  0.4451 -0.2908 -1.2779
10375TIP3    H252617   4.974   3.240   4.467 -1.4520  3.0575  0.4482
10376TIP3   OH252618   0.322   1.274  13.168  0.0536 -0.3975 -0.0775
10376TIP3    H152619   0.399   1.330  13.162 -0.8694  0.7265 -2.0204
10376TIP3    H252620   0.323   1.240  13.257  1.1052  2.0671  0.8755
10377TIP3   OH252621   3.329   5.142   0.947 -0.4523  0.0235  0.4278
10377TIP3    H152622   3.273   5.064   0.943  0.5286 -0.7149  0.7795
10377TIP3    H252623   3.383   5.138   0.868 -0.7307  0.6103  0.2037
10378TIP3   OH252624   2.562   6.108   3.614 -0.3591  0.0370 -0.4898
10378TIP3    H152625   2.594   6.169   3.681 -0.7115 -1.3409  0.9544
10378TIP3    H252626   2.619   6.031   3.622 -2.1019 -1.2311  0.0807
10379TIP3   OH252627   1.644   2.468  11.604 -0.3989 -0.0823  0.3044
10379TIP3    H152628   1.569   2.463  11.664 -0.1106 -0.4172  0.6383
10379TIP3    H252629   1.605   2.469  11.517 -0.8319  0.5832  0.4970
10380TIP3   OH252630   3.103   1.483  14.145 -0.1387  0.1409 -0.0602
10380TIP3    H152631   3.127   1.478  14.052 -0.6944  0.8565 -0.2463
10380TIP3    H252632   3.129   1.571  14.172 -0.7506  0.2291  0.2473
10381TIP3   OH252633   4.880   1.066   5.026 -0.1925 -0.6413  0.3315
10381TIP3    H152634   4.799   1.015   5.017 -0.0721 -0.7798  0.0079
10381TIP3    H252635   4.896   1.100   4.938 -1.2019  1.3862  0.9047
10382TIP3   OH252636   1.549   5.499  17.215  0.0606  0.0978  0.2212
10382TIP3    H152637   1.511   5.582  17.242 -2.7293 -0.2901 -2.1982
10382TIP3    H252638   1.621   5.524  17.157 -0.0847  0.8480  0.3580
10383TIP3   OH252639   1.385   6.442   3.050 -0.3733  0.2295 -0.5267
10383TIP3    H152640   1.424   6.367   3.095  1.1105  0.9830 -0.5402
10383TIP3    H252641   1.335   6.487   3.119  1.1364  0.8628  0.1750
10384TIP3   OH252642   2.669   6.038   0.460 -0.1222 -0.5637 -0.3101
10384TIP3    H152643   2.615   6.017   0.385  1.0099 -2.0714 -0.7223
10384TIP3    H252644   2.737   6.096   0.426  0.3214 -1.1511 -0.4336
10385TIP3   OH252645   1.001   5.194   4.858 -0.2243  0.4269  0.0643
10385TIP3    H152646   1.051   5.134   4.912 -1.8352 -0.1698  0.9421
10385TIP3    H252647   0.914   5.154   4.852 -1.3058  2.6225  0.6183
10386TIP3   OH252648   4.676   2.596   0.665 -0.2286 -0.6737 -0.4253
10386TIP3    H152649   4.712   2.535   0.601  1.2951 -0.8502  0.5957
10386TIP3    H252650   4.735   2.671   0.664  1.7493 -2.0650  3.1238
10387TIP3   OH252651   5.525   3.738   0.618  0.1213 -0.2042 -0.3328
10387TIP3    H152652   5.492   3.687   0.693  0.0819 -0.8733 -0.8012
10387TIP3    H252653   5.447   3.774   0.577  0.1796  0.6082  0.2618
10388TIP3   OH252654   4.111   1.929   2.164  0.0426 -0.0232  0.0347
10388TIP3    H152655   4.016   1.921   2.156  0.0425 -0.9882  0.8335
10388TIP3    H252656   4.144   1.853   2.116  0.4087  0.3756 -0.3368
10389TIP3   OH252657   6.657   0.809   1.613 -0.2830  0.4381 -0.2547
10389TIP3    H152658   6.604   0.756   1.672  0.7018 -0.6676 -0.3537
10389TIP3    H252659   6.593   0.858   1.561 -1.1937 -0.3327  0.1363
10390TIP3   OH252660   1.028   3.191  12.605  0.5526  0.2795  0.0425
10390TIP3    H152661   1.105   3.220  12.654  0.3237  0.2852  0.4031
10390TIP3    H252662   0.961   3.177  12.672 -0.1378  1.4924 -0.3962
10391TIP3   OH252663   0.113   6.630   5.644  0.5534 -0.0802  0.4089
10391TIP3    H152664   0.132   6.609   5.552  2.9050 -0.0167  0.8450
10391TIP3    H252665   0.087   6.721   5.644  0.6974 -0.0408 -0.1919
10392TIP3   OH252666   3.870   0.987  15.052 -0.1408 -0.5756 -0.8466
10392TIP3    H152667   3.877   0.893  15.070  2.6150 -0.3867 -0.6407
10392TIP3    H252668   3.914   0.998  14.968  1.1306  0.7599 -0.0338
10393TIP3   OH252669   0.460   3.243  12.326  0.0826 -0.3545  0.0524
10393TIP3    H152670   0.441   3.159  12.283 -0.4789 -0.5883  0.7488
10393TIP3    H252671   0.391   3.302  12.294  0.6714 -0.0598 -0.6969
10394TIP3   OH252672   1.372   2.098   5.834 -0.0007 -0.0643  0.0323
10394TIP3    H152673   1.400   2.126   5.922  0.6742 -0.0351 -0.1842
10394TIP3    H252674   1.370   2.179   5.783  1.5508 -0.3254 -0.4891
10395TIP3   OH252675   4.178   2.050  10.811 -0.7106 -0.4095  0.0368
10395TIP3    H152676   4.102   2.016  10.765 -0.3251 -2.3697  0.8087
10395TIP3    H252677   4.252   2.032  10.753 -0.8923  2.2302 -1.0860
10396TIP3   OH252678   0.089   2.988   2.893 -0.1242  0.0440 -0.0130
10396TIP3    H152679   0.010   2.962   2.845  0.4724 -1.0630 -0.4296
10396TIP3    H252680   0.080   3.082   2.905 -1.9772 -0.2078  0.7877
10397TIP3   OH252681   0.932   3.954   3.239 -0.1703  0.2072  0.0745
10397TIP3    H152682   0.994   3.976   3.308  0.2641 -1.1878  0.1494
10397TIP3    H252683   0.945   4.022   3.172  0.9242  0.3330  0.4124
10398TIP3   OH252684   2.189   1.882  11.156  0.4105  0.8451  0.0555
10398TIP3    H152685   2.262   1.867  11.096  0.3377 -1.0929  0.4389
10398TIP3    H252686   2.113   1.894  11.099  0.9188  2.3734 -0.3291
10399TIP3   OH252687   1.226   5.908   1.550  0.5993  0.1966  0.6204
10399TIP3    H152688   1.269   5.895   1.466  0.1621  2.2125  0.0726
10399TIP3    H252689   1.205   5.819   1.580 -2.7312 -0.4418 -3.1919
10400TIP3   OH252690   2.712   0.010   0.983  0.2326  0.1292 -0.2069
10400TIP3    H152691   2.665   0.053   0.912 -0.2095 -1.0605 -0.6521
10400TIP3    H252692   2.657   0.023   1.060  0.0477  0.2536 -0.3590
10401TIP3   OH252693   4.239   1.154  14.663  0.6355 -0.5109  0.0275
10401TIP3    H152694   4.213   1.174  14.752 -0.9756 -0.6257 -0.4042
10401TIP3    H252695   4.254   1.239  14.622  0.4167 -0.4265  0.1254
10402TIP3   OH252696   2.525   1.389   2.891  0.7005 -0.4491 -0.0323
10402TIP3    H152697   2.490   1.463   2.842  1.5388 -0.3193 -0.4304
10402TIP3    H252698   2.498   1.405   2.981 -2.5112 -1.6346 -0.6740
10403TIP3   OH252699   2.785   6.762   0.277  0.1044  0.3435  0.5855
10403TIP3    H152700   2.794   6.751   0.372 -0.6584  1.5190  0.7968
10403TIP3    H252701   2.712   6.822   0.267 -0.8771 -1.0493 -0.8071
10404TIP3   OH252702   0.059   5.723   4.150  0.0655  0.1750  0.3032
10404TIP3    H152703   0.136   5.727   4.093 -0.6812  0.0811 -0.7262
10404TIP3    H252704  -0.012   5.693   4.093 -0.3773 -1.3642  1.6159
10405TIP3   OH252705   1.208   6.470  11.192  0.0613 -0.0932  0.1939
10405TIP3    H152706   1.201   6.565  11.184  1.7456  0.0760  0.5293
10405TIP3    H252707   1.253   6.443  11.112 -2.8900 -0.9528 -1.2309
10406TIP3   OH252708   3.171   1.469  14.480 -0.0814  0.5060  0.2139
10406TIP3    H152709   3.241   1.497  14.420  0.5022 -0.1706  0.5686
10406TIP3    H252710   3.090   1.498  14.437  0.4138  1.2611 -0.2215
10407TIP3   OH252711   0.833   6.204   0.642  0.2476 -0.1271 -0.0314
10407TIP3    H152712   0.751   6.202   0.593  0.2713  0.9942 -0.1282
10407TIP3    H252713   0.860   6.296   0.640  1.5943 -0.5201 -0.1406
10408TIP3   OH252714   5.511   6.461  15.000  0.3979 -0.1438  0.0424
10408TIP3    H152715   5.548   6.536  15.046 -2.5890  1.9397 -0.7821
10408TIP3    H252716   5.539   6.471  14.909  1.1724 -0.8374  0.1969
10409TIP3   OH252717   4.048   3.327   0.061 -0.3652  0.1692 -1.0194
10409TIP3    H152718   3.987   3.263   0.099 -1.4861  1.5861 -0.4133
10409TIP3    H252719   3.994   3.380   0.003  0.6903  0.2084 -1.9905
10410TIP3   OH252720   3.245   0.506   3.242 -0.3525 -0.2233  0.4026
10410TIP3    H152721   3.299   0.574   3.202  0.5314 -0.3318  1.3780
10410TIP3    H252722   3.298   0.426   3.234 -0.9317 -0.5879  0.1988
10411TIP3   OH252723   4.974   2.299   4.134 -0.2426 -0.4487 -0.0263
10411TIP3    H152724   5.040   2.320   4.068 -0.7446 -0.9321 -0.6876
10411TIP3    H252725   4.936   2.384   4.157 -0.3102 -0.3184 -0.6161
10412TIP3   OH252726   2.975   4.309   3.475 -0.1086  0.2007  0.2679
10412TIP3    H152727   2.960   4.289   3.383 -2.4922  0.1817  0.6128
10412TIP3    H252728   2.983   4.404   3.479  0.5258  0.1621 -0.0112
10413TIP3   OH252729   0.213   4.424  11.746  0.5478 -0.1780 -0.5479
10413TIP3    H152730   0.253   4.441  11.661  0.7507 -1.5671 -0.7406
10413TIP3    H252731   0.164   4.343  11.734  1.3109 -0.8879  0.9011
10414TIP3   OH252732   3.723   2.192  14.438  0.2892  1.1089 -0.3141
10414TIP3    H152733   3.685   2.219  14.521  1.1001  1.5853 -0.0882
10414TIP3    H252734   3.749   2.101  14.451  1.1309  1.4210  0.2166
10415TIP3   OH252735   2.500   1.092   6.525  0.1026 -0.5801 -0.9248
10415TIP3    H152736   2.516   1.106   6.432  0.3569  1.6776 -0.5611
10415TIP3    H252737   2.442   1.163   6.551  1.6345  0.0090  1.0598
10416TIP3   OH252738   4.770   1.282  14.540 -0.1566 -0.0065  0.4992
10416TIP3    H152739   4.785   1.265  14.447  0.6326  2.5874  0.0964
10416TIP3    H252740   4.686   1.329  14.542  0.7179  1.5916  0.8669
10417TIP3   OH252741   2.423   4.002  11.747  0.8308 -0.1660  0.7901
10417TIP3    H152742   2.374   4.065  11.694 -0.6533 -0.3103  1.9608
10417TIP3    H252743   2.490   4.055  11.790  1.2419  0.1616 -0.2127
10418TIP3   OH252744   4.306   5.981   5.632  0.1815 -0.1299 -0.2835
10418TIP3    H152745   4.363   5.935   5.571  0.1310 -1.2543  0.4990
10418TIP3    H252746   4.360   6.050   5.670  0.6429 -0.3848 -0.4856
10419TIP3   OH252747   4.297   5.008   0.856 -0.0967 -0.4924  0.0188
10419TIP3    H152748   4.240   4.941   0.817  0.5866 -0.8887 -0.3044
10419TIP3    H252749   4.238   5.062   0.909 -0.6126 -1.4817  0.4585
10420TIP3   OH252750   4.765   3.433   3.544  0.0196 -0.2166 -0.7173
10420TIP3    H152751   4.771   3.477   3.629  0.3675  0.7013 -1.2026
10420TIP3    H252752   4.736   3.344   3.564  0.1017 -0.0033  0.3579
10421TIP3   OH252753   1.880   1.585  15.044  0.4241  0.7746 -0.5494
10421TIP3    H152754   1.868   1.663  15.098  1.9355  0.1363  0.7496
10421TIP3    H252755   1.792   1.553  15.029 -0.1056  1.7142  0.4579
10422TIP3   OH252756   4.007   2.650  12.512 -0.1915  0.1037 -0.6005
10422TIP3    H152757   4.019   2.684  12.601  0.3578  0.9413 -0.9813
10422TIP3    H252758   4.095   2.650  12.474 -0.3621 -0.6169 -1.0226
10423TIP3   OH252759   2.744   2.976  16.694 -0.5405 -0.2760 -0.3315
10423TIP3    H152760   2.804   3.049  16.685 -1.6511  0.8613  1.2243
10423TIP3    H252761   2.722   2.973  16.787 -0.1243 -2.9158 -0.2779
10424TIP3   OH252762   4.931   1.664   2.040 -0.0208 -0.3958  0.8102
10424TIP3    H152763   4.967   1.725   1.975  0.1956 -0.4477  0.8842
10424TIP3    H252764   4.883   1.599   1.988  0.2557 -0.5073  0.6958
10425TIP3   OH252765   6.479   3.682  15.731 -0.0240 -0.2530 -0.5478
10425TIP3    H152766   6.443   3.719  15.651 -0.2879  1.9897  0.5722
10425TIP3    H252767   6.403   3.666  15.787  0.4025  1.2393  0.4834
10426TIP3   OH252768   2.863   2.199   0.972  0.3575  0.2919  0.1944
10426TIP3    H152769   2.825   2.146   1.043  1.7052 -0.0751  0.6528
10426TIP3    H252770   2.947   2.228   1.007  0.5577  0.9842 -0.8691
10427TIP3   OH252771   3.007   1.107   2.835 -0.3927  0.3522 -0.3857
10427TIP3    H152772   3.057   1.042   2.786  1.1823  1.4717 -0.3006
10427TIP3    H252773   2.916   1.090   2.812  0.1066 -1.0267 -1.3879
10428TIP3   OH252774   6.566   0.324   1.215 -0.1590  0.2105 -0.2340
10428TIP3    H152775   6.566   0.276   1.132  3.7286 -1.4370  0.6110
10428TIP3    H252776   6.608   0.407   1.194 -2.8898  1.4934 -0.7487
10429TIP3   OH252777   5.176   0.184   2.398 -0.2486 -0.7129 -0.1096
10429TIP3    H152778   5.237   0.182   2.324 -0.5159 -1.0572 -0.3236
10429TIP3    H252779   5.202   0.260   2.449  1.2868 -1.6649  0.5846
10430TIP3   OH252780   2.784   2.870   4.582  0.4616 -0.4405 -0.2960
10430TIP3    H152781   2.797   2.964   4.594 -0.8166 -0.5195  1.9644
10430TIP3    H252782   2.824   2.830   4.659  0.3660 -1.7165 -0.8972
10431TIP3   OH252783   5.786   2.471  15.511 -0.3649  0.5337 -0.1752
10431TIP3    H152784   5.794   2.566  15.505 -0.9252  0.5000 -1.6911
10431TIP3    H252785   5.874   2.439  15.492  0.1206  0.7677  1.5586
10432TIP3   OH252786   5.799   0.792  13.205  0.1424  0.2026  0.2943
10432TIP3    H152787   5.723   0.787  13.262  0.3482 -0.7753  0.4976
10432TIP3    H252788   5.868   0.745  13.252  1.5398  2.9751  1.1271
10433TIP3   OH252789   1.454   1.713  11.345 -0.0329  0.0886  0.9166
10433TIP3    H152790   1.396   1.678  11.413  1.4498  0.0965  2.2198
10433TIP3    H252791   1.540   1.678  11.367  0.5374  0.4187 -0.7527
10434TIP3   OH252792   2.215   5.397  17.059 -0.5928 -0.3367  0.0282
10434TIP3    H152793   2.142   5.431  17.007 -0.9897  1.0847  1.4892
10434TIP3    H252794   2.216   5.303  17.039 -2.8230 -0.3843 -0.0298
10435TIP3   OH252795   5.524   2.327   5.206  0.7466  0.0004 -0.3512
10435TIP3    H152796   5.487   2.382   5.275  0.1872 -0.3670 -0.3563
10435TIP3    H252797   5.489   2.363   5.125  1.8014  0.7445 -0.4879
10436TIP3   OH252798   2.038   0.648  14.831 -0.4820 -0.3107 -0.3697
10436TIP3    H152799   2.123   0.659  14.874  0.8856 -1.4933 -2.6841
10436TIP3    H252800   2.027   0.553  14.823 -1.0135 -0.1209 -2.0404
10437TIP3   OH252801   6.250   0.234   3.797  0.7606  0.2987  0.5127
10437TIP3    H152802   6.261   0.322   3.832  1.1677  0.4920 -0.0899
10437TIP3    H252803   6.254   0.245   3.702 -0.0443 -0.2577  0.4158
10438TIP3   OH252804   5.863   0.246  14.982  0.0082 -0.4403 -0.1041
10438TIP3    H152805   5.934   0.258  15.045 -0.7159 -1.0852  0.8504
10438TIP3    H252806   5.904   0.262  14.897  0.7561  1.4928  0.5786
10439TIP3   OH252807   6.434   5.181  14.947  0.2080  0.1390 -0.3296
10439TIP3    H152808   6.524   5.186  14.916  0.3350  1.8887  0.2502
10439TIP3    H252809   6.442   5.163  15.041 -0.0668 -0.6511 -0.4573
10440TIP3   OH252810   0.402   3.721   4.719 -0.1405  0.0206  0.0378
10440TIP3    H152811   0.468   3.766   4.665 -0.3628  1.9395  1.3049
10440TIP3    H252812   0.336   3.788   4.736 -0.4931 -0.7930  1.9590
10441TIP3   OH252813   3.813   1.782  14.778 -0.2644  0.0349 -0.3161
10441TIP3    H152814   3.803   1.753  14.868 -0.0401  0.8359 -0.0301
10441TIP3    H252815   3.766   1.717  14.726  1.1258 -1.4186  0.2307
10442TIP3   OH252816   3.564   4.620   3.640 -0.2586 -0.1664  0.0555
10442TIP3    H152817   3.640   4.606   3.583 -1.2415 -1.2455 -1.0145
10442TIP3    H252818   3.495   4.650   3.581 -0.4484  1.6351  1.1509
10443TIP3   OH252819   2.156   2.995   6.256  0.0697 -0.2750 -0.1306
10443TIP3    H152820   2.110   2.994   6.339  1.0588  1.0816  0.4433
10443TIP3    H252821   2.194   3.082   6.250 -1.0251  0.0792 -2.5888
10444TIP3   OH252822   0.094   4.344  14.617 -0.5115 -0.3679  0.1946
10444TIP3    H152823   0.130   4.287  14.684 -0.3424 -2.1106 -1.3334
10444TIP3    H252824  -0.001   4.334  14.625 -0.5638  0.9859  1.4698
10445TIP3   OH252825   3.445   3.729  15.348  0.5173  0.3984 -0.3572
10445TIP3    H152826   3.403   3.815  15.346 -1.2807 -0.4292 -0.2256
10445TIP3    H252827   3.500   3.731  15.426  1.1196  1.7031 -0.8118
10446TIP3   OH252828   2.893   2.227  17.275 -0.1271 -0.0506  0.6971
10446TIP3    H152829   2.920   2.149  17.227  0.9744  0.6920  0.0611
10446TIP3    H252830   2.925   2.300  17.221  0.1259  0.8132  1.9835
10447TIP3   OH252831   3.696   2.072  12.109 -0.0814  0.3791 -0.2305
10447TIP3    H152832   3.649   2.085  12.026 -1.9159 -0.2630  0.6956
10447TIP3    H252833   3.669   2.146  12.163  1.6566  1.1814 -0.4210
10448TIP3   OH252834   0.627   2.287  14.083  0.2813  0.0932  0.2036
10448TIP3    H152835   0.586   2.370  14.056  0.0548 -0.6447 -1.8162
10448TIP3    H252836   0.711   2.286  14.038  1.0764  0.0621  1.6850
10449TIP3   OH252837   3.353   1.306   1.640  0.1449  0.5937 -0.4166
10449TIP3    H152838   3.421   1.250   1.678 -0.2096 -0.9899 -2.0209
10449TIP3    H252839   3.280   1.300   1.702 -0.1128 -1.2659 -0.8547
10450TIP3   OH252840   1.150   1.911  13.709  0.4224  0.7710  0.7503
10450TIP3    H152841   1.133   1.904  13.615  0.7703 -0.0728  0.7439
10450TIP3    H252842   1.215   1.981  13.717  2.3975 -0.9366  0.1020
10451TIP3   OH252843   0.672   5.949  12.932 -0.3972  0.4576 -0.1056
10451TIP3    H152844   0.621   5.996  12.866 -2.0649  0.4312  1.1296
10451TIP3    H252845   0.685   5.862  12.895 -0.6455  0.6887 -0.7459
10452TIP3   OH252846   2.239   2.048   3.992 -0.3977 -0.2150  0.1565
10452TIP3    H152847   2.218   2.141   3.999 -1.1660 -0.4310  0.6890
10452TIP3    H252848   2.263   2.036   3.900 -2.3578  0.0784 -0.4191
10453TIP3   OH252849   1.568   1.643  16.971  0.4649 -0.0545 -0.3271
10453TIP3    H152850   1.487   1.632  16.920  0.1294  1.0988 -0.0693
10453TIP3    H252851   1.602   1.554  16.983  0.3169 -0.3700 -2.1849
10454TIP3   OH252852   6.298   1.532   3.848  0.0169 -0.0155  0.0748
10454TIP3    H152853   6.225   1.515   3.789  1.0522 -2.6334 -0.5329
10454TIP3    H252854   6.274   1.485   3.929  1.2823 -1.4259 -0.3512
10455TIP3   OH252855   5.539   3.693  14.908 -0.2335  0.5880  0.4948
10455TIP3    H152856   5.459   3.684  14.856 -0.2747  0.1201  0.6381
10455TIP3    H252857   5.571   3.781  14.887 -0.2335  0.3923 -0.3410
10456TIP3   OH252858   5.239   6.315  14.486 -0.0647  0.4257  1.1353
10456TIP3    H152859   5.252   6.333  14.393  0.3040 -0.1412  1.0794
10456TIP3    H252860   5.196   6.394  14.519 -1.1433  0.2270  0.2690
10457TIP3   OH252861   3.299   1.920  13.945  0.0245 -0.0021 -0.6388
10457TIP3    H152862   3.264   1.913  13.856 -1.4753  0.2431 -0.0823
10457TIP3    H252863   3.259   2.000  13.980  1.0105  0.1807  0.0878
10458TIP3   OH252864   5.413   2.533  14.357  0.0466 -0.5862  0.3528
10458TIP3    H152865   5.426   2.628  14.366 -0.0241 -0.7845  2.8366
10458TIP3    H252866   5.499   2.500  14.330  0.0655  0.1681 -0.5470
10459TIP3   OH252867   0.962   3.235  14.875  0.3701 -0.0753 -0.2679
10459TIP3    H152868   0.929   3.316  14.913  0.9773 -0.0124  0.1346
10459TIP3    H252869   0.957   3.171  14.947  0.9810 -0.1017 -0.2486
10460TIP3   OH252870   2.511   3.758   5.592  0.6384 -0.4910  0.2254
10460TIP3    H152871   2.505   3.666   5.564 -2.1374 -0.5878  1.0349
10460TIP3    H252872   2.461   3.761   5.673  1.3914  1.6055  0.6269
10461TIP3   OH252873   4.283   3.098  13.896  0.2719 -0.7744 -0.4419
10461TIP3    H152874   4.289   3.003  13.911 -0.7136 -0.6952  0.5521
10461TIP3    H252875   4.352   3.117  13.833 -0.6805 -2.4452 -2.0397
10462TIP3   OH252876   4.920   2.991   0.338  0.0835  1.1579 -0.1931
10462TIP3    H152877   4.966   3.072   0.316 -0.1430  1.5186  0.6803
10462TIP3    H252878   4.877   2.965   0.256  0.0996  1.9486 -0.4514
10463TIP3   OH252879   4.745   5.496   5.822  0.1925 -0.1151 -0.7302
10463TIP3    H152880   4.813   5.442   5.863 -0.6136 -0.2516  0.4732
10463TIP3    H252881   4.669   5.485   5.879  0.4157  3.4278  0.3436
10464TIP3   OH252882   1.853   6.560   3.435 -0.4000  0.2855  0.1644
10464TIP3    H152883   1.899   6.627   3.386  0.9362 -0.2537  0.6544
10464TIP3    H252884   1.769   6.551   3.391 -0.3579  1.8546 -0.2511
10465TIP3   OH252885   3.443   1.254  13.223 -0.8900  0.0472 -0.3922
10465TIP3    H152886   3.391   1.284  13.149  0.0930 -0.6482 -1.3889
10465TIP3    H252887   3.503   1.326  13.241 -1.8304  0.6284  0.3987
10466TIP3   OH252888   0.537   0.294   5.838  0.0972  0.0873 -0.1907
10466TIP3    H152889   0.617   0.332   5.874  0.5894 -1.6991  0.6822
10466TIP3    H252890   0.565   0.256   5.754 -0.2029  0.8655 -0.6500
10467TIP3   OH252891   3.573   6.656   2.479 -0.6589  0.4609  0.4256
10467TIP3    H152892   3.549   6.619   2.394 -1.4704  1.5730  0.1723
10467TIP3    H252893   3.495   6.642   2.534 -0.6353  0.9981  0.5922
10468TIP3   OH252894   5.693   4.897  14.531  0.3135 -0.4133  0.5049
10468TIP3    H152895   5.742   4.839  14.471 -0.1428 -0.8220  0.5236
10468TIP3    H252896   5.713   4.863  14.618  1.3060  0.4387  0.6107
10469TIP3   OH252897   1.368   5.807   4.400 -0.5583  0.2701  0.9039
10469TIP3    H152898   1.392   5.715   4.387 -1.2645 -0.0065  1.4908
10469TIP3    H252899   1.358   5.816   4.495  0.2834  1.1523  0.9134
10470TIP3   OH252900   0.213   6.543  10.936 -0.1378  0.0226  0.3219
10470TIP3    H152901   0.215   6.636  10.959 -0.1455 -0.1490  1.0022
10470TIP3    H252902   0.305   6.521  10.919 -0.0649  0.0036  0.7474
10471TIP3   OH252903   2.862   5.858  14.752  0.0027  0.0072  0.4807
10471TIP3    H152904   2.945   5.893  14.785 -0.9683  1.2531  1.6344
10471TIP3    H252905   2.815   5.830  14.831 -0.5212 -1.0690 -0.1970
10472TIP3   OH252906   3.836   4.037   5.349  0.4019 -0.2008 -0.7669
10472TIP3    H152907   3.848   3.954   5.303  1.2959 -0.5272  0.0391
10472TIP3    H252908   3.834   4.103   5.280  2.4367 -0.6038 -1.2411
10473TIP3   OH252909   4.658   0.654  14.263 -0.0281  0.0424 -0.0816
10473TIP3    H152910   4.729   0.641  14.201 -0.1752  1.3079 -0.5243
10473TIP3    H252911   4.653   0.571  14.311  2.0433  0.0940  0.2695
10474TIP3   OH252912   2.827   3.028  14.130  0.0592  0.3365  0.4325
10474TIP3    H152913   2.883   2.952  14.112 -1.7744 -1.1497  0.7613
10474TIP3    H252914   2.872   3.075  14.200  0.4882 -1.2839  1.2713
10475TIP3   OH252915   0.288   5.768   3.992  0.4394 -0.5465 -0.0971
10475TIP3    H152916   0.281   5.696   3.929  2.0694  1.8015 -3.1417
10475TIP3    H252917   0.377   5.801   3.980 -0.0890  1.6111  1.6033
10476TIP3   OH252918   3.828   6.690   0.556  0.1393  0.1723  0.2298
10476TIP3    H152919   3.736   6.669   0.570  0.0859 -1.5220 -2.3413
10476TIP3    H252920   3.875   6.638   0.621 -0.6805  0.9744  1.4898
10477TIP3   OH252921   5.299   0.905  14.367 -0.1096 -0.0216  0.0540
10477TIP3    H152922   5.344   0.822  14.351 -2.3133 -1.1253 -0.6078
10477TIP3    H252923   5.248   0.920  14.288 -0.6316  1.3641  0.6441
10478TIP3   OH252924   2.920   5.322   6.284  0.2932  0.6801  0.3511
10478TIP3    H152925   2.964   5.294   6.364 -1.0640  1.6110  1.4439
10478TIP3    H252926   2.950   5.412   6.270 -1.6986  1.5319  1.4416
10479TIP3   OH252927   1.867   1.028   0.324 -0.1747 -0.9483  0.0100
10479TIP3    H152928   1.859   0.989   0.411 -0.9613 -0.7022  0.0607
10479TIP3    H252929   1.886   1.121   0.341 -2.1641 -0.4909 -0.0172
10480TIP3   OH252930   2.624   3.624   2.567  0.1189  0.2012 -0.2624
10480TIP3    H152931   2.561   3.591   2.503  0.4609  1.2954 -1.1929
10480TIP3    H252932   2.588   3.599   2.652 -0.6587 -0.7347 -0.8502
10481TIP3   OH252933   5.658   3.321   0.644  0.2504 -0.7361 -0.2087
10481TIP3    H152934   5.727   3.367   0.692  1.8267 -0.6846 -2.4203
10481TIP3    H252935   5.637   3.381   0.571 -0.6023 -1.7108 -0.7724
10482TIP3   OH252936   3.677   6.798   2.232 -0.3641  0.4348  0.5680
10482TIP3    H152937   3.715   6.860   2.294  0.4699  0.8231 -0.3064
10482TIP3    H252938   3.736   6.722   2.235  1.9178  1.9581 -2.5075
10483TIP3   OH252939   2.410   4.676   2.259  0.0214 -0.0226  0.1986
10483TIP3    H152940   2.452   4.757   2.230 -0.8532  1.4275  2.8379
10483TIP3    H252941   2.417   4.678   2.355  0.1102 -3.1438  0.3250
10484TIP3   OH252942   6.183   0.100  12.581 -0.3905 -0.4392 -0.0145
10484TIP3    H152943   6.142   0.057  12.506 -2.2225 -0.7313  1.1384
10484TIP3    H252944   6.139   0.184  12.587 -0.0727 -0.3173  0.6076
10485TIP3   OH252945   4.855   4.416   4.497  0.0728 -0.3573  0.0508
10485TIP3    H152946   4.782   4.451   4.446  1.0132 -0.8847 -1.7062
10485TIP3    H252947   4.842   4.451   4.585 -2.2654 -0.4215 -0.2397
10486TIP3   OH252948   3.090   4.730  13.642 -0.0847 -0.2931  0.0729
10486TIP3    H152949   3.148   4.738  13.567  0.2587  0.6843  0.4388
10486TIP3    H252950   3.032   4.657  13.620  0.5388 -0.5297 -0.7840
10487TIP3   OH252951   5.559   5.824  14.726 -0.3839 -0.7453  0.1496
10487TIP3    H152952   5.563   5.750  14.786  0.6446 -1.0350 -0.2801
10487TIP3    H252953   5.602   5.794  14.646  0.2988  0.4048  0.0692
10488TIP3   OH252954   4.699   1.585  16.889  0.3977 -0.5182  0.0361
10488TIP3    H152955   4.648   1.608  16.967 -0.0197  2.5030 -1.0442
10488TIP3    H252956   4.637   1.594  16.817  1.6552  0.1748 -0.9714
10489TIP3   OH252957   2.377   3.965   0.190  0.2261  0.0456 -0.0127
10489TIP3    H152958   2.422   3.903   0.132 -0.2196  0.8639 -1.2435
10489TIP3    H252959   2.343   4.032   0.132  1.5110  1.9699  1.3901
10490TIP3   OH252960   0.131   0.735  13.393 -0.0718 -0.5154 -0.2505
10490TIP3    H152961   0.119   0.816  13.344 -1.2634 -1.0047 -0.7876
10490TIP3    H252962   0.088   0.751  13.477  1.6938  0.2098  0.5434
10491TIP3   OH252963   0.495   0.737  16.728 -0.1009  0.6352  0.2645
10491TIP3    H152964   0.441   0.812  16.704 -2.0007 -0.4480  1.1140
10491TIP3    H252965   0.435   0.663  16.730  1.1050 -0.3287  2.6612
10492TIP3   OH252966   2.758   6.525   0.697 -0.3643  0.3467  0.3669
10492TIP3    H152967   2.753   6.432   0.718 -0.6469  0.4044  0.5622
10492TIP3    H252968   2.673   6.545   0.658  0.2791  0.1650 -1.1590
10493TIP3   OH252969   0.835   2.613   0.417  0.0001 -0.1205  0.3468
10493TIP3    H152970   0.887   2.537   0.394 -0.0359 -0.3056  0.8843
10493TIP3    H252971   0.757   2.606   0.361  0.0390 -0.4243  0.3312
10494TIP3   OH252972   0.001   1.032   3.736 -0.6439 -0.2180 -0.0623
10494TIP3    H152973  -0.086   1.065   3.713 -0.0989  1.8050  0.6513
10494TIP3    H252974   0.027   0.977   3.662 -2.1251 -0.0676 -0.7002
10495TIP3   OH252975   3.410   6.674  15.048 -0.4451 -0.6364  0.2951
10495TIP3    H152976   3.345   6.625  15.098  0.8649 -2.5873  0.1412
10495TIP3    H252977   3.428   6.620  14.971  0.9694  0.1160  0.0691
10496TIP3   OH252978   4.291   5.624  16.017 -0.3027  0.1587  0.8472
10496TIP3    H152979   4.385   5.642  16.007 -0.0836 -2.3172 -2.7057
10496TIP3    H252980   4.287   5.558  16.086  0.5699  0.0810  0.8355
10497TIP3   OH252981   3.365   4.935  16.581 -0.0748 -0.2017 -0.0984
10497TIP3    H152982   3.335   4.952  16.492  1.8772  1.2212 -0.5183
10497TIP3    H252983   3.291   4.961  16.636  0.4772  3.8894 -1.0835
10498TIP3   OH252984   0.515   5.698   3.083 -0.1773 -0.1502 -0.3053
10498TIP3    H152985   0.459   5.730   3.154 -1.7250 -0.4488 -1.3775
10498TIP3    H252986   0.493   5.605   3.076  1.2614 -0.5216 -0.0037
10499TIP3   OH252987   5.249   3.961   2.053 -0.1653 -0.0478 -0.0653
10499TIP3    H152988   5.225   3.887   1.998  0.6258 -0.7663  0.5371
10499TIP3    H252989   5.291   3.921   2.130  1.1738  1.0664 -0.1978
10500TIP3   OH252990   1.775   1.320   5.160  0.6251 -0.3009 -0.2376
10500TIP3    H152991   1.711   1.252   5.139  0.2890 -0.7873  2.2194
10500TIP3    H252992   1.736   1.368   5.234  2.6639 -0.0157  0.7064
10501TIP3   OH252993   3.792   1.497   2.112 -0.0356 -0.0564  0.1977
10501TIP3    H152994   3.871   1.473   2.162  0.3515  1.5933  0.4025
10501TIP3    H252995   3.720   1.466   2.166  0.4231  0.3423  1.0526
10502TIP3   OH252996   5.775   1.206  12.810  0.2500  0.0861 -0.5921
10502TIP3    H152997   5.771   1.240  12.900  3.4696  0.0779 -0.3803
10502TIP3    H252998   5.825   1.272  12.762  2.8103 -2.2230 -1.1928
10503TIP3   OH252999   4.319   5.152  16.043  0.3652 -0.0382 -0.0468
10503TIP3    H153000   4.379   5.096  16.092  2.1136  0.1394 -1.9187
10503TIP3    H253001   4.371   5.184  15.970 -1.7863  0.8242 -1.2356
10504TIP3   OH253002   0.610   4.255   1.346  0.4627 -0.2089 -0.2021
10504TIP3    H153003   0.545   4.272   1.278  1.6504 -2.0050 -1.8271
10504TIP3    H253004   0.689   4.231   1.298  2.0044  0.7771  1.7701
10505TIP3   OH253005   6.506   3.567  13.538 -0.0810  0.3542 -0.0514
10505TIP3    H153006   6.582   3.608  13.495  0.5111  0.3324  0.9493
10505TIP3    H253007   6.523   3.578  13.632 -0.9617 -0.3075  0.1934
10506TIP3   OH253008   0.578   0.148  16.745 -0.1404  0.3150  0.0864
10506TIP3    H153009   0.661   0.130  16.701 -0.0496  0.5106  0.1740
10506TIP3    H253010   0.601   0.212  16.813 -0.0453 -0.9125  1.2261
10507TIP3   OH253011   1.117   0.739  12.518  0.2853  0.3278 -0.5440
10507TIP3    H153012   1.119   0.755  12.612  1.6174 -0.7063 -0.3818
10507TIP3    H253013   1.154   0.651  12.508  4.3540  2.1560 -2.4126
10508TIP3   OH253014   2.788   2.721  14.969 -0.1230  0.2845 -0.2857
10508TIP3    H153015   2.876   2.711  15.005 -0.4981 -0.3478  0.4774
10508TIP3    H253016   2.801   2.765  14.885  1.0458 -0.9524 -0.7734
10509TIP3   OH253017   3.093   6.789  16.477  0.6521  0.1064  0.0908
10509TIP3    H153018   3.020   6.784  16.538  0.6593  0.6079  0.1412
10509TIP3    H253019   3.061   6.748  16.397  0.4795 -0.1127  0.2712
10510TIP3   OH253020   0.972   5.131   5.371 -0.1073  0.1286 -1.0443
10510TIP3    H153021   0.980   5.057   5.430  1.9758  0.4167 -0.9349
10510TIP3    H253022   0.878   5.146   5.363 -0.4596 -1.2138  0.5503
10511TIP3   OH253023   3.865   0.580   3.712  0.2820 -0.3853  0.7471
10511TIP3    H153024   3.848   0.657   3.767  2.4205 -0.3327  1.3528
10511TIP3    H253025   3.779   0.558   3.675 -0.7555  0.9745  2.2805
10512TIP3   OH253026   2.792   2.270   5.314 -0.1737  0.3538 -0.4402
10512TIP3    H153027   2.708   2.230   5.294 -0.0707 -0.3245  0.4738
10512TIP3    H253028   2.770   2.354   5.354 -0.4034  0.4464 -0.7587
10513TIP3   OH253029   3.307   6.443   5.246 -0.4430  0.2194  0.5114
10513TIP3    H153030   3.238   6.379   5.230 -1.5839  1.5628 -0.1531
10513TIP3    H253031   3.362   6.404   5.314 -0.6741 -1.7644 -0.4023
10514TIP3   OH253032   1.139   5.175  13.848 -0.2619 -0.1178 -0.4965
10514TIP3    H153033   1.155   5.258  13.802 -1.1559 -0.3015 -1.1333
10514TIP3    H253034   1.045   5.175  13.866 -0.7037 -2.1131 -2.6412
10515TIP3   OH253035   1.695   2.613   1.047 -0.7088 -0.1022 -0.6030
10515TIP3    H153036   1.601   2.615   1.030 -0.8472  1.3409  0.2330
10515TIP3    H253037   1.727   2.698   1.016  0.2971 -0.5389 -0.7695
10516TIP3   OH253038   2.038   0.810  14.380  0.4602  0.0484  0.3173
10516TIP3    H153039   1.987   0.760  14.316 -0.6055 -0.8163  1.8311
10516TIP3    H253040   2.026   0.764  14.463  1.0226  1.7207  1.3608
10517TIP3   OH253041   6.554   4.567   3.996  0.3271  0.0158 -0.0652
10517TIP3    H153042   6.513   4.652   4.009  2.2346  0.8451  0.8572
10517TIP3    H253043   6.492   4.504   4.031 -0.5752  1.1374  0.3730
10518TIP3   OH253044   3.458   1.806   0.731 -0.2222 -0.4122  0.3288
10518TIP3    H153045   3.455   1.766   0.644  0.0460 -0.7107  0.4538
10518TIP3    H253046   3.369   1.836   0.747 -0.3157 -0.5270  0.0303
10519TIP3   OH253047   3.007   4.420   4.507  0.1293 -0.7028 -0.1041
10519TIP3    H153048   3.059   4.494   4.538 -0.4670 -0.3901  0.1626
10519TIP3    H253049   3.024   4.350   4.569  1.1596 -0.9783 -0.6950
10520TIP3   OH253050   5.008   0.188  11.946  0.2855 -0.5577 -0.0793
10520TIP3    H153051   5.080   0.130  11.920  0.0208 -0.8563 -0.1605
10520TIP3    H253052   4.999   0.175  12.040 -0.0413 -0.9626 -0.1623
10521TIP3   OH253053   2.916   2.485   4.059  0.5395  0.6413 -0.0817
10521TIP3    H153054   2.951   2.454   4.143  0.2572  1.0765  0.2005
10521TIP3    H253055   2.988   2.535   4.020  0.7588  0.2197 -0.2177
10522TIP3   OH253056   5.041   5.995  16.968 -0.6055 -0.9036  0.1152
10522TIP3    H153057   5.077   5.983  16.880 -1.3468  0.2573 -0.3415
10522TIP3    H253058   5.054   6.088  16.987  0.5411 -1.3460  1.6757
10523TIP3   OH253059   4.717   0.124   5.859  0.5085 -0.4171 -0.5234
10523TIP3    H153060   4.665   0.051   5.828 -0.5131 -0.0498  0.3148
10523TIP3    H253061   4.672   0.155   5.937  1.4973  0.4578 -0.2821
10524TIP3   OH253062   3.388   4.047   0.985  0.1712  0.0955  0.6912
10524TIP3    H153063   3.330   3.971   0.983 -0.1976  0.3539  1.5157
10524TIP3    H253064   3.476   4.009   0.986 -0.0240 -0.3441  2.0989
10525TIP3   OH253065   6.225   6.563  16.619 -0.4956 -0.1016  0.1543
10525TIP3    H153066   6.249   6.641  16.568 -1.6899 -0.4001 -0.8831
10525TIP3    H253067   6.274   6.572  16.701 -0.6395  1.7479  0.0530
10526TIP3   OH253068   3.725   3.045   1.264  0.1182 -0.2573  0.7719
10526TIP3    H153069   3.630   3.033   1.257 -0.1189  0.6809  2.0971
10526TIP3    H253070   3.738   3.138   1.244  0.8618 -0.6009 -0.3262
10527TIP3   OH253071   1.405   1.630   3.520 -0.3569 -0.0380 -0.7196
10527TIP3    H153072   1.452   1.684   3.456  1.4621 -2.5588 -1.5672
10527TIP3    H253073   1.474   1.586   3.570 -1.7938 -0.3665  1.0422
10528TIP3   OH253074   6.250   6.787  11.180 -0.6835  0.0170  1.0544
10528TIP3    H153075   6.180   6.846  11.151 -1.4700 -0.6105  1.6213
10528TIP3    H253076   6.314   6.789  11.110 -2.1907 -0.8972 -0.3785
10529TIP3   OH253077   0.204   1.239   3.465  0.1830  0.4601  0.6662
10529TIP3    H153078   0.124   1.262   3.418 -0.2951 -1.2258  0.5982
10529TIP3    H253079   0.216   1.310   3.528 -0.8512  1.2011  0.0447
10530TIP3   OH253080   5.506   4.314  12.656 -0.2601  0.0238  0.5193
10530TIP3    H153081   5.450   4.377  12.612 -2.6561 -2.1979  0.2864
10530TIP3    H253082   5.527   4.355  12.740 -0.9900  1.5029 -0.0092
10531TIP3   OH253083   0.712   6.243  14.085 -0.5981  0.0395  0.5424
10531TIP3    H153084   0.636   6.243  14.027 -0.2740 -0.3972  0.1177
10531TIP3    H253085   0.675   6.245  14.173 -1.0946  0.3407  0.3313
10532TIP3   OH253086   3.857   5.946  11.554  0.1548  0.0326 -0.0885
10532TIP3    H153087   3.893   6.016  11.499  2.5193 -1.5628 -0.6536
10532TIP3    H253088   3.762   5.950  11.540  0.3691  2.2866 -1.0848
10533TIP3   OH253089   4.548   6.029  13.519  0.1658 -0.0003 -0.0898
10533TIP3    H153090   4.589   6.000  13.438  1.1524  0.0370  0.3907
10533TIP3    H253091   4.561   5.957  13.580  0.4231  0.4326  0.3693
10534TIP3   OH253092   1.569   5.235  13.860 -0.0335  0.2227  0.1695
10534TIP3    H153093   1.547   5.320  13.822  0.5499  0.4606  0.3634
10534TIP3    H253094   1.523   5.235  13.945 -1.4917 -0.3878 -0.6074
10535TIP3   OH253095   0.174   2.112   0.488  0.2703  0.2770 -0.9016
10535TIP3    H153096   0.164   2.145   0.398 -0.8082 -0.5429 -1.1033
10535TIP3    H253097   0.117   2.035   0.491  1.6322 -0.7085 -0.0129
10536TIP3   OH253098   3.318   3.018  10.218 -0.5588 -0.5547  0.6176
10536TIP3    H153099   3.312   3.096  10.164 -2.1472 -1.8324 -1.0846
10536TIP3    H253100   3.400   3.029  10.267 -1.0400  2.4054  0.8324
10537TIP3   OH253101   5.768   0.914   3.174 -0.3513  0.5709 -0.3758
10537TIP3    H153102   5.781   0.820   3.184  0.7689  0.5372 -2.0308
10537TIP3    H253103   5.795   0.933   3.084 -1.4580  2.3187 -0.3666
10538TIP3   OH253104   3.231   2.798  11.941  0.2013 -0.1435 -0.2273
10538TIP3    H153105   3.220   2.888  11.912 -2.1570 -0.7313 -1.3281
10538TIP3    H253106   3.291   2.759  11.877  0.3330  0.3553 -0.4035
10539TIP3   OH253107   4.267   4.406   0.181  0.2304 -0.0358  0.2879
10539TIP3    H153108   4.298   4.315   0.181 -0.5886 -0.3212 -0.1465
10539TIP3    H253109   4.218   4.415   0.263  0.6634  0.1360  0.5276
10540TIP3   OH253110   5.020   2.918   1.546  0.8302 -0.6754  0.7140
10540TIP3    H153111   4.955   2.984   1.523  0.7378 -0.5313  1.3686
10540TIP3    H253112   4.999   2.843   1.491  0.2214 -0.5614  0.7935
10541TIP3   OH253113   3.984   2.420   5.298  0.0884  0.4020 -0.4706
10541TIP3    H153114   4.069   2.425   5.342  0.0011 -0.3108 -0.2140
10541TIP3    H253115   3.930   2.484   5.345 -0.2122 -0.8548  0.9528
10542TIP3   OH253116   4.669   4.819   6.938  0.6743 -0.1563  0.0171
10542TIP3    H153117   4.703   4.743   6.891  1.7589  1.3474 -1.6484
10542TIP3    H253118   4.578   4.795   6.958  0.9804 -1.8604 -0.5167
10543TIP3   OH253119   1.674   3.917   6.312 -0.3224 -0.6319 -0.0673
10543TIP3    H153120   1.619   3.988   6.278 -1.3898 -0.4367  1.9880
10543TIP3    H253121   1.694   3.864   6.235 -0.6670  1.1146 -1.4087
10544TIP3   OH253122   4.112   0.224   0.215  0.1314  0.2838 -0.3151
10544TIP3    H153123   4.073   0.138   0.231 -1.6752  1.1416  0.0271
10544TIP3    H253124   4.162   0.242   0.294 -0.0951 -0.1378 -0.0720
10545TIP3   OH253125   2.850   1.234  13.655  0.3400  0.4624 -0.1339
10545TIP3    H153126   2.844   1.139  13.666  2.5265  0.2280 -0.8665
10545TIP3    H253127   2.789   1.254  13.584  1.2935 -0.6423 -1.2664
10546TIP3   OH253128   2.218   2.979  12.236  0.2914 -0.1763  0.0535
10546TIP3    H153129   2.236   2.897  12.282  1.2786 -0.0912 -0.1599
10546TIP3    H253130   2.135   3.010  12.271  0.4369 -0.7377  0.8862
10547TIP3   OH253131   0.967   3.107   1.125  0.2897  0.3108 -0.0971
10547TIP3    H153132   0.992   3.071   1.039 -1.0693 -0.8614 -0.0340
10547TIP3    H253133   1.010   3.049   1.188 -2.0402 -1.4049  0.0064
10548TIP3   OH253134   2.560   3.733   0.556  0.3160  0.0385  0.5145
10548TIP3    H153135   2.485   3.792   0.549 -0.1996 -0.6404  0.1829
10548TIP3    H253136   2.633   3.781   0.516  0.2088  0.9408  1.3771
10549TIP3   OH253137   1.916   1.823   3.678  0.7525  0.2893 -0.1826
10549TIP3    H153138   1.943   1.915   3.689 -2.0765  1.1886 -0.3160
10549TIP3    H253139   1.916   1.809   3.584 -1.4880  1.0492 -0.3283
10550TIP3   OH253140   3.296   3.559  16.898  0.1309  0.5298 -0.2037
10550TIP3    H153141   3.320   3.650  16.914  2.6609  0.1742 -1.6567
10550TIP3    H253142   3.205   3.552  16.926  0.2321  3.2373  0.8809
10551TIP3   OH253143   3.552   5.107  13.492  0.0035  0.3419  0.0949
10551TIP3    H153144   3.488   5.085  13.559 -0.4416 -3.2276 -1.4088
10551TIP3    H253145   3.637   5.091  13.533  0.0294  3.9119  1.6790
10552TIP3   OH253146   4.526   3.581   2.110 -0.4152  0.1012 -0.1837
10552TIP3    H153147   4.598   3.519   2.101  0.9315  1.3193  2.0429
10552TIP3    H253148   4.448   3.529   2.094  0.8149 -1.7546 -0.2471
10553TIP3   OH253149   4.011   4.879  12.984  0.3120  0.8091 -0.0293
10553TIP3    H153150   4.087   4.850  12.933  0.3098  0.8003 -0.0291
10553TIP3    H253151   4.031   4.852  13.074  0.2073  0.6142 -0.0672
10554TIP3   OH253152   0.459   0.594  15.864 -0.2980 -0.1024 -0.2726
10554TIP3    H153153   0.375   0.560  15.896 -1.5155  1.6092 -1.5644
10554TIP3    H253154   0.500   0.632  15.942 -1.3321  0.2302  0.1268
10555TIP3   OH253155   2.415   5.563  12.546 -0.2583 -0.3543  0.1509
10555TIP3    H153156   2.340   5.539  12.601  0.6075 -1.1828  1.0057
10555TIP3    H253157   2.491   5.537  12.598  0.6169  0.3124 -0.7851
10556TIP3   OH253158   6.042   2.406  16.935  0.1564  1.0124  0.1403
10556TIP3    H153159   6.108   2.353  16.891  0.5762 -1.3494  3.4300
10556TIP3    H253160   5.964   2.397  16.880  0.8433 -1.2778 -0.5174
10557TIP3   OH253161   3.434   5.438   0.633  0.1708  0.0589 -0.4672
10557TIP3    H153162   3.473   5.439   0.720  0.0616 -3.2928 -0.2909
10557TIP3    H253163   3.343   5.414   0.647  0.0989 -0.3246 -1.4856
10558TIP3   OH253164   5.807   6.653  12.820  0.1308 -0.1768  0.2690
10558TIP3    H153165   5.809   6.599  12.741 -0.0053  0.2285 -0.0142
10558TIP3    H253166   5.801   6.743  12.787 -0.7353 -0.0519  0.7474
10559TIP3   OH253167   2.003   2.676   4.751  0.4401 -1.0505 -0.2478
10559TIP3    H153168   1.945   2.605   4.779 -0.1375 -0.2318  0.6508
10559TIP3    H253169   1.977   2.693   4.660 -1.5089  0.0793  0.5074
10560TIP3   OH253170   1.602   5.756  12.880 -0.4798 -0.1806 -0.6409
10560TIP3    H153171   1.515   5.790  12.858  0.3640  0.7148 -2.6873
10560TIP3    H253172   1.662   5.805  12.824  1.3673 -0.7469  0.7926
10561TIP3   OH253173   5.054   2.435   5.968 -0.2926 -0.2743  0.0850
10561TIP3    H153174   5.059   2.380   5.891  0.9344 -0.8744  0.5884
10561TIP3    H253175   5.060   2.375   6.042  0.6005  0.4746  0.6413
10562TIP3   OH253176   2.370   2.371  11.422  0.0365  0.1648  0.1491
10562TIP3    H153177   2.375   2.282  11.456  1.1971  0.6497  1.2934
10562TIP3    H253178   2.366   2.360  11.327 -0.1491 -1.1104  0.2922
10563TIP3   OH253179   0.180   3.225  14.269 -0.0580 -0.2241 -0.1848
10563TIP3    H153180   0.144   3.314  14.269  1.2777  0.3451 -1.5420
10563TIP3    H253181   0.138   3.182  14.194  0.7692 -0.1084 -0.7165
10564TIP3   OH253182   4.995   6.768   5.433 -0.2004 -0.1574 -0.1033
10564TIP3    H153183   4.985   6.768   5.338  0.7748 -0.9499 -0.2142
10564TIP3    H253184   5.075   6.718   5.448 -1.0874 -1.1858  1.2132
10565TIP3   OH253185   6.431   0.139  11.810  0.3134  0.5603 -0.2490
10565TIP3    H153186   6.352   0.086  11.796  0.2174  0.9486 -1.1377
10565TIP3    H253187   6.424   0.167  11.901  0.0330 -0.4139  0.0402
10566TIP3   OH253188   4.320   0.053  12.322  0.4810 -0.2641  0.1030
10566TIP3    H153189   4.322   0.082  12.230  0.2994 -0.6098 -0.0123
10566TIP3    H253190   4.409   0.064  12.353  0.5013  0.0449 -0.0580
10567TIP3   OH253191   3.518   3.576  14.952 -0.4916  0.0287 -0.3432
10567TIP3    H153192   3.562   3.498  14.985 -1.5841 -0.2443  0.4862
10567TIP3    H253193   3.545   3.581  14.860  1.9163  0.3467  0.3438
10568TIP3   OH253194   0.080   5.041  17.188 -0.1888  0.0585 -0.1198
10568TIP3    H153195  -0.012   5.031  17.164 -0.3262  2.5044 -0.6908
10568TIP3    H253196   0.109   4.952  17.209 -2.0460 -1.0861 -2.2244
10569TIP3   OH253197   5.978   5.247   2.256  0.3935  0.6663  0.3473
10569TIP3    H153198   5.909   5.206   2.308 -0.6373  1.4179 -0.4009
10569TIP3    H253199   5.938   5.327   2.223  1.1637  0.3993 -1.2589
10570TIP3   OH253200   4.475   5.471   5.682  0.3369 -0.7485 -0.1809
10570TIP3    H153201   4.540   5.407   5.654  1.8809  0.8311 -0.2287
10570TIP3    H253202   4.493   5.484   5.775  1.0156  0.7408 -0.5086
10571TIP3   OH253203   3.991   5.882  15.252  0.0828  0.1189 -0.1389
10571TIP3    H153204   4.016   5.812  15.312  1.8630 -0.1242 -1.1238
10571TIP3    H253205   3.906   5.854  15.217  0.4420 -1.2077  0.0165
10572TIP3   OH253206   3.044   2.069   3.340  0.2537 -0.1965  0.3134
10572TIP3    H153207   3.081   1.984   3.319 -3.2514 -1.8629  0.4902
10572TIP3    H253208   2.992   2.053   3.419  0.8107  2.4857  1.2749
10573TIP3   OH253209   0.203   4.913  15.669 -0.1139  0.2024  0.0490
10573TIP3    H153210   0.280   4.901  15.725 -1.4636 -2.0843  1.5452
10573TIP3    H253211   0.140   4.958  15.726 -1.2710 -1.5648  0.2069
10574TIP3   OH253212   5.676   5.802  12.558  0.4840  0.1678  0.3108
10574TIP3    H153213   5.727   5.736  12.606  1.6170  0.5507 -0.3584
10574TIP3    H253214   5.585   5.775  12.571  0.8913 -1.0392  0.7727
10575TIP3   OH253215   2.767   3.072  15.564  0.2179 -0.2289  0.1085
10575TIP3    H153216   2.819   3.043  15.639 -2.3654 -5.1506  0.2060
10575TIP3    H253217   2.685   3.103  15.603 -0.5529 -1.4309 -0.5059
10576TIP3   OH253218   0.458   4.027  12.002 -0.8251  0.0435  0.7228
10576TIP3    H153219   0.395   3.963  11.971 -2.2466  1.0015  1.5767
10576TIP3    H253220   0.436   4.040  12.094  1.7388 -0.9045  1.5021
10577TIP3   OH253221   3.452   1.088  11.016  0.5990 -0.1112  0.0279
10577TIP3    H153222   3.434   1.129  11.101 -3.0163  0.1737 -0.8215
10577TIP3    H253223   3.502   1.009  11.038  2.1211  1.3886  2.1682
10578TIP3   OH253224   0.956   0.336  17.048  0.0073 -0.6791  0.1225
10578TIP3    H153225   0.927   0.411  17.099  0.2602  0.0546 -0.8074
10578TIP3    H253226   1.002   0.373  16.973 -1.8231 -1.6670 -1.5440
10579TIP3   OH253227   3.319   5.916   3.274 -0.4599  0.4728  0.0749
10579TIP3    H153228   3.316   5.841   3.334  0.4062 -1.4043 -2.1648
10579TIP3    H253229   3.245   5.970   3.300 -2.2083 -2.0641  0.5751
10580TIP3   OH253230   4.273   1.306   5.162 -0.1216  0.0856 -0.2602
10580TIP3    H153231   4.355   1.342   5.195 -0.2759 -0.5766  0.8612
10580TIP3    H253232   4.293   1.214   5.144 -0.6466 -0.0948  0.0824
10581TIP3   OH253233   5.372   1.124   0.774  0.2585  0.2559  0.1688
10581TIP3    H153234   5.302   1.182   0.745  0.0734 -0.6022 -1.1207
10581TIP3    H253235   5.437   1.183   0.813 -0.9305  1.1056  0.9156
10582TIP3   OH253236   4.657   4.162   5.717  0.5244  0.9341  0.3764
10582TIP3    H153237   4.597   4.233   5.742 -0.8067  0.3837 -1.1334
10582TIP3    H253238   4.618   4.083   5.756  2.3813  1.0992  2.6552
10583TIP3   OH253239   2.922   4.742   3.720 -0.1330  0.3914 -0.5576
10583TIP3    H153240   2.977   4.688   3.776  0.1076 -0.9420 -2.0689
10583TIP3    H253241   2.912   4.824   3.769  3.1091  0.6548 -0.2252
10584TIP3   OH253242   3.859   6.439  14.840 -0.2228 -0.7100 -0.6295
10584TIP3    H153243   3.954   6.428  14.835 -0.0651 -0.1919  1.0154
10584TIP3    H253244   3.847   6.530  14.865 -1.0757 -1.3654  1.4517
10585TIP3   OH253245   6.391   4.053  15.633  0.1746 -0.3749 -0.9892
10585TIP3    H153246   6.391   4.095  15.547  2.4354 -0.3048 -0.9951
10585TIP3    H253247   6.482   4.027  15.646 -0.1643 -0.4498  1.3545
10586TIP3   OH253248   3.947   6.598   6.345  0.6275 -0.2595  0.1702
10586TIP3    H153249   4.008   6.541   6.300  0.4451 -0.6886  0.4622
10586TIP3    H253250   3.889   6.539   6.393  1.0545  0.1867  1.2711
10587TIP3   OH253251   0.795   4.975   4.561 -0.5345  0.1049 -0.0164
10587TIP3    H153252   0.723   5.018   4.608 -0.1749  0.2536  0.4068
10587TIP3    H253253   0.848   4.937   4.631  1.5720  2.7352 -0.1080
10588TIP3   OH253254   4.941   4.686  11.971 -0.3242  0.9052  0.3710
10588TIP3    H153255   5.028   4.667  11.935 -0.2381  0.3906  0.8403
10588TIP3    H253256   4.947   4.776  12.002 -0.9902  2.0628 -2.6551
10589TIP3   OH253257   2.455   1.032   0.437 -0.0346 -0.1478  0.3014
10589TIP3    H153258   2.362   1.054   0.425  0.3395  1.3562  0.0475
10589TIP3    H253259   2.456   0.975   0.514 -1.2669 -0.9815 -0.2852
10590TIP3   OH253260   6.730   1.285   1.963  0.1184  0.2821  0.1551
10590TIP3    H153261   6.637   1.268   1.978  0.0702  0.5500  0.1476
10590TIP3    H253262   6.734   1.376   1.935  0.4811  0.5562  1.0820
10591TIP3   OH253263   4.642   2.153   6.574  0.3329 -0.2722 -0.1396
10591TIP3    H153264   4.607   2.195   6.653 -1.6132 -0.6073 -0.7926
10591TIP3    H253265   4.598   2.068   6.570 -1.3866  0.6627 -2.7987
10592TIP3   OH253266   2.750   3.749   1.291  0.1619  0.1008  0.5361
10592TIP3    H153267   2.829   3.728   1.340  0.4792 -0.6047 -0.2530
10592TIP3    H253268   2.735   3.671   1.237  0.0377  1.0035 -0.7506
10593TIP3   OH253269   0.433   6.441   2.431  0.4769  0.0589  0.2473
10593TIP3    H153270   0.438   6.532   2.402  1.5507  0.2721  1.0546
10593TIP3    H253271   0.409   6.392   2.352 -1.6656  1.2089  0.1641
10594TIP3   OH253272   3.350   2.898   0.322 -0.0363  0.4630  0.1124
10594TIP3    H153273   3.318   2.982   0.291  1.4205  1.0103  0.0277
10594TIP3    H253274   3.371   2.913   0.415 -3.0775 -0.7835  1.0454
10595TIP3   OH253275   5.867   6.499   3.239 -0.3278  0.1962 -0.1421
10595TIP3    H153276   5.808   6.451   3.182  0.4097 -0.7580 -0.0961
10595TIP3    H253277   5.875   6.586   3.198 -0.5488 -0.1690 -0.9622
10596TIP3   OH253278   2.103   2.593  11.814  0.0825  0.1442  0.2861
10596TIP3    H153279   2.026   2.541  11.838  0.3451  0.2025  1.2681
10596TIP3    H253280   2.174   2.529  11.813 -0.0449  0.0214 -0.9964
10597TIP3   OH253281   1.409   6.623  17.127 -0.4339  1.2283  0.1983
10597TIP3    H153282   1.368   6.541  17.156 -0.6013  1.4173  0.4946
10597TIP3    H253283   1.399   6.683  17.201 -2.3868  2.2570 -0.8600
10598TIP3   OH253284   3.580   0.556  16.821 -0.3440 -0.2063  0.7379
10598TIP3    H153285   3.584   0.487  16.755 -1.2458  0.5622 -0.1400
10598TIP3    H253286   3.570   0.510  16.904  0.1152 -1.1610  0.2637
10599TIP3   OH253287   4.466   1.495   5.924  0.2855 -0.0126  0.0974
10599TIP3    H153288   4.551   1.493   5.880 -0.7426 -2.1767 -1.8973
10599TIP3    H253289   4.479   1.444   6.004  0.5111 -1.5536 -0.9092
10600TIP3   OH253290   3.199   6.598   4.923  0.0540 -0.1834 -0.2446
10600TIP3    H153291   3.240   6.669   4.874  0.8591  0.4596  1.3343
10600TIP3    H253292   3.213   6.520   4.869 -0.2877  0.7465 -1.6911
10601TIP3   OH253293   2.015   5.214   6.497  0.1862 -0.0070 -0.0699
10601TIP3    H153294   2.095   5.263   6.517 -0.5867  0.6886  1.4144
10601TIP3    H253295   2.034   5.125   6.526  0.5240  0.0904  0.0115
10602TIP3   OH253296   6.640   2.988   1.339 -0.2035  0.4984 -0.4792
10602TIP3    H153297   6.717   2.992   1.283  1.5864 -0.2907  1.8342
10602TIP3    H253298   6.608   3.078   1.342 -0.8755  0.3747 -3.4701
10603TIP3   OH253299   0.332   2.930  17.209 -0.1660 -0.7367  0.0776
10603TIP3    H153300   0.330   2.970  17.296 -2.3541 -0.3697 -0.1240
10603TIP3    H253301   0.360   3.001  17.151  2.6340 -1.3364  0.6333
10604TIP3   OH253302   2.654   5.644  11.653 -0.2941 -0.1201  0.4694
10604TIP3    H153303   2.614   5.680  11.732  0.6113 -0.0635  0.9061
10604TIP3    H253304   2.627   5.552  11.652  0.3147 -0.3138  1.2570
10605TIP3   OH253305   6.254   4.034  14.084 -0.0782  0.2246 -0.1471
10605TIP3    H153306   6.347   4.044  14.063  0.2059  0.2815  1.1519
10605TIP3    H253307   6.210   4.101  14.031  0.1448 -2.5011 -4.0632
10606TIP3   OH253308   5.872   4.577  15.846 -0.1397  0.5343 -0.1146
10606TIP3    H153309   5.864   4.482  15.855  0.7193  0.3627 -1.0824
10606TIP3    H253310   5.784   4.605  15.819 -0.3320 -0.0190 -0.0815
10607TIP3   OH253311   4.971   2.465  14.479  0.0723  0.1020 -0.2916
10607TIP3    H153312   4.938   2.375  14.481  1.0040 -0.2437 -0.0777
10607TIP3    H253313   4.995   2.484  14.570 -1.4661  1.0931 -0.0721
10608TIP3   OH253314   4.379   4.273   5.754  0.0530 -0.0295  0.6541
10608TIP3    H153315   4.386   4.357   5.801  0.1042 -1.2155  2.8273
10608TIP3    H253316   4.327   4.218   5.812 -0.8235 -1.2135 -1.2178
10609TIP3   OH253317   0.588   2.626  17.057 -0.3192 -0.0461 -0.2576
10609TIP3    H153318   0.498   2.657  17.045 -0.5661 -0.9664 -0.8443
10609TIP3    H253319   0.582   2.561  17.127 -0.0586  0.1088 -0.0906
10610TIP3   OH253320   0.249   6.812   3.373  0.0619 -0.0969 -0.0501
10610TIP3    H153321   0.159   6.834   3.348 -0.6980  0.4459  3.0257
10610TIP3    H253322   0.295   6.896   3.375  0.2007 -0.1750  0.0495
10611TIP3   OH253323   0.061   1.084  11.161  0.2482 -0.6160  0.2549
10611TIP3    H153324   0.072   1.031  11.082  2.0468  0.4136 -0.2178
10611TIP3    H253325   0.053   1.173  11.129 -0.6276 -0.3598  1.1690
10612TIP3   OH253326   5.636   4.538   0.856  0.1251 -0.2116 -0.3061
10612TIP3    H153327   5.556   4.491   0.830 -0.6182  1.1164 -0.4637
10612TIP3    H253328   5.606   4.626   0.878  1.4710  0.1218  0.2455
10613TIP3   OH253329   6.642   3.662  12.623 -0.0718  0.3166 -0.2173
10613TIP3    H153330   6.590   3.737  12.653 -0.8209 -0.0899 -0.4860
10613TIP3    H253331   6.726   3.671  12.668  0.8345  2.7921 -2.2782
10614TIP3   OH253332   2.017   3.333  12.628 -0.0542 -0.4272  0.0753
10614TIP3    H153333   1.999   3.310  12.720 -0.0237  3.1606  1.0703
10614TIP3    H253334   2.104   3.373  12.630  0.5178 -1.5282 -1.7807
10615TIP3   OH253335   1.889   0.542  12.162 -0.2248  0.1357  0.0329
10615TIP3    H153336   1.933   0.601  12.223 -2.7772  1.6544  0.4982
10615TIP3    H253337   1.911   0.575  12.076  1.2335 -0.3953  0.1969
10616TIP3   OH253338   0.303   1.177  13.467 -0.3537  0.3383 -0.2191
10616TIP3    H153339   0.237   1.215  13.525 -0.8181  0.3542 -0.7584
10616TIP3    H253340   0.386   1.209  13.502 -0.4125 -1.8566  2.1103
10617TIP3   OH253341   2.836   5.697   5.547 -0.8541 -0.0784 -0.0739
10617TIP3    H153342   2.857   5.606   5.570 -0.9828  0.4573  2.3767
10617TIP3    H253343   2.741   5.703   5.557 -0.6999  0.6426  1.1401
10618TIP3   OH253344   5.193   2.525   2.905 -0.5791 -0.1021  0.3440
10618TIP3    H153345   5.192   2.619   2.888 -1.5794 -0.2951 -0.8188
10618TIP3    H253346   5.208   2.517   2.999  2.4940  1.1283  0.0069
10619TIP3   OH253347   5.996   5.680   6.574 -0.2517 -0.1523  0.2899
10619TIP3    H153348   5.967   5.664   6.664  1.4869  1.0696  1.1108
10619TIP3    H253349   6.074   5.736   6.584 -0.8289  1.1260 -2.0333
10620TIP3   OH253350   5.450   1.992   1.281 -0.6438  0.5861 -0.0441
10620TIP3    H153351   5.464   1.993   1.376 -0.5828 -0.7214 -0.0203
10620TIP3    H253352   5.359   1.963   1.271 -0.6639  0.7664 -0.3791
10621TIP3   OH253353   5.900   2.819  13.137 -0.3584 -0.2814  0.0072
10621TIP3    H153354   5.856   2.776  13.210  0.1695  1.0541  1.1428
10621TIP3    H253355   5.830   2.859  13.086 -0.5048  2.3149  2.1114
10622TIP3   OH253356   6.690   2.934  13.832  0.3155  0.7530  0.0640
10622TIP3    H153357   6.743   2.860  13.861 -0.1119  0.8979  1.2779
10622TIP3    H253358   6.752   2.997  13.797  0.5036 -1.0698 -3.0332
10623TIP3   OH253359   5.153   3.300   2.692 -0.3932 -0.3502 -0.1062
10623TIP3    H153360   5.236   3.293   2.645 -0.3827  1.4966 -0.4080
10623TIP3    H253361   5.176   3.289   2.785 -0.1177 -1.8739 -0.3445
10624TIP3   OH253362   4.060   1.692   5.135  0.4273 -0.7296 -0.1751
10624TIP3    H153363   3.974   1.650   5.129 -1.0915  1.9894  1.5774
10624TIP3    H253364   4.063   1.752   5.061  0.0249  0.5071  0.7886
10625TIP3   OH253365   0.299   1.080   0.397  0.0727  0.3071 -0.2598
10625TIP3    H153366   0.250   1.019   0.452  1.5529 -1.6033 -1.0067
10625TIP3    H253367   0.284   1.166   0.438 -1.0693 -0.6929  1.5156
10626TIP3   OH253368   4.300   6.469  16.405  0.5014 -0.0081  0.0118
10626TIP3    H153369   4.211   6.504  16.411 -0.1486 -1.6066 -0.1986
10626TIP3    H253370   4.349   6.539  16.361 -0.6576  0.8664  0.0678
10627TIP3   OH253371   2.682   3.336  12.456 -0.0874 -0.7993 -0.5967
10627TIP3    H153372   2.648   3.309  12.371  0.7333  0.5793 -1.3706
10627TIP3    H253373   2.747   3.403  12.436  0.8778 -1.2184  1.0517
10628TIP3   OH253374   3.643   0.139   0.142 -0.2753 -0.1555 -0.2384
10628TIP3    H153375   3.551   0.144   0.116 -0.1162  0.9464 -0.6102
10628TIP3    H253376   3.671   0.052   0.114 -1.4352 -0.8378  0.6619
10629TIP3   OH253377   4.604   4.608  15.320  0.3479 -0.5893  0.3442
10629TIP3    H153378   4.538   4.674  15.342  0.8032 -0.1418  0.3835
10629TIP3    H253379   4.630   4.629  15.230 -0.4618 -1.5261 -0.1114
10630TIP3   OH253380   3.034   4.948   5.465 -0.3101  0.1441  0.0167
10630TIP3    H153381   3.090   5.011   5.510  0.6913 -1.1197  0.5953
10630TIP3    H253382   2.947   4.962   5.502 -0.2569  1.7151 -0.4426
10631TIP3   OH253383   0.171   5.262   2.105 -0.7435  0.1306 -0.0778
10631TIP3    H153384   0.243   5.318   2.133 -1.1007  1.0106 -0.8731
10631TIP3    H253385   0.137   5.225   2.187  0.0992  0.3343  0.3722
10632TIP3   OH253386   4.472   2.555  15.573  0.2645 -0.4126 -0.2820
10632TIP3    H153387   4.435   2.547  15.661  1.6432 -0.8369  0.2700
10632TIP3    H253388   4.458   2.647  15.550  2.4085  0.4121  1.5383
10633TIP3   OH253389   0.583   5.272  16.013  0.4652 -1.3348  0.0331
10633TIP3    H153390   0.540   5.222  15.944 -1.9539 -1.4186  1.5371
10633TIP3    H253391   0.640   5.208  16.057  2.5187 -1.1305 -2.2116
10634TIP3   OH253392   4.416   3.111  16.457  0.2483  0.5642  0.1463
10634TIP3    H153393   4.356   3.184  16.441 -1.4286 -0.2109  2.5704
10634TIP3    H253394   4.375   3.063  16.529  2.6089 -1.3421  0.2445
10635TIP3   OH253395   6.206   1.288   0.702  0.5795 -0.0021  0.0584
10635TIP3    H153396   6.279   1.288   0.639  0.3329  0.5931 -0.2284
10635TIP3    H253397   6.134   1.330   0.655 -0.0283 -0.8225  0.2509
10636TIP3   OH253398   3.161   5.640   0.845 -0.1441  0.1832  0.0871
10636TIP3    H153399   3.130   5.693   0.771  2.4809 -1.3787 -2.2069
10636TIP3    H253400   3.165   5.551   0.811 -1.5845 -1.0595  3.0086
10637TIP3   OH253401   3.708   4.624   5.214  0.3644 -0.0122  0.3930
10637TIP3    H153402   3.742   4.535   5.221 -0.5054 -0.2272  2.1503
10637TIP3    H253403   3.720   4.661   5.302  0.4104  1.4959 -0.2359
10638TIP3   OH253404   5.757   2.170  11.827  0.7114 -0.0377  0.3103
10638TIP3    H153405   5.822   2.111  11.788  0.9801  1.0101 -0.8493
10638TIP3    H253406   5.807   2.248  11.851  0.1783  0.1066  0.9570
10639TIP3   OH253407   6.589   0.036   5.086  0.3789  0.3339 -0.5552
10639TIP3    H153408   6.583   0.040   4.990  0.1311  0.3459 -0.5404
10639TIP3    H253409   6.534   0.108   5.116  0.2234  0.1493 -0.3972
10640TIP3   OH253410   1.805   2.364  14.165  0.6906  0.1279 -0.1453
10640TIP3    H153411   1.863   2.300  14.124 -0.1825 -0.6570 -0.1889
10640TIP3    H253412   1.773   2.417  14.091  2.1648  1.2618  0.0032
10641TIP3   OH253413   4.269   2.736   6.491 -0.0196  0.0978  0.0981
10641TIP3    H153414   4.221   2.813   6.462  0.8816  1.4463  2.0264
10641TIP3    H253415   4.358   2.768   6.505  0.6374 -1.5682 -0.1354
10642TIP3   OH253416   2.295   3.159  16.505  0.1716  0.2179 -0.3658
10642TIP3    H153417   2.329   3.155  16.594  0.0549  1.9028 -0.2133
10642TIP3    H253418   2.346   3.096  16.455  0.7115 -0.2215  0.7490
10643TIP3   OH253419   3.087   3.458   3.147 -0.2564 -0.5817  0.0527
10643TIP3    H153420   3.147   3.533   3.152  1.1440 -1.6788 -0.0800
10643TIP3    H253421   3.050   3.451   3.235 -0.6459  0.4589 -0.0194
10644TIP3   OH253422   6.502   2.254   4.018  0.0526 -0.0390 -0.1844
10644TIP3    H153423   6.464   2.241   4.105 -0.8154 -2.2938 -0.8768
10644TIP3    H253424   6.494   2.169   3.975  2.7391  0.3735 -1.5986
10645TIP3   OH253425   4.288   6.137  13.451  0.4681 -0.0296 -0.8350
10645TIP3    H153426   4.254   6.060  13.406 -1.3967 -0.3943  1.0870
10645TIP3    H253427   4.374   6.111  13.483  0.1570 -1.0859 -0.8309
10646TIP3   OH253428   1.431   3.054  14.157 -0.0836  0.2439  0.7834
10646TIP3    H153429   1.437   3.126  14.220 -1.0954  0.1544  0.9858
10646TIP3    H253430   1.506   3.067  14.099  1.3389 -0.1241  2.4713
10647TIP3   OH253431   0.901   6.715   5.546  0.3432 -0.2406  0.0054
10647TIP3    H153432   0.914   6.787   5.608  1.2888  0.4530 -0.9584
10647TIP3    H253433   0.824   6.669   5.578 -0.0775  1.0036  0.8453
10648TIP3   OH253434   2.664   6.278  13.586  0.0088  0.8479  1.2118
10648TIP3    H153435   2.697   6.320  13.507 -0.0420  0.3175  0.9098
10648TIP3    H253436   2.569   6.274  13.574 -0.0736  1.4445  1.6317
10649TIP3   OH253437   6.418   5.701  16.924 -0.0728 -0.0942 -0.4459
10649TIP3    H153438   6.338   5.745  16.953 -0.2289  0.1613 -1.2304
10649TIP3    H253439   6.388   5.640  16.857 -0.1741 -3.0548  2.1812
10650TIP3   OH253440   1.036   4.985   5.093 -0.0067 -0.1710  0.1155
10650TIP3    H153441   1.023   5.059   5.152 -0.5702 -0.2189  0.0541
10650TIP3    H253442   0.948   4.960   5.066  0.3629  2.1188 -3.5568
10651TIP3   OH253443   6.322   3.098   2.399 -0.4573 -0.3640 -0.1053
10651TIP3    H153444   6.253   3.112   2.334  0.9760  0.7305 -1.4291
10651TIP3    H253445   6.388   3.164   2.378 -0.2537  0.4476  2.8999
10652TIP3   OH253446   5.840   4.368  12.117  0.2695 -0.6787 -0.1136
10652TIP3    H153447   5.916   4.311  12.128  0.5589 -0.3511 -0.3970
10652TIP3    H253448   5.878   4.452  12.092 -0.1709 -0.4297  0.0761
10653TIP3   OH253449   3.750   0.041   3.871  0.8464 -0.2168 -0.3714
10653TIP3    H153450   3.829   0.054   3.818  0.8282 -0.0883 -0.3682
10653TIP3    H253451   3.680   0.030   3.807  0.8862 -0.4493 -0.3750
10654TIP3   OH253452   4.953   4.060   0.182  0.2726 -0.1333 -0.2621
10654TIP3    H153453   4.900   3.981   0.190 -1.1232  0.8500  0.5135
10654TIP3    H253454   5.020   4.038   0.117 -1.1043 -1.4010 -1.2832
10655TIP3   OH253455   1.420   5.174  16.156  0.2563 -0.1323 -0.0953
10655TIP3    H153456   1.514   5.190  16.148 -0.0625  2.8272  1.4466
10655TIP3    H253457   1.379   5.253  16.121 -1.6696 -1.2112 -0.3499
10656TIP3   OH253458   6.229   2.286   1.031 -0.3278  0.2025 -0.3451
10656TIP3    H153459   6.264   2.344   0.964 -0.2608  0.0586 -0.4350
10656TIP3    H253460   6.136   2.308   1.037  0.1467  1.8945  1.2170
10657TIP3   OH253461   1.313   5.126   1.868  0.1042  0.3828 -0.1467
10657TIP3    H153462   1.304   5.061   1.938 -0.3056  1.5122  0.8735
10657TIP3    H253463   1.238   5.185   1.881  0.2385  0.8188 -1.3092
10658TIP3   OH253464   0.752   5.717   4.382  0.5353 -0.1829 -0.1017
10658TIP3    H153465   0.722   5.802   4.349 -0.5039 -0.8462 -0.8995
10658TIP3    H253466   0.823   5.692   4.322  1.1993  0.3424  0.4447
10659TIP3   OH253467   2.742   1.821   2.772  0.0458  0.2095  0.0149
10659TIP3    H153468   2.685   1.853   2.701 -0.2210  0.4342  0.3284
10659TIP3    H253469   2.694   1.842   2.852  1.2789  1.8092  0.3436
10660TIP3   OH253470   4.028   5.684  15.929 -0.2842 -0.1240 -0.4689
10660TIP3    H153471   4.025   5.633  15.849 -1.1797  0.9031 -1.0966
10660TIP3    H253472   4.122   5.688  15.951  0.3506  2.3971 -3.3021
10661TIP3   OH253473   2.599   4.163   1.738  0.6133  0.3985 -0.2301
10661TIP3    H153474   2.514   4.142   1.698  0.9297  0.2741 -0.8354
10661TIP3    H253475   2.579   4.234   1.799  0.1268  0.5957 -0.6149
10662TIP3   OH253476   4.248   4.872   1.165 -0.5745 -0.6984 -0.6704
10662TIP3    H153477   4.181   4.830   1.110 -2.4223 -0.3565  1.2223
10662TIP3    H253478   4.294   4.799   1.206 -0.8231 -0.9408 -0.8144
10663TIP3   OH253479   0.960   1.521  13.612  0.3222 -0.0795 -0.5673
10663TIP3    H153480   1.037   1.521  13.556  0.5587  1.2542 -0.2602
10663TIP3    H253481   0.920   1.607  13.599 -0.5576 -0.3839  0.0355
10664TIP3   OH253482   2.497   6.273   4.100  0.1798  0.4165 -0.0169
10664TIP3    H153483   2.550   6.199   4.071  1.8693  0.9570  1.5535
10664TIP3    H253484   2.407   6.242   4.096  0.9696 -2.3244  2.3169
10665TIP3   OH253485   2.560   6.448   4.858  0.8160  0.3663 -0.2685
10665TIP3    H153486   2.547   6.489   4.772 -0.1238  1.4982  0.4036
10665TIP3    H253487   2.473   6.446   4.897  1.4720  1.2195  1.2667
10666TIP3   OH253488   0.457   1.362   3.824 -0.3618  0.6095 -0.3924
10666TIP3    H153489   0.478   1.316   3.742  0.4420 -0.8013  0.5914
10666TIP3    H253490   0.362   1.369   3.824 -0.4895 -1.0139 -0.5897
10667TIP3   OH253491   0.726   3.192   4.790 -0.4503  1.0021  0.0221
10667TIP3    H153492   0.739   3.122   4.854 -0.9874  1.4340  0.6054
10667TIP3    H253493   0.793   3.176   4.724  0.2692  0.6857  0.8135
10668TIP3   OH253494   4.610   1.251  12.638  1.3327 -0.2555 -0.0378
10668TIP3    H153495   4.580   1.161  12.646 -4.2647  1.1620 -2.5364
10668TIP3    H253496   4.666   1.251  12.560  0.8296 -1.3915 -0.4002
10669TIP3   OH253497   4.731   1.715  13.710 -0.1785  0.2003  0.9731
10669TIP3    H153498   4.658   1.746  13.764 -1.1583  0.5118 -0.5074
10669TIP3    H253499   4.745   1.785  13.646  0.8650 -0.2257  0.7241
10670TIP3   OH253500   4.013   5.065   5.177 -0.3510  0.1889  0.4043
10670TIP3    H153501   4.013   5.078   5.083  0.6798  1.6787  0.5883
10670TIP3    H253502   4.104   5.046   5.200 -0.7082 -0.8640  1.0211
10671TIP3   OH253503   3.768   6.634  11.313 -0.0602 -0.0797  0.1161
10671TIP3    H153504   3.781   6.539  11.321  0.2846 -0.1415 -1.0704
10671TIP3    H253505   3.853   6.668  11.285 -0.6259  0.3691 -1.0813
10672TIP3   OH253506   3.133   0.644   2.853 -0.1211  0.4219 -0.5057
10672TIP3    H153507   3.047   0.671   2.886  0.1564  0.1363  0.4765
10672TIP3    H253508   3.187   0.634   2.932  0.1236 -1.7907 -0.9257
10673TIP3   OH253509   3.399   3.110  11.261 -0.5663  0.4941  0.3867
10673TIP3    H153510   3.368   3.104  11.352  0.1208  1.4203  0.6965
10673TIP3    H253511   3.382   3.201  11.237 -0.9442  0.1928 -0.4991
10674TIP3   OH253512   2.553   3.206  15.652 -0.3018  0.1929  0.2073
10674TIP3    H153513   2.479   3.265  15.638 -0.7387 -0.8063 -1.8859
10674TIP3    H253514   2.514   3.128  15.690 -0.0698  0.3324  0.7314
10675TIP3   OH253515   1.646   4.980  11.390 -0.5830 -0.0655 -0.9111
10675TIP3    H153516   1.727   4.982  11.441 -1.8848  0.5660  1.1905
10675TIP3    H253517   1.624   5.072  11.375 -0.2523 -0.2394 -2.6022
10676TIP3   OH253518   2.184   5.490   4.715  0.3491  0.3191 -0.2242
10676TIP3    H153519   2.204   5.456   4.628  1.2739 -1.2588  0.5631
10676TIP3    H253520   2.217   5.422   4.775 -0.2068  1.4012  1.3479
10677TIP3   OH253521   2.048   0.326   5.560  0.4867  0.1647 -0.3951
10677TIP3    H153522   2.045   0.414   5.522  1.9938 -0.1984 -1.4238
10677TIP3    H253523   2.130   0.324   5.609  1.1880 -1.1048 -1.5597
10678TIP3   OH253524   0.314   3.712   0.282 -0.2062  0.0578  0.6495
10678TIP3    H153525   0.311   3.769   0.205  2.0520  0.0542  0.5330
10678TIP3    H253526   0.306   3.772   0.357 -0.4593  0.2436  0.4764
10679TIP3   OH253527   2.610   6.772  15.127 -0.1004 -0.7034  0.1514
10679TIP3    H153528   2.698   6.810  15.118  0.5515 -1.9117  1.2294
10679TIP3    H253529   2.552   6.848  15.132  1.0647  0.1551  1.0320
10680TIP3   OH253530   5.968   5.636  15.983  0.0873 -0.3229  0.0331
10680TIP3    H153531   6.057   5.608  16.005  0.4131  0.2889 -0.4745
10680TIP3    H253532   5.924   5.648  16.067  0.9950  0.9957  0.3337
10681TIP3   OH253533   3.938   5.162  11.373 -0.2246  0.4015 -0.2318
10681TIP3    H153534   3.884   5.239  11.353 -0.4455  0.3036 -0.0159
10681TIP3    H253535   3.932   5.153  11.468  0.2241  0.4274 -0.2017
10682TIP3   OH253536   4.186   2.122  16.540 -0.5283  0.0527  0.4702
10682TIP3    H153537   4.194   2.165  16.455 -0.1300  0.4505  0.7098
10682TIP3    H253538   4.276   2.097  16.563 -0.8634 -1.7421 -0.1010
10683TIP3   OH253539   1.219   5.815   5.552  0.1211  0.4732 -0.5874
10683TIP3    H153540   1.200   5.768   5.472  1.9496 -0.7729 -0.3349
10683TIP3    H253541   1.172   5.767   5.621  1.1355 -0.3746 -0.4779
10684TIP3   OH253542   6.025   3.950  13.179 -0.2208 -1.0695  0.2124
10684TIP3    H153543   6.088   4.010  13.139  0.3654 -0.6667  1.6984
10684TIP3    H253544   6.051   3.945  13.271 -1.5598 -1.9437  0.5682
10685TIP3   OH253545   6.696   0.778  14.593 -0.0986  0.3908 -0.6430
10685TIP3    H153546   6.632   0.849  14.599  0.4861  0.7932  1.2303
10685TIP3    H253547   6.760   0.799  14.661  0.9276 -1.0969 -1.1418
10686TIP3   OH253548   1.996   0.000   3.289 -0.1759  0.1731 -0.0310
10686TIP3    H153549   1.951   0.077   3.324  1.2554  0.8323  0.4168
10686TIP3    H253550   2.039   0.033   3.210  1.6668  0.2114  0.9711
10687TIP3   OH253551   3.713   3.138   6.032  0.2376 -0.7844  0.4275
10687TIP3    H153552   3.714   3.043   6.018  1.5002 -0.6639 -0.3985
10687TIP3    H253553   3.773   3.152   6.105  1.9648 -0.4113 -1.0272
10688TIP3   OH253554   5.443   5.755  16.676 -0.2974 -0.0903 -0.0798
10688TIP3    H153555   5.368   5.696  16.667 -0.9681  0.4181  1.8311
10688TIP3    H253556   5.514   5.712  16.628 -1.7277 -0.7342 -1.6340
10689TIP3   OH253557   0.765   1.640   0.837 -0.5150 -0.5653  0.6196
10689TIP3    H153558   0.698   1.573   0.821 -1.8148  1.0339 -0.9974
10689TIP3    H253559   0.783   1.676   0.750  1.1632  0.2251  1.2859
10690TIP3   OH253560   3.932   5.411   5.037 -0.2176 -0.2777  0.0412
10690TIP3    H153561   3.991   5.338   5.019  0.2279  0.0994 -0.0492
10690TIP3    H253562   3.868   5.409   4.966  2.1660  1.8735 -2.2942
10691TIP3   OH253563   4.791   4.448   1.420  0.4691 -0.2136  0.4270
10691TIP3    H153564   4.860   4.482   1.363  0.0069 -0.1718 -0.0998
10691TIP3    H253565   4.818   4.475   1.508  0.9752  0.0567  0.1907
10692TIP3   OH253566   0.088   3.103  13.741 -0.4397  0.0008 -0.6442
10692TIP3    H153567   0.172   3.062  13.763  0.0366  1.2226 -0.1658
10692TIP3    H253568   0.066   3.068  13.655  0.2332 -0.8273 -0.4863
10693TIP3   OH253569   0.258   2.071   1.860 -0.1124 -0.1271 -0.2435
10693TIP3    H153570   0.329   2.033   1.808 -0.2990 -1.1681  0.2364
10693TIP3    H253571   0.244   2.007   1.930 -0.2239  0.9941  0.7707
10694TIP3   OH253572   3.020   6.696   2.406 -0.1010  0.3550  0.3397
10694TIP3    H153573   2.950   6.717   2.469 -1.1614 -1.4226 -0.2161
10694TIP3    H253574   2.974   6.661   2.330  1.3064  0.8220 -0.7471
10695TIP3   OH253575   3.388   5.716  16.496  0.1333 -0.3593 -0.2512
10695TIP3    H153576   3.306   5.766  16.499  0.6259  0.6028 -2.4517
10695TIP3    H253577   3.359   5.626  16.481 -0.5974 -0.2808  0.6119
10696TIP3   OH253578   1.750   3.490  16.955  0.0597  0.1382  0.0282
10696TIP3    H153579   1.820   3.426  16.952  0.7737  0.9279 -0.3562
10696TIP3    H253580   1.758   3.530  17.042 -0.3607 -0.2560  0.2525
10697TIP3   OH253581   5.641   0.273  16.164  0.6606 -0.3924  0.1744
10697TIP3    H153582   5.631   0.257  16.258 -0.0687  0.0065  0.1673
10697TIP3    H253583   5.604   0.360  16.150  0.0818 -0.7587 -0.6104
10698TIP3   OH253584   1.134   5.982  14.108  0.0329 -0.0658  0.1021
10698TIP3    H153585   1.133   6.069  14.148  1.4939 -0.6195  1.4197
10698TIP3    H253586   1.042   5.962  14.092 -0.2261  2.5510 -2.1318
10699TIP3   OH253587   5.593   5.780   1.739 -0.0349  0.4482  0.0258
10699TIP3    H153588   5.576   5.870   1.766  0.4877 -0.0116  2.0588
10699TIP3    H253589   5.535   5.765   1.665 -0.6306  2.2416  0.1031
10700TIP3   OH253590   1.033   3.083  15.961 -0.3524  0.0596  0.1984
10700TIP3    H153591   1.040   3.122  16.048 -0.5578 -0.2880  0.3722
10700TIP3    H253592   0.942   3.100  15.935  0.0778  1.3378 -0.5112
10701TIP3   OH253593   5.466   6.225   4.651 -0.7506 -0.4694  0.0924
10701TIP3    H153594   5.524   6.163   4.605 -0.7603 -1.0328  0.8222
10701TIP3    H253595   5.386   6.175   4.667 -0.9199 -0.1309  0.3025
10702TIP3   OH253596   0.585   4.066  16.261  0.3822 -0.4331 -0.4830
10702TIP3    H153597   0.503   4.115  16.257  0.5434 -0.1363 -0.1672
10702TIP3    H253598   0.591   4.036  16.352  0.3952 -0.8479 -0.6182
10703TIP3   OH253599   6.074   0.118  11.017  0.9533 -0.3540  0.4885
10703TIP3    H153600   6.019   0.149  11.089  2.9421 -0.3142  2.0308
10703TIP3    H253601   6.135   0.190  11.001  2.1674 -1.3781  0.4914
10704TIP3   OH253602   0.718   2.504  13.479 -0.1855 -0.6186 -0.3179
10704TIP3    H153603   0.764   2.424  13.453 -0.4423 -0.8138 -0.1667
10704TIP3    H253604   0.781   2.551  13.534 -1.0290 -2.0279  1.9072
10705TIP3   OH253605   1.655   0.908  11.285 -0.4834 -0.3485  0.5917
10705TIP3    H153606   1.728   0.936  11.230 -1.9131  0.9845 -0.6744
10705TIP3    H253607   1.637   0.982  11.342 -2.1863  0.1647 -0.5548
10706TIP3   OH253608   5.537   5.282   2.689 -0.0359  0.4104  0.2972
10706TIP3    H153609   5.530   5.187   2.683 -2.5743  0.4879  1.1913
10706TIP3    H253610   5.540   5.300   2.783  0.9799  1.1760  0.1217
10707TIP3   OH253611   3.103   5.093  11.225  0.0489 -0.1389  0.5389
10707TIP3    H153612   3.158   5.037  11.170 -0.6026  1.1870 -1.5223
10707TIP3    H253613   3.152   5.174  11.235 -0.3238  0.0369  1.0116
10708TIP3   OH253614   1.815   3.489  13.897 -0.3583 -0.2866 -0.4216
10708TIP3    H153615   1.833   3.459  13.807 -1.1858 -0.9817 -0.3582
10708TIP3    H253616   1.759   3.566  13.886 -2.3441 -1.6931 -0.4615
10709TIP3   OH253617   1.434   3.315   3.831 -0.0561  0.2386  0.7670
10709TIP3    H153618   1.475   3.229   3.845 -1.6649 -0.4749  1.2200
10709TIP3    H253619   1.340   3.297   3.830 -0.3514  1.7702 -0.8533
10710TIP3   OH253620   1.709   5.262   1.908 -0.3749 -0.0515  0.3336
10710TIP3    H153621   1.750   5.348   1.906 -1.7038  0.5838 -0.1434
10710TIP3    H253622   1.653   5.260   1.831 -1.1992 -0.9151  0.9378
10711TIP3   OH253623   3.922   1.623  12.673 -0.0222 -0.1357 -0.1666
10711TIP3    H153624   3.933   1.669  12.756  1.5202  0.7547 -0.8252
10711TIP3    H253625   3.830   1.636  12.650 -0.0482  1.0774  0.5583
10712TIP3   OH253626   4.327   6.454  12.820  0.0999  0.4474 -0.4480
10712TIP3    H153627   4.360   6.539  12.790 -1.5760  1.0897 -0.5282
10712TIP3    H253628   4.385   6.430  12.892  0.5309  1.7067 -0.3614
10713TIP3   OH253629   1.451   6.796  16.645  0.1967 -0.2647  0.1684
10713TIP3    H153630   1.408   6.760  16.723 -0.2245  2.4394  1.2422
10713TIP3    H253631   1.529   6.840  16.679 -0.4778  1.7336 -0.8014
10714TIP3   OH253632   5.921   1.708   6.243 -0.2984 -0.1500  0.1779
10714TIP3    H153633   5.994   1.656   6.277  0.3447  0.6910  0.0902
10714TIP3    H253634   5.962   1.775   6.189 -1.2439 -0.6898 -1.2269
10715TIP3   OH253635   0.498   2.566   4.367 -0.1316 -0.0481 -0.3888
10715TIP3    H153636   0.573   2.527   4.412 -0.6954  0.1381  0.7308
10715TIP3    H253637   0.424   2.508   4.388 -0.3428 -0.1239 -1.3208
10716TIP3   OH253638   6.793   3.305   5.337  0.0402  0.4342 -0.0537
10716TIP3    H153639   6.831   3.378   5.386  0.0791  0.9287 -0.8139
10716TIP3    H253640   6.715   3.281   5.387  1.1179 -0.3325  1.2976
10717TIP3   OH253641   1.743   6.334   2.860  0.0733 -0.0716 -0.2929
10717TIP3    H153642   1.762   6.386   2.782  1.6932 -2.6126 -1.6409
10717TIP3    H253643   1.681   6.267   2.830 -0.9223  0.1908  1.1071
10718TIP3   OH253644   0.648   3.339   2.261 -0.2183  0.6314 -0.5511
10718TIP3    H153645   0.586   3.276   2.225  1.2534 -0.9788 -0.3281
10718TIP3    H253646   0.631   3.338   2.355  1.1339 -0.9133 -0.3175
10719TIP3   OH253647   5.782   5.450   0.015  0.7890  0.4018  0.3056
10719TIP3    H153648   5.697   5.488  -0.008 -0.1488 -1.9404 -0.1829
10719TIP3    H253649   5.820   5.514   0.075 -1.2492  1.5792  0.4122
10720TIP3   OH253650   2.588   3.139   2.471  0.2318  0.0824  0.1448
10720TIP3    H153651   2.610   3.049   2.450  1.7813  0.2423  1.0315
10720TIP3    H253652   2.609   3.189   2.392  1.7614  0.0256  0.5058
10721TIP3   OH253653   2.982   2.964  13.858 -0.0082  0.0117  0.4861
10721TIP3    H153654   3.035   2.907  13.803 -0.7256  0.3805 -0.6009
10721TIP3    H253655   3.030   3.048  13.858  0.0348 -0.0127  0.4944
10722TIP3   OH253656   2.855   2.625  13.908  0.4895  0.7089  0.9619
10722TIP3    H153657   2.827   2.534  13.906 -1.5163  1.2589  1.7743
10722TIP3    H253658   2.877   2.641  14.000 -2.2374  1.8456  1.4971
10723TIP3   OH253659   0.480   5.880  14.199 -0.0860 -0.0252 -0.2227
10723TIP3    H153660   0.421   5.930  14.143 -0.5123 -1.4545 -1.0741
10723TIP3    H253661   0.486   5.795  14.157  1.2938 -0.4252  0.7564
10724TIP3   OH253662   3.953   1.086   5.714 -0.3127 -0.5317 -0.4146
10724TIP3    H153663   3.878   1.126   5.757 -0.2862 -0.2194 -0.6610
10724TIP3    H253664   4.014   1.158   5.698  0.0301 -0.7778 -0.2392
10725TIP3   OH253665   2.213   0.194  12.682  0.0097 -0.0357  0.4277
10725TIP3    H153666   2.246   0.148  12.759  0.3325 -1.3272 -0.4577
10725TIP3    H253667   2.127   0.155  12.666 -1.5807  2.6438  2.1562
10726TIP3   OH253668   4.297   5.022   3.851 -0.1821 -0.2939  0.0081
10726TIP3    H153669   4.239   5.056   3.919  1.2257  0.9443  0.6280
10726TIP3    H253670   4.291   5.087   3.781  0.1846 -0.3398 -0.0665
10727TIP3   OH253671   6.267   3.717  15.019 -0.4396 -0.0876  0.1857
10727TIP3    H153672   6.189   3.704  15.073  1.0694 -1.6389  2.0487
10727TIP3    H253673   6.339   3.685  15.073  1.6105  2.1176 -1.1509
10728TIP3   OH253674   4.914   1.779  11.964 -0.9995 -0.3545  0.1381
10728TIP3    H153675   4.845   1.813  11.907 -1.1954  1.1205  1.2219
10728TIP3    H253676   4.936   1.694  11.927 -0.9540  0.6823 -2.2742
10729TIP3   OH253677   1.212   4.254   4.516  0.2306 -0.1486 -0.1957
10729TIP3    H153678   1.282   4.224   4.458  2.4370  1.3425  1.6033
10729TIP3    H253679   1.252   4.324   4.568 -2.2321 -0.1174  1.7675
10730TIP3   OH253680   3.963   6.800  16.775  0.2364  0.1543  0.2462
10730TIP3    H153681   3.985   6.818  16.684  1.1447  0.0787  0.4483
10730TIP3    H253682   3.878   6.757  16.771  0.5406 -0.3736 -0.6112
10731TIP3   OH253683   3.342   1.576   0.924 -0.1194 -0.3744 -0.0305
10731TIP3    H153684   3.378   1.490   0.946 -0.1166 -0.6937 -1.2574
10731TIP3    H253685   3.301   1.606   1.005 -1.7192 -2.3226 -0.0883
10732TIP3   OH253686   5.024   2.831   3.460 -0.4970 -0.1352 -0.4090
10732TIP3    H153687   5.011   2.768   3.389 -0.8405  0.0244 -0.4887
10732TIP3    H253688   5.107   2.805   3.500  0.5424  0.8179 -1.9446
10733TIP3   OH253689   4.052   0.829  13.911  0.1821 -0.0499  0.3542
10733TIP3    H153690   4.137   0.858  13.944  0.3473 -1.4264  1.1836
10733TIP3    H253691   4.073   0.777  13.833 -0.0158  0.9888 -0.3909
10734TIP3   OH253692   6.606   0.413   0.482  0.0596  0.7836 -0.7290
10734TIP3    H153693   6.530   0.362   0.455 -1.4312  1.8861  1.1933
10734TIP3    H253694   6.681   0.361   0.456 -1.3992 -1.3944 -0.6915
10735TIP3   OH253695   6.394   3.620   2.108 -0.1214  0.3138  0.3097
10735TIP3    H153696   6.478   3.602   2.149 -0.3238 -0.8617  0.2139
10735TIP3    H253697   6.395   3.569   2.027 -1.5682 -0.9931  1.0856
10736TIP3   OH253698   6.300   0.354  13.651 -0.1310 -0.1733 -0.3610
10736TIP3    H153699   6.341   0.331  13.734 -2.2408 -1.0288  0.4883
10736TIP3    H253700   6.206   0.340  13.666 -0.4125 -1.9279 -3.3804
10737TIP3   OH253701   5.956   3.705  11.331  0.7575  0.3724 -0.0552
10737TIP3    H153702   6.028   3.762  11.356  1.1584  1.1348 -2.8238
10737TIP3    H253703   5.983   3.666  11.248 -2.1364  0.9073 -1.3002
10738TIP3   OH253704   4.775   3.743   0.927  0.1310  0.2807  0.0541
10738TIP3    H153705   4.759   3.828   0.886  1.3688  0.3332 -0.3424
10738TIP3    H253706   4.788   3.683   0.854 -0.6367 -0.2375  0.3356
10739TIP3   OH253707   2.214   0.382   6.088  0.6364 -0.4553 -0.2517
10739TIP3    H153708   2.267   0.304   6.072 -0.3453 -0.6344 -2.7403
10739TIP3    H253709   2.130   0.363   6.048  0.1097  1.5563 -0.1607
10740TIP3   OH253710   4.517   0.373   3.447  0.6749  0.3484 -0.6232
10740TIP3    H153711   4.473   0.417   3.374 -0.8953 -0.0728  0.0480
10740TIP3    H253712   4.496   0.427   3.523  1.8697  0.4900 -0.3775
10741TIP3   OH253713   6.572   0.591  13.374 -0.1571  0.1973  0.2920
10741TIP3    H153714   6.616   0.637  13.303 -1.3714  1.3253  0.2629
10741TIP3    H253715   6.577   0.498  13.349 -1.0463  0.6220 -1.5235
10742TIP3   OH253716   3.273   0.376   4.820  0.9511 -0.3094  0.3249
10742TIP3    H153717   3.224   0.353   4.899  2.2930 -1.6176  0.8159
10742TIP3    H253718   3.310   0.462   4.839 -2.1197  1.2886 -0.5571
10743TIP3   OH253719   1.862   3.126   5.013  0.2206 -0.5402  0.9261
10743TIP3    H153720   1.943   3.166   4.983 -0.2834  0.0273  0.3122
10743TIP3    H253721   1.841   3.173   5.094  0.0687 -0.1243  0.6473
10744TIP3   OH253722   0.528   4.261  12.729 -0.7755  1.0271  0.1508
10744TIP3    H153723   0.575   4.224  12.804  1.1078 -1.3661 -2.1024
10744TIP3    H253724   0.580   4.337  12.703 -1.5576  1.9988  1.3650
10745TIP3   OH253725   4.273   4.816   5.057 -0.1423  0.1827  0.3877
10745TIP3    H153726   4.283   4.888   5.119 -0.1118  0.5067  0.0102
10745TIP3    H253727   4.323   4.744   5.096 -0.4053  0.2740  0.9042
10746TIP3   OH253728   1.708   1.447   2.553  0.4756  0.5284  0.1550
10746TIP3    H153729   1.766   1.375   2.579 -0.9557 -0.6601  0.0751
10746TIP3    H253730   1.744   1.478   2.470  0.3653 -0.9057 -0.4332
10747TIP3   OH253731   0.910   6.511   4.751  0.1725 -0.2915  0.8316
10747TIP3    H153732   0.922   6.591   4.701  1.2805 -1.4040 -0.7425
10747TIP3    H253733   0.905   6.540   4.842  1.9796  1.4332  0.4119
10748TIP3   OH253734   1.816   5.531   5.204 -0.1174 -0.5695  0.0593
10748TIP3    H153735   1.808   5.437   5.219  0.8648 -0.8043 -0.8685
10748TIP3    H253736   1.832   5.567   5.292  0.5965 -1.3924  0.2845
10749TIP3   OH253737   4.044   3.490   4.596 -0.1335  0.1669 -0.3686
10749TIP3    H153738   3.984   3.434   4.548  0.4173 -1.1197  0.4035
10749TIP3    H253739   3.992   3.524   4.669 -0.5818  0.9868 -1.0745
10750TIP3   OH253740   3.167   6.416   3.617  0.0277 -0.3677  0.3872
10750TIP3    H153741   3.077   6.436   3.641  0.6012  1.3421  1.2155
10750TIP3    H253742   3.215   6.421   3.700  1.0622 -0.2223 -0.2177
10751TIP3   OH253743   6.081   1.635  11.502  0.7209 -0.3032 -0.0809
10751TIP3    H153744   6.067   1.542  11.523  1.4095  0.0103  1.8803
10751TIP3    H253745   6.117   1.634  11.414 -1.4659 -1.7540 -1.0145
10752TIP3   OH253746   0.303   1.211  15.139 -0.2837  0.5794  0.9235
10752TIP3    H153747   0.252   1.194  15.059  1.0091 -1.0089  0.3993
10752TIP3    H253748   0.393   1.221  15.108  0.2250 -0.0031  2.1661
10753TIP3   OH253749   6.196   4.751  14.639 -0.0140 -0.2109  0.3639
10753TIP3    H153750   6.193   4.845  14.656 -0.6118  0.0469 -1.0848
10753TIP3    H253751   6.256   4.716  14.705 -0.2647  1.0971  1.2975
10754TIP3   OH253752   5.688   6.611   0.249 -0.3855 -0.4394  0.3462
10754TIP3    H153753   5.712   6.571   0.332 -2.4214 -2.0155  0.2191
10754TIP3    H253754   5.610   6.563   0.221 -0.6492  1.1115 -1.7015
10755TIP3   OH253755   1.698   3.935   0.033 -0.3689  0.1874 -0.1905
10755TIP3    H153756   1.716   4.029   0.039 -1.1456  0.2389  1.6164
10755TIP3    H253757   1.688   3.907   0.124 -1.6952 -1.3390 -0.7989
10756TIP3   OH253758   4.227   1.215   2.117  0.2707 -0.3848  0.2710
10756TIP3    H153759   4.189   1.187   2.200 -0.7634  0.3174  0.0413
10756TIP3    H253760   4.281   1.141   2.089  1.1144 -0.4009  1.8561
10757TIP3   OH253761   6.260   3.025   5.381  0.4112 -0.2719 -0.1532
10757TIP3    H153762   6.184   3.082   5.399  0.0471 -0.0916 -2.1608
10757TIP3    H253763   6.273   3.033   5.286  2.0910 -1.3885 -0.0146
10758TIP3   OH253764   4.639   1.392  15.921  0.7138  0.4091 -0.3720
10758TIP3    H153765   4.687   1.407  16.003 -0.1680  0.6480  0.1036
10758TIP3    H253766   4.682   1.316  15.882 -0.2253 -1.0594  1.3768
10759TIP3   OH253767   1.703   5.993  16.323 -0.2063  0.0579  0.1153
10759TIP3    H153768   1.758   5.963  16.395 -0.8937 -0.9010  0.2469
10759TIP3    H253769   1.643   6.055  16.363 -0.7527 -0.6652  0.4223
10760TIP3   OH253770   4.580   6.416   2.862  0.5900  0.2682 -0.0302
10760TIP3    H153771   4.561   6.322   2.867 -0.6333  0.5010 -0.1556
10760TIP3    H253772   4.530   6.447   2.786  2.7425  0.6183 -1.3240
10761TIP3   OH253773   3.736   5.136   1.837  0.6504  0.0250 -0.1113
10761TIP3    H153774   3.649   5.176   1.831  0.7579  0.1788 -0.7535
10761TIP3    H253775   3.719   5.046   1.861  0.2371 -0.2259 -1.2894
10762TIP3   OH253776   3.036   0.325   1.844 -0.4409 -0.2294  0.3112
10762TIP3    H153777   2.985   0.364   1.916 -0.5288  0.2422 -0.0010
10762TIP3    H253778   3.045   0.397   1.781  1.8975  0.1591  1.0352
10763TIP3   OH253779   4.626   5.127  11.401  0.5257 -0.0589 -0.3046
10763TIP3    H153780   4.600   5.099  11.489  1.6479 -0.5054 -0.1123
10763TIP3    H253781   4.554   5.099  11.345  0.1107 -0.3701  0.3785
10764TIP3   OH253782   6.542   0.500  14.275  0.5515 -0.6063  0.0325
10764TIP3    H153783   6.538   0.486  14.181 -0.2680 -1.3093  0.1656
10764TIP3    H253784   6.635   0.513  14.294  0.4990  1.8325 -1.1801
10765TIP3   OH253785   0.441   1.492  15.837 -0.2360  0.2443 -0.1097
10765TIP3    H153786   0.496   1.503  15.759  2.8248  2.3812  2.2413
10765TIP3    H253787   0.432   1.398  15.847  1.9441 -0.1128 -1.2819
10766TIP3   OH253788   3.559   5.214  12.288  0.6671 -0.0526 -0.2743
10766TIP3    H153789   3.518   5.296  12.315  0.4660  0.5237 -2.2143
10766TIP3    H253790   3.485   5.157  12.266  0.7984 -0.8722  1.3737
10767TIP3   OH253791   3.518   1.999   1.705 -0.3257 -0.1045 -0.2352
10767TIP3    H153792   3.500   1.912   1.741  1.4071 -0.9513 -1.3727
10767TIP3    H253793   3.481   1.996   1.616  0.8891 -0.1466 -0.7526
10768TIP3   OH253794   5.043   2.903  16.276 -0.3206  0.3485 -0.3091
10768TIP3    H153795   5.111   2.846  16.238  0.8056  3.3194 -3.0554
10768TIP3    H253796   4.962   2.873  16.234 -0.0983 -0.6481 -0.0526
10769TIP3   OH253797   3.296   3.798  16.570 -0.1182 -0.5491 -0.2167
10769TIP3    H153798   3.363   3.863  16.589 -1.0203  0.6674 -1.0655
10769TIP3    H253799   3.344   3.718  16.550  1.0907  0.3425 -0.9621
10770TIP3   OH253800   1.446   3.467  17.173  0.2146 -0.1051 -0.4143
10770TIP3    H153801   1.530   3.512  17.166 -0.2229  0.9444  0.8901
10770TIP3    H253802   1.385   3.521  17.123 -0.0032 -0.0639 -0.1028
10771TIP3   OH253803   6.173   2.575  13.782 -0.4088 -0.2207  0.4949
10771TIP3    H153804   6.222   2.494  13.795  1.0634  0.7787  1.2940
10771TIP3    H253805   6.096   2.566  13.838 -0.1930 -1.0070  0.6731
10772TIP3   OH253806   3.379   2.583  12.953  0.5173 -0.0949  0.5830
10772TIP3    H153807   3.392   2.591  12.859  1.6428 -1.5814  0.5960
10772TIP3    H253808   3.454   2.533  12.984  0.7960  1.4234  2.4661
10773TIP3   OH253809   2.529   5.136   1.886 -0.2815 -0.3707 -0.0866
10773TIP3    H153810   2.614   5.132   1.930 -0.4522 -0.7858  0.2066
10773TIP3    H253811   2.548   5.112   1.795 -0.4274 -2.6648  0.4594
10774TIP3   OH253812   4.087   2.100   2.818 -0.2366 -0.0015 -0.1479
10774TIP3    H153813   4.170   2.148   2.816 -0.6926  0.9236  1.9305
10774TIP3    H253814   4.091   2.048   2.898 -1.6585  0.0579 -0.0193
10775TIP3   OH253815   3.730   3.360   3.499  0.4487  0.0245  0.1703
10775TIP3    H153816   3.746   3.344   3.406  0.7344  0.1301  0.2010
10775TIP3    H253817   3.681   3.441   3.502  0.7271  0.1964  0.1287
10776TIP3   OH253818   2.049   4.338   2.059 -0.2548  0.2823 -0.3396
10776TIP3    H153819   2.007   4.399   1.998 -1.4122  0.7412  0.8986
10776TIP3    H253820   2.056   4.387   2.141  1.0895 -0.4057 -0.0358
10777TIP3   OH253821   0.458   0.233  15.789  0.1313 -0.4369  0.0073
10777TIP3    H153822   0.371   0.217  15.754  0.1367  1.6808 -1.0485
10777TIP3    H253823   0.464   0.328  15.796  1.8689 -0.6104  1.3569
10778TIP3   OH253824   4.866   1.137   5.532  0.4258 -0.6556  0.2207
10778TIP3    H153825   4.781   1.126   5.490 -0.4442 -0.4549  1.8765
10778TIP3    H253826   4.928   1.145   5.460 -1.0105 -0.4171 -1.0071
10779TIP3   OH253827   0.374   6.789  12.576 -0.1454  0.0626 -0.3179
10779TIP3    H153828   0.404   6.842  12.503  2.2548  0.5488  0.9711
10779TIP3    H253829   0.443   6.725  12.590 -2.3159 -2.4982 -0.8800
10780TIP3   OH253830   1.568   0.506   1.454  0.3787 -0.3765 -0.3117
10780TIP3    H153831   1.661   0.510   1.475 -0.1854  1.6502  1.9155
10780TIP3    H253832   1.557   0.565   1.379  1.0116 -1.2405 -1.0859
10781TIP3   OH253833   6.205   0.316  16.020  0.8190  0.1367 -0.2350
10781TIP3    H153834   6.243   0.288  16.104  0.8284  0.3798 -0.1570
10781TIP3    H253835   6.119   0.274  16.017  0.4690  0.8016  0.2836
10782TIP3   OH253836   5.235   3.468   6.513 -0.3716  0.8290  0.5349
10782TIP3    H153837   5.295   3.515   6.571  0.0855  0.7074  0.1683
10782TIP3    H253838   5.291   3.406   6.466 -0.7424  0.8898  0.0025
10783TIP3   OH253839   3.350   0.922  14.184 -0.4311 -0.3858  0.3402
10783TIP3    H153840   3.269   0.880  14.213 -0.8559  2.0135  2.8415
10783TIP3    H253841   3.322   0.984  14.117 -0.3824 -0.9822 -0.2372
10784TIP3   OH253842   2.599   6.504  17.094  0.1141  0.1136 -0.1513
10784TIP3    H153843   2.690   6.521  17.117  0.3847  0.1350 -1.2022
10784TIP3    H253844   2.563   6.590  17.074  0.3338 -0.0645 -1.3756
10785TIP3   OH253845   5.751   1.975   1.619  0.2749 -0.0290  0.2973
10785TIP3    H153846   5.824   2.032   1.642  0.3189  0.1422 -0.2723
10785TIP3    H253847   5.682   1.997   1.681  0.5188  0.1880  0.4879
10786TIP3   OH253848   6.524   0.303  15.028  0.4379  0.1710  0.0920
10786TIP3    H153849   6.517   0.342  14.941  1.5584 -0.8359 -0.4586
10786TIP3    H253850   6.528   0.377  15.087  0.5166  0.8709 -0.7764
10787TIP3   OH253851   4.063   3.622   4.362 -0.1253 -0.1025  0.3224
10787TIP3    H153852   4.022   3.641   4.446  0.9170  0.5275  0.6929
10787TIP3    H253853   4.147   3.582   4.384  1.4627  2.7254 -0.3350
10788TIP3   OH253854   0.761   1.243   5.851 -0.5112 -0.1853 -0.3771
10788TIP3    H153855   0.855   1.262   5.853 -0.7231  0.8156  0.2038
10788TIP3    H253856   0.718   1.329   5.855 -1.4546 -0.6417 -0.4463
10789TIP3   OH253857   1.462   2.332   4.533 -0.2719 -0.7926 -0.7457
10789TIP3    H153858   1.408   2.303   4.460  0.5150 -2.2726 -0.7602
10789TIP3    H253859   1.478   2.253   4.585 -0.6371  0.1812  0.9190
10790TIP3   OH253860   1.489   2.094   5.064 -0.6063  0.0746 -0.0827
10790TIP3    H153861   1.445   2.067   5.145 -0.0261 -1.4975 -0.2819
10790TIP3    H253862   1.485   2.190   5.065 -0.4906  0.0667  1.8653
10791TIP3   OH253863   2.881   4.070  11.591  0.2970  0.5680  0.5522
10791TIP3    H153864   2.796   4.113  11.589  0.4142  1.0414  3.1001
10791TIP3    H253865   2.863   3.979  11.567 -0.7483  0.9089  0.0303
10792TIP3   OH253866   1.352   1.487  12.737 -0.2101 -0.1907  0.2726
10792TIP3    H153867   1.281   1.551  12.731  1.8395  1.9275 -3.1783
10792TIP3    H253868   1.344   1.435  12.657 -0.4050 -2.7677  1.9154
10793TIP3   OH253869   4.673   6.609   5.449  0.4521 -0.3530 -0.1084
10793TIP3    H153870   4.707   6.556   5.377  1.2794 -1.3786  1.0118
10793TIP3    H253871   4.673   6.550   5.525 -1.1938  0.4553  0.5557
10794TIP3   OH253872   3.164   4.947   0.177  0.0485  0.4807  1.0374
10794TIP3    H153873   3.239   4.903   0.138  0.6086  2.0386  0.2904
10794TIP3    H253874   3.128   5.000   0.105 -1.8797 -0.4129  1.3438
10795TIP3   OH253875   6.304   5.970   1.391 -0.3054 -0.2722  0.6873
10795TIP3    H153876   6.382   6.002   1.436 -1.0904 -0.0944  1.9131
10795TIP3    H253877   6.302   6.019   1.309  0.0715  0.7587  1.2901
10796TIP3   OH253878   3.952   3.683   5.542  0.4285 -0.5216 -0.1567
10796TIP3    H153879   3.909   3.718   5.463 -2.4016 -2.1998  0.5556
10796TIP3    H253880   3.961   3.590   5.526  2.5964 -0.4245  0.3299
10797TIP3   OH253881   6.076   1.222   2.839  0.1872 -0.1237 -0.1123
10797TIP3    H153882   6.038   1.247   2.755 -1.3966  0.8765  0.8735
10797TIP3    H253883   6.123   1.300   2.869 -2.0132  0.6617  1.4320
10798TIP3   OH253884   6.503   4.869   2.636  0.1659  0.4398  0.0824
10798TIP3    H153885   6.458   4.900   2.558  0.1708 -0.2021 -0.1769
10798TIP3    H253886   6.474   4.927   2.706 -0.0049  0.8784 -0.3560
10799TIP3   OH253887   2.058   5.129  17.266 -1.0136 -0.0614 -0.0669
10799TIP3    H153888   2.140   5.080  17.256  0.0257  1.7788 -0.9548
10799TIP3    H253889   2.044   5.133  17.360  1.1327  1.4595  0.2335
10800TIP3   OH253890   1.789   4.930  13.429 -0.0502 -0.1018 -0.0442
10800TIP3    H153891   1.856   4.867  13.403 -0.8324 -0.3246 -1.5982
10800TIP3    H253892   1.818   5.013  13.393 -0.1786 -0.0285  0.0202
10801TIP3   OH253893   5.411   3.681  11.640 -0.1844 -0.1334 -0.4403
10801TIP3    H153894   5.404   3.670  11.546  2.0109  0.2708 -0.6737
10801TIP3    H253895   5.454   3.602  11.671  2.6747  1.4172 -0.3115
10802TIP3   OH253896   2.619   0.449   1.783 -0.6626 -0.1816  0.4950
10802TIP3    H153897   2.635   0.356   1.766 -0.9300 -0.3280  1.0372
10802TIP3    H253898   2.530   0.464   1.750 -0.7722 -0.2129  0.7753
10803TIP3   OH253899   1.042   1.308  16.800 -0.1237  0.5205 -0.0813
10803TIP3    H153900   1.115   1.268  16.753  0.6093  1.6413  0.0819
10803TIP3    H253901   0.965   1.284  16.749  0.4412 -0.0017 -0.7050
10804TIP3   OH253902   3.044   4.787  16.618  0.1014 -0.3362 -0.3763
10804TIP3    H153903   3.114   4.727  16.594  0.2833 -0.1217 -0.3769
10804TIP3    H253904   3.088   4.862  16.655 -0.1330 -0.2424 -0.2859
10805TIP3   OH253905   0.472   0.854   0.360  0.1905  0.0937 -0.0852
10805TIP3    H153906   0.390   0.902   0.368  0.2419  0.3027 -0.7407
10805TIP3    H253907   0.459   0.775   0.412 -0.1256  0.5140  0.4795
10806TIP3   OH253908   0.257   5.465   5.559  0.4982  0.8463 -0.3984
10806TIP3    H153909   0.256   5.369   5.565 -0.6459  0.8136 -0.9671
10806TIP3    H253910   0.323   5.483   5.492 -1.8657  0.2494 -3.0042
10807TIP3   OH253911   3.780   3.203   5.434 -0.0257  0.8332 -0.1546
10807TIP3    H153912   3.813   3.118   5.460  1.6052  0.8195 -2.1928
10807TIP3    H253913   3.688   3.202   5.460  0.3749 -0.9222  1.2722
10808TIP3   OH253914   6.406   2.305  15.431  0.3280 -0.1433  0.4440
10808TIP3    H153915   6.404   2.279  15.339  1.2690 -0.2676  0.4530
10808TIP3    H253916   6.468   2.245  15.472  1.1621  0.9579  0.8276
10809TIP3   OH253917   1.100   6.372   1.438  0.8413 -0.2042 -0.3417
10809TIP3    H153918   1.187   6.385   1.476  0.8001 -0.7364 -0.0744
10809TIP3    H253919   1.056   6.456   1.452  0.9452 -0.2848  0.4603
10810TIP3   OH253920   1.783   2.007   2.413  0.2236  0.2409 -0.0089
10810TIP3    H153921   1.803   1.929   2.464  0.6096  0.4365  0.1483
10810TIP3    H253922   1.868   2.034   2.378  0.3330  1.3627  1.0552
10811TIP3   OH253923   2.884   1.427  16.700 -0.6494 -0.2818 -0.7347
10811TIP3    H153924   2.831   1.506  16.709 -0.3793 -0.3720  2.2891
10811TIP3    H253925   2.820   1.355  16.706 -0.6660 -0.3349 -1.4924
10812TIP3   OH253926   4.929   0.644  15.461 -0.0678 -0.0871  0.2540
10812TIP3    H153927   4.843   0.633  15.503 -0.4256  2.2671  0.2331
10812TIP3    H253928   4.938   0.569  15.403 -1.7637 -0.7898  0.8744
10813TIP3   OH253929   6.322   1.185   0.967  0.4517  0.2174  0.2655
10813TIP3    H153930   6.285   1.238   1.038  1.0763 -0.2748  0.9664
10813TIP3    H253931   6.300   1.233   0.887 -1.0860  0.2850  0.7232
10814TIP3   OH253932   0.477   0.165   2.688  0.0071 -0.3287 -0.1067
10814TIP3    H153933   0.552   0.111   2.712  1.1756  1.0960 -0.4940
10814TIP3    H253934   0.473   0.159   2.593  1.3233  1.7627 -0.3273
10815TIP3   OH253935   6.816   0.887   3.504 -0.0357 -0.5759  0.1999
10815TIP3    H153936   6.799   0.804   3.459 -2.5462  0.3961 -0.7543
10815TIP3    H253937   6.868   0.938   3.442  0.1055 -0.8287  0.1117
10816TIP3   OH253938   5.978   2.026  11.676  0.3984 -0.1925 -0.3103
10816TIP3    H153939   6.036   1.965  11.631  0.0027 -1.0569  0.3548
10816TIP3    H253940   6.038   2.086  11.722  0.7724 -0.6507 -0.1949
10817TIP3   OH253941   1.975   4.859  15.958  0.7285  0.2074 -0.0544
10817TIP3    H153942   1.881   4.859  15.977  0.5321  1.3320 -0.9340
10817TIP3    H253943   2.016   4.833  16.040 -0.4251 -1.8312 -0.1087
10818TIP3   OH253944   2.188   5.292   4.482  0.9654  0.0362 -0.3644
10818TIP3    H153945   2.268   5.298   4.430  1.3146  0.9835  0.2735
10818TIP3    H253946   2.122   5.340   4.431  0.9991 -0.0684 -0.5067
10819TIP3   OH253947   4.876   0.184   1.071  0.0426 -0.3812 -0.1922
10819TIP3    H153948   4.841   0.116   1.129 -0.2395  0.6484  0.8631
10819TIP3    H253949   4.951   0.142   1.028  1.0597 -0.8011  1.8948
10820TIP3   OH253950   1.396   5.751   3.258 -0.0745 -0.6564 -0.2974
10820TIP3    H153951   1.471   5.748   3.318 -0.0342 -1.1787 -0.3692
10820TIP3    H253952   1.369   5.659   3.249 -0.8978 -0.4378 -0.0579
10821TIP3   OH253953   3.480   1.695  15.854 -0.3881  0.1264 -0.6213
10821TIP3    H153954   3.508   1.785  15.835  0.1823 -0.1268 -0.9905
10821TIP3    H253955   3.519   1.676  15.939  1.4125 -0.5730 -1.5825
10822TIP3   OH253956   3.439   0.542   5.853  0.3294 -0.2860 -0.7329
10822TIP3    H153957   3.391   0.539   5.770 -0.3447 -1.5331 -0.3134
10822TIP3    H253958   3.473   0.454   5.864  0.8154  0.0011  0.0927
10823TIP3   OH253959   3.512   2.619  11.175 -0.3387  0.0553  1.3635
10823TIP3    H153960   3.587   2.667  11.139 -1.3155 -1.3682 -2.9364
10823TIP3    H253961   3.550   2.551  11.229  1.6210 -1.3699 -1.6915
10824TIP3   OH253962   1.149   0.549   4.894 -0.6814  0.6424 -0.0455
10824TIP3    H153963   1.140   0.644   4.901 -2.3126  0.6525 -2.0926
10824TIP3    H253964   1.147   0.531   4.800 -0.5618 -1.4423  0.3275
10825TIP3   OH253965   0.250   0.538   0.133 -0.1554  0.6167  0.0244
10825TIP3    H153966   0.270   0.632   0.126 -3.2207  1.8331  5.1686
10825TIP3    H253967   0.306   0.507   0.205 -2.3810 -0.4169  1.3459
10826TIP3   OH253968   3.970   2.272   1.665  0.4502 -0.5260  0.2125
10826TIP3    H153969   3.877   2.279   1.642  0.5113 -0.9446 -0.1566
10826TIP3    H253970   3.975   2.191   1.715  0.2618  0.5066  1.9892
10827TIP3   OH253971   5.894   5.162   5.962 -0.4790  0.0641  0.0280
10827TIP3    H153972   5.855   5.124   6.041 -0.3028  2.2666  1.2165
10827TIP3    H253973   5.887   5.093   5.896  0.5305 -2.2783  2.3023
10828TIP3   OH253974   1.851   1.701   0.419 -0.5276 -0.2809 -0.2767
10828TIP3    H153975   1.927   1.744   0.458 -1.0917 -0.5117  1.0997
10828TIP3    H253976   1.820   1.762   0.353 -1.1766  1.3493  1.5005
10829TIP3   OH253977   4.265   0.612  12.923  0.1837  0.0050 -0.0455
10829TIP3    H153978   4.346   0.561  12.931  0.5210  0.7637  1.5095
10829TIP3    H253979   4.219   0.571  12.850  0.8823 -1.9376  0.5605
10830TIP3   OH253980   1.043   2.154  15.831  0.5571  0.4386 -0.1806
10830TIP3    H153981   0.990   2.231  15.813 -1.1993 -0.5998  0.3897
10830TIP3    H253982   1.072   2.164  15.921  1.1492  0.8962 -0.4189
10831TIP3   OH253983   1.748   0.379   3.586 -0.1566 -0.7590  0.3940
10831TIP3    H153984   1.757   0.474   3.583 -1.0380 -0.6758  0.2162
10831TIP3    H253985   1.813   0.351   3.651 -1.6569  0.2120  2.3927
10832TIP3   OH253986   0.076   5.053  15.853 -0.2276  0.2442 -0.0836
10832TIP3    H153987   0.146   5.060  15.918  1.0586  1.1963 -1.5201
10832TIP3    H253988  -0.004   5.045  15.904  0.9158 -0.8154  1.6113
10833TIP3   OH253989   1.323   4.580   2.961  0.8728 -0.2749  0.5619
10833TIP3    H153990   1.387   4.623   3.018 -1.3140  0.7007  2.3488
10833TIP3    H253991   1.324   4.633   2.881  2.2227 -0.2361  0.5842
10834TIP3   OH253992   1.094   4.802   1.752 -0.3028  0.3582  0.3655
10834TIP3    H153993   1.184   4.770   1.765 -0.0084  1.1682  0.3144
10834TIP3    H253994   1.103   4.874   1.690 -1.1314 -0.3004 -0.5444
10835TIP3   OH253995   3.225   5.110   1.224  0.2283 -0.4221  0.7041
10835TIP3    H153996   3.219   5.022   1.184  0.2830  0.9284 -2.4296
10835TIP3    H253997   3.154   5.159   1.183  0.3359  1.0920  2.2781
10836TIP3   OH253998   5.364   5.824   0.169  0.0993  0.2892  0.3198
10836TIP3    H153999   5.449   5.799   0.204 -0.7801 -0.9212  1.6365
10836TIP3    H254000   5.333   5.745   0.123  0.3697  1.2197 -1.4879
10837TIP3   OH254001   4.412   6.040   0.913 -0.0784  0.4635 -0.1737
10837TIP3    H154002   4.440   6.066   0.825 -1.1481  0.2564 -0.5832
10837TIP3    H254003   4.345   6.104   0.937 -0.7047 -0.2377 -0.0310
10838TIP3   OH254004   1.985   5.780  15.350  0.1430 -0.3882  0.0626
10838TIP3    H154005   2.037   5.763  15.429  1.4693  0.3352 -0.6415
10838TIP3    H254006   1.972   5.875  15.349  2.6704 -0.0198 -2.1268
10839TIP3   OH254007   4.334   2.285   6.589  0.2520 -0.5497 -0.5622
10839TIP3    H154008   4.269   2.350   6.563  0.1159 -0.9815 -1.3213
10839TIP3    H254009   4.414   2.335   6.602 -0.1346 -0.0660  0.0175
10840TIP3   OH254010   3.105   3.299  11.445  0.0673  0.4420 -0.4939
10840TIP3    H154011   3.054   3.224  11.414 -0.4865  0.2658  0.8468
10840TIP3    H254012   3.051   3.340  11.512  1.1934  0.9164  0.1447
10841TIP3   OH254013   0.108   2.864  16.199 -0.1227  0.4403 -0.0081
10841TIP3    H154014   0.023   2.840  16.162  0.7367 -0.7546 -1.2619
10841TIP3    H254015   0.097   2.852  16.293 -1.1039 -0.5163 -0.2292
10842TIP3   OH254016   4.185   3.475   5.653  0.0199 -0.0041 -0.2014
10842TIP3    H154017   4.112   3.437   5.604 -0.1742  0.0513  0.0428
10842TIP3    H254018   4.180   3.434   5.740 -1.0542  1.6152  0.5251
10843TIP3   OH254019   3.043   1.640   1.252 -0.1364 -0.3453  0.1494
10843TIP3    H154020   2.957   1.681   1.254  0.9558  2.0734 -0.3535
10843TIP3    H254021   3.078   1.662   1.166  1.2023 -0.8365  0.5574
10844TIP3   OH254022   6.732   3.278  14.813 -0.7957 -0.1453 -0.3194
10844TIP3    H154023   6.725   3.191  14.774 -0.7385 -0.3843  0.1943
10844TIP3    H254024   6.823   3.303  14.801 -0.5966 -0.5379  0.3177
10845TIP3   OH254025   4.265   4.588   1.239 -0.3293 -0.2397 -0.0814
10845TIP3    H154026   4.181   4.557   1.274 -0.0338 -0.4360  0.4613
10845TIP3    H254027   4.331   4.547   1.295  0.1133  0.3572 -0.1571
10846TIP3   OH254028   1.141   6.173  11.185 -0.1043 -0.4763 -0.3644
10846TIP3    H154029   1.120   6.152  11.276  0.3706  0.2232 -0.0872
10846TIP3    H254030   1.157   6.268  11.186  0.1171 -0.5068 -1.1326
10847TIP3   OH254031   6.357   3.753   3.956  0.0151  0.1406  0.0654
10847TIP3    H154032   6.404   3.671   3.968 -0.0724  0.1989  0.8102
10847TIP3    H254033   6.267   3.732   3.979 -0.0514  0.3947  0.0324
10848TIP3   OH254034   2.930   2.750  11.547 -0.2531 -0.3407  0.4819
10848TIP3    H154035   2.855   2.808  11.529  0.3795  0.5731  0.7662
10848TIP3    H254036   2.977   2.746  11.464  1.2145  1.7661  1.1835
10849TIP3   OH254037   0.972   4.505  11.694  0.2256 -0.4617 -0.5586
10849TIP3    H154038   0.930   4.591  11.704 -1.1269 -0.9407 -1.8177
10849TIP3    H254039   1.042   4.504  11.759 -0.2201  1.3065 -0.0272
10850TIP3   OH254040   3.876   1.708  15.818 -0.6449  0.0209  0.0489
10850TIP3    H154041   3.964   1.746  15.815 -0.5848 -0.1948 -2.1327
10850TIP3    H254042   3.818   1.781  15.796 -0.9696 -0.0005  0.8111
10851TIP3   OH254043   1.838   1.818  15.166 -0.2931  0.0020 -0.5411
10851TIP3    H154044   1.820   1.894  15.109  0.3315 -0.1105 -0.8873
10851TIP3    H254045   1.810   1.847  15.253 -1.7705 -0.0171 -0.9939
10852TIP3   OH254046   5.808   1.157   1.568  0.4516  0.1008 -0.0394
10852TIP3    H154047   5.794   1.248   1.596 -0.4931  0.0863 -0.4436
10852TIP3    H254048   5.819   1.108   1.649 -0.9626  0.2679  0.2698
10853TIP3   OH254049   3.385   5.317   1.575 -0.1305 -0.3987 -0.0262
10853TIP3    H154050   3.380   5.379   1.648  0.2131 -1.7140  1.1522
10853TIP3    H254051   3.392   5.372   1.497 -3.3282  1.0903  0.6560
10854TIP3   OH254052   1.730   3.929   3.391  0.3744 -0.2386 -0.1353
10854TIP3    H154053   1.803   3.868   3.388 -0.1832 -0.8938 -0.5684
10854TIP3    H254054   1.698   3.925   3.481  0.1199 -0.8495 -0.2524
10855TIP3   OH254055   4.312   5.328  14.174  0.8259 -0.0144  0.0093
10855TIP3    H154056   4.344   5.239  14.191 -0.7112 -1.0566 -2.2929
10855TIP3    H254057   4.381   5.385  14.208  1.3060 -2.0411  2.5723
10856TIP3   OH254058   4.670   3.190   0.549  0.1115 -0.3432 -0.0290
10856TIP3    H154059   4.727   3.134   0.602  1.1969  1.6355  0.9782
10856TIP3    H254060   4.730   3.236   0.490 -0.7451 -0.1013 -0.7216
10857TIP3   OH254061   4.060   0.953   1.607 -0.8090 -0.6194 -0.3174
10857TIP3    H154062   4.122   1.014   1.568  0.0140 -0.3017  1.4398
10857TIP3    H254063   4.111   0.874   1.624 -0.8007 -0.2394  1.4479
10858TIP3   OH254064   4.128   3.826  13.000  0.4068  0.0469 -0.3344
10858TIP3    H154065   4.172   3.819  13.085 -1.2698 -1.5411  0.4373
10858TIP3    H254066   4.119   3.920  12.986 -0.5919  0.3216  1.9588
10859TIP3   OH254067   2.874   0.694   5.964 -0.4024  0.0630  0.8821
10859TIP3    H154068   2.809   0.718   6.030 -0.0857 -0.3976  1.3702
10859TIP3    H254069   2.958   0.704   6.008 -0.1289  0.7754  0.2117
10860TIP3   OH254070   1.775   3.460   5.570  0.6109 -0.3538 -0.0364
10860TIP3    H154071   1.847   3.402   5.593  0.2027 -0.1627  1.7684
10860TIP3    H254072   1.725   3.411   5.504  1.2445 -1.3297  0.1949
10861TIP3   OH254073   6.681   6.040   4.783  0.3364 -0.6888 -0.0668
10861TIP3    H154074   6.761   6.014   4.737  0.1676 -1.5642  0.1269
10861TIP3    H254075   6.613   6.038   4.717  0.4385 -0.1239 -0.1904
10862TIP3   OH254076   6.305   4.414  15.309 -0.2569 -0.0178  0.0786
10862TIP3    H154077   6.215   4.445  15.305  0.3571  2.0601  1.1291
10862TIP3    H254078   6.345   4.466  15.379  1.4020 -1.8661  0.5658
10863TIP3   OH254079   3.215   1.375   5.489 -0.7017  0.1079 -0.2261
10863TIP3    H154080   3.222   1.311   5.560 -3.0919 -0.6249 -0.5952
10863TIP3    H254081   3.269   1.448   5.517  0.2280 -1.1281  1.2761
10864TIP3   OH254082   3.723   0.505   0.919  0.1816  0.1883  0.0936
10864TIP3    H154083   3.797   0.469   0.968  1.0014  0.9067 -0.6026
10864TIP3    H254084   3.763   0.542   0.841 -0.8768  0.9287 -0.0919
10865TIP3   OH254085   0.510   0.949  12.554  0.0886 -0.5268 -0.0391
10865TIP3    H154086   0.598   0.967  12.586  0.2318 -0.0188 -0.7202
10865TIP3    H254087   0.523   0.907  12.469 -0.2749 -2.4349  0.8151
10866TIP3   OH254088   0.092   0.572   6.252  0.0757  0.5291 -0.1814
10866TIP3    H154089   0.088   0.651   6.307 -1.5702  0.5330 -0.2611
10866TIP3    H254090   0.182   0.543   6.258  0.5138  1.9733  0.5044
10867TIP3   OH254091   5.475   4.667   5.087  0.2063  0.6082 -0.0823
10867TIP3    H154092   5.403   4.663   5.150  0.6206  1.9497  0.5126
10867TIP3    H254093   5.501   4.759   5.087 -0.7206  0.9125 -3.3013
10868TIP3   OH254094   2.639   2.499   1.735  0.2539 -0.3874 -0.0246
10868TIP3    H154095   2.728   2.496   1.700  0.1823  0.4048 -0.3019
10868TIP3    H254096   2.583   2.482   1.659  0.1081  1.0548 -0.2723
10869TIP3   OH254097   1.228   2.805   3.744  0.0214  0.0775 -0.1961
10869TIP3    H154098   1.288   2.879   3.731  0.6659 -0.4704 -0.3768
10869TIP3    H254099   1.170   2.833   3.814  0.1877  0.8072 -0.3481
10870TIP3   OH254100   4.926   0.496   2.379 -0.1277  0.1990  0.3895
10870TIP3    H154101   4.984   0.425   2.353 -1.3099 -0.6722  0.1155
10870TIP3    H254102   4.985   0.568   2.403  1.0552  0.6736 -3.5879
10871TIP3   OH254103   2.983   2.488   3.619 -0.3876 -0.3136 -0.1754
10871TIP3    H154104   2.892   2.517   3.618  0.6668  3.1679  0.0270
10871TIP3    H254105   3.032   2.561   3.582  2.3049 -2.2609 -0.5441
10872TIP3   OH254106   5.969   0.220   2.788 -0.1438  0.4736 -0.4547
10872TIP3    H154107   5.902   0.262   2.842 -0.4138 -0.7232  0.1573
10872TIP3    H254108   5.923   0.149   2.743  0.9585 -1.2325  1.0029
10873TIP3   OH254109   6.599   2.090   5.564 -0.1076  0.3146 -0.2504
10873TIP3    H154110   6.609   2.001   5.597  2.1462  0.6647  0.0814
10873TIP3    H254111   6.607   2.146   5.641 -2.3193  0.8005 -0.3361
10874TIP3   OH254112   4.762   1.141   2.858  0.3598  0.0155  0.2203
10874TIP3    H154113   4.816   1.150   2.780  1.0365  2.1109  0.8863
10874TIP3    H254114   4.687   1.088   2.830  0.8244  0.3456 -1.7056
10875TIP3   OH254115   1.330   5.459  11.503  0.5755 -0.2603  0.1051
10875TIP3    H154116   1.239   5.488  11.507  0.7941  0.3707  0.4869
10875TIP3    H254117   1.358   5.455  11.595  0.3574 -2.2836  0.1142
10876TIP3   OH254118   6.704   2.429   1.051  0.2459 -0.1089 -0.4958
10876TIP3    H154119   6.735   2.513   1.084  0.3446  0.0927 -1.0894
10876TIP3    H254120   6.621   2.450   1.007  0.3279 -0.3016 -0.7455
10877TIP3   OH254121   6.816   5.102   3.845 -0.5628 -0.5233  0.3507
10877TIP3    H154122   6.803   5.104   3.940 -0.4045  0.7986  0.3574
10877TIP3    H254123   6.887   5.165   3.830 -1.6681  0.4771 -0.7925
10878TIP3   OH254124   2.328   3.157  11.841  0.2407 -0.0294  0.5125
10878TIP3    H154125   2.238   3.127  11.835  1.0896 -2.3897 -1.3108
10878TIP3    H254126   2.337   3.224  11.774  0.3922 -1.3346 -0.7872
10879TIP3   OH254127   0.411   2.674  13.181 -0.0545 -0.3873  0.4018
10879TIP3    H154128   0.497   2.713  13.167  0.5836 -1.1362  2.0741
10879TIP3    H254129   0.350   2.729  13.132  1.4981 -0.4414 -1.6440
10880TIP3   OH254130   5.690   1.948  12.724 -0.2945  0.2515 -0.1430
10880TIP3    H154131   5.767   2.003  12.740 -0.6691  0.6783  0.2168
10880TIP3    H254132   5.628   1.976  12.791 -0.4603 -0.6580  0.0789
10881TIP3   OH254133   3.540   3.236  12.581 -0.3531 -0.0634 -0.0312
10881TIP3    H154134   3.504   3.292  12.512 -0.8184 -1.9150 -1.3594
10881TIP3    H254135   3.613   3.286  12.618 -0.4071  1.1719 -1.5412
10882TIP3   OH254136   5.406   0.971   2.500 -0.0730 -0.3893  0.3457
10882TIP3    H154137   5.367   0.953   2.585  0.2141  1.4659  0.8944
10882TIP3    H254138   5.412   0.885   2.457 -1.7675 -1.1097  1.5091
10883TIP3   OH254139   3.370   4.257   4.746 -0.7456  0.6086 -0.1890
10883TIP3    H154140   3.415   4.324   4.695  0.2064  0.4986  0.4820
10883TIP3    H254141   3.335   4.304   4.822  1.1735  0.1264  1.0365
10884TIP3   OH254142   0.019   5.335   3.247  0.0805  0.0056 -0.3166
10884TIP3    H154143   0.005   5.240   3.245  1.1060 -0.1816  1.0997
10884TIP3    H254144  -0.002   5.361   3.336 -0.4124  1.1589 -0.7615
10885TIP3   OH254145   3.299   3.399   6.518  0.6578  0.3244  0.0984
10885TIP3    H154146   3.239   3.359   6.454  4.1974  0.3781 -3.4587
10885TIP3    H254147   3.262   3.486   6.534 -0.6036  0.1121 -1.4966
10886TIP3   OH254148   1.032   2.831  11.200 -0.0899 -0.1308  0.1517
10886TIP3    H154149   1.020   2.740  11.170  1.0605 -0.8784  1.8714
10886TIP3    H254150   1.117   2.856  11.163 -0.9058  0.6663 -1.2510
10887TIP3   OH254151   1.053   0.597  16.972 -0.3738  0.5750  0.3667
10887TIP3    H154152   0.966   0.607  17.010  0.4272 -0.1102  2.4310
10887TIP3    H254153   1.105   0.669  17.009  0.3798 -0.0142  0.4684
10888TIP3   OH254154   5.343   3.219  12.287  0.0965 -0.1922 -0.0971
10888TIP3    H154155   5.336   3.131  12.323 -0.2697  0.0361  0.4102
10888TIP3    H254156   5.397   3.210  12.209  0.9103 -0.7127  0.5158
10889TIP3   OH254157   3.956   3.636  13.124  0.5110 -0.0424 -0.2292
10889TIP3    H154158   3.875   3.638  13.074  1.3288  1.4361 -1.5659
10889TIP3    H254159   4.024   3.658  13.060  2.0672 -2.1112  0.6725
10890TIP3   OH254160   5.042   3.975   4.209  0.3373 -0.2237  0.0798
10890TIP3    H154161   5.001   4.023   4.281 -2.4068 -2.3267  0.0083
10890TIP3    H254162   5.027   4.030   4.132  2.7464  1.7399  0.9679
10891TIP3   OH254163   4.987   6.127   2.957 -0.1077  0.5057 -0.2194
10891TIP3    H154164   5.017   6.216   2.938 -0.0441  0.2964 -1.0953
10891TIP3    H254165   4.972   6.088   2.871 -1.0786 -0.0136  0.1869
10892TIP3   OH254166   1.605   2.397  14.360  0.5660 -0.0961 -0.0914
10892TIP3    H154167   1.683   2.365  14.315  0.8984  0.3904  0.1345
10892TIP3    H254168   1.568   2.462  14.301  0.5049 -0.1039 -0.0612
10893TIP3   OH254169   6.444   6.074  14.883  0.0922  0.4161  0.2099
10893TIP3    H154170   6.503   6.148  14.873  0.6825  0.2433  2.2626
10893TIP3    H254171   6.404   6.086  14.969 -2.4381  0.2055 -0.8833
10894TIP3   OH254172   0.480   5.511  13.900 -0.1713 -0.1045 -0.3420
10894TIP3    H154173   0.513   5.453  13.831 -0.1373  0.5279 -0.8648
10894TIP3    H254174   0.487   5.599  13.863 -0.8589  0.1828  0.1852
10895TIP3   OH254175   2.869   3.575   4.105 -0.3488 -0.5356 -0.3805
10895TIP3    H154176   2.807   3.532   4.164  0.2237  1.9393  2.1193
10895TIP3    H254177   2.945   3.516   4.102  0.1895 -0.0365  2.5113
10896TIP3   OH254178   2.217   3.608  15.835  0.1808 -0.2827 -0.1244
10896TIP3    H154179   2.253   3.589  15.921  1.5280  0.9185 -0.4024
10896TIP3    H254180   2.237   3.531  15.782 -1.2137 -1.2925  0.7918
10897TIP3   OH254181   0.602   5.688   6.461  0.0193  0.5821  0.2229
10897TIP3    H154182   0.515   5.662   6.433 -0.0068  1.5482 -0.6445
10897TIP3    H254183   0.659   5.615   6.436 -0.5777 -0.1690  1.0454
10898TIP3   OH254184   5.003   6.043   4.255  0.2532  0.0326  0.7739
10898TIP3    H154185   5.053   6.098   4.196  1.4671 -2.4215 -0.5696
10898TIP3    H254186   5.025   6.074   4.343  1.3624  1.2746  0.0582
10899TIP3   OH254187   5.502   1.724   1.482  0.1534 -0.1248  0.5346
10899TIP3    H154188   5.595   1.703   1.492  0.3263  0.8476  1.1015
10899TIP3    H254189   5.488   1.796   1.544 -0.6338  0.7051 -0.5950
10900TIP3   OH254190   1.195   4.356  10.673  0.2398 -0.0329 -0.3297
10900TIP3    H154191   1.163   4.369  10.584 -0.5294 -0.1077 -0.0598
10900TIP3    H254192   1.289   4.376  10.667  0.2763 -0.4606 -1.2425
10901TIP3   OH254193   5.585   2.105   3.814  0.5200 -1.0068  0.3757
10901TIP3    H154194   5.518   2.173   3.799 -0.9618 -2.2329  1.2689
10901TIP3    H254195   5.667   2.154   3.821 -0.1038  0.4552 -1.7683
10902TIP3   OH254196   5.382   0.112   3.214 -0.0803 -0.2183 -0.3573
10902TIP3    H154197   5.367   0.018   3.206 -2.1655 -0.1451  2.0444
10902TIP3    H254198   5.296   0.151   3.196  0.7328  1.2324 -1.1551
10903TIP3   OH254199   0.426   1.412  12.438  0.0807  0.3466 -0.7745
10903TIP3    H154200   0.380   1.429  12.520 -1.4919 -0.2169 -1.5316
10903TIP3    H254201   0.434   1.317  12.434 -0.0919  0.3597 -1.4073
10904TIP3   OH254202   2.637   1.678  15.081 -0.0457 -0.2891  0.1003
10904TIP3    H154203   2.606   1.593  15.051  0.3905 -0.3727 -0.1196
10904TIP3    H254204   2.693   1.710  15.010  0.4555 -0.1903  0.5308
10905TIP3   OH254205   1.646   4.743  11.548 -0.0061  0.0879  0.5274
10905TIP3    H154206   1.625   4.835  11.562  3.5072  1.0170  0.2957
10905TIP3    H254207   1.694   4.718  11.628 -0.5529 -1.4020  0.3960
10906TIP3   OH254208   2.817   5.996  16.362 -0.0886 -0.4689  0.2345
10906TIP3    H154209   2.900   6.017  16.406 -0.3595 -0.4414  0.7330
10906TIP3    H254210   2.781   6.081  16.337 -0.0687 -0.4691  0.2054
10907TIP3   OH254211   6.186   5.863   0.210  0.0533 -0.4102  0.3520
10907TIP3    H154212   6.120   5.867   0.279 -0.8068 -0.5158 -0.4552
10907TIP3    H254213   6.244   5.792   0.237 -0.8456 -1.1052  0.4735
10908TIP3   OH254214   4.002   5.532  14.638  0.3172 -0.3426  0.2633
10908TIP3    H154215   3.916   5.535  14.597 -0.1061  0.0860  1.1583
10908TIP3    H254216   4.063   5.514  14.566 -0.1552  2.5370 -0.9205
10909TIP3   OH254217   0.402   2.083   2.405  0.0686  0.0077  0.1271
10909TIP3    H154218   0.494   2.059   2.392  0.1606 -0.1221  0.9497
10909TIP3    H254219   0.387   2.069   2.499 -1.2001 -1.3516 -0.2708
10910TIP3   OH254220   2.704   1.812   0.730 -0.3131  0.3587  0.0327
10910TIP3    H154221   2.642   1.872   0.689 -0.6305  0.9883  1.4423
10910TIP3    H254222   2.782   1.864   0.746  0.5580 -0.3960 -1.6062
10911TIP3   OH254223   2.476   2.764   4.834  0.8733  0.0243  0.3469
10911TIP3    H154224   2.504   2.856   4.829  2.5797 -0.5007  0.0325
10911TIP3    H254225   2.473   2.735   4.743  1.4021 -0.5331  0.5033
10912TIP3   OH254226   4.218   0.391  13.152 -0.3881 -0.1536  0.0355
10912TIP3    H154227   4.168   0.330  13.206 -0.2507 -2.1498 -2.0176
10912TIP3    H254228   4.151   0.445  13.109 -0.5928 -0.0627  0.4691
10913TIP3   OH254229   3.507   3.481   3.113  0.1271 -0.8078 -0.1057
10913TIP3    H154230   3.582   3.422   3.126  1.0614  0.4530  0.3010
10913TIP3    H254231   3.474   3.498   3.201  1.5200  1.3818  0.0274
10914TIP3   OH254232   1.167   4.986   6.039  0.1800 -0.3991 -0.3829
10914TIP3    H154233   1.115   5.030   6.106  0.2704 -1.7865  0.6253
10914TIP3    H254234   1.247   4.960   6.085  0.2307 -1.3735 -1.0287
10915TIP3   OH254235   5.544   5.122  13.795  0.5381 -0.2925  0.2023
10915TIP3    H154236   5.612   5.055  13.797  1.4892  0.6856  0.8840
10915TIP3    H254237   5.505   5.113  13.708  3.0161  0.5971 -1.0328
10916TIP3   OH254238   1.839   6.810  12.326 -0.1651 -0.0173  0.0914
10916TIP3    H154239   1.846   6.718  12.300 -2.3524 -0.5503  1.2596
10916TIP3    H254240   1.803   6.853  12.249  2.1478  0.1367 -0.9352
10917TIP3   OH254241   4.928   4.890  14.352 -0.3039  0.0084  0.1164
10917TIP3    H154242   4.969   4.815  14.310  1.2869  0.0948  1.4755
10917TIP3    H254243   4.980   4.906  14.430 -1.1194  2.0169  0.2936
10918TIP3   OH254244   4.308   3.240   0.634  0.5253  0.1220  0.0257
10918TIP3    H154245   4.377   3.249   0.699 -0.2723  0.3477  0.8505
10918TIP3    H254246   4.232   3.283   0.674 -0.7870 -2.2741  0.1839
10919TIP3   OH254247   3.518   1.470  13.004  0.0253  0.7150  0.2163
10919TIP3    H154248   3.564   1.534  12.949  0.7341  0.2348  0.2391
10919TIP3    H254249   3.510   1.392  12.949 -0.8730  0.8362  0.1767
10920TIP3   OH254250   4.472   2.071  14.683 -0.1669  0.4764 -0.6125
10920TIP3    H154251   4.490   1.999  14.744  0.8418  1.6314  0.4696
10920TIP3    H254252   4.434   2.140  14.737  1.4120  1.7872 -1.1376
10921TIP3   OH254253   0.531   2.921  16.759  0.6555  0.2825  0.0837
10921TIP3    H154254   0.579   2.865  16.698 -0.3179  2.4955 -2.8494
10921TIP3    H254255   0.439   2.896  16.747  0.3654  1.4286 -0.1179
10922TIP3   OH254256   1.816   3.502   3.672 -0.4763 -0.2058 -0.1474
10922TIP3    H154257   1.742   3.532   3.726  2.0509 -0.9588  3.9982
10922TIP3    H254258   1.803   3.407   3.664 -1.1662 -0.0101 -1.4143
10923TIP3   OH254259   6.043   1.358  11.632  0.0361  0.0081 -0.6022
10923TIP3    H154260   6.100   1.320  11.699 -1.1710  1.2919  1.2152
10923TIP3    H254261   6.018   1.285  11.576 -1.5096 -1.7564  2.2808
10924TIP3   OH254262   2.096   1.234  11.450 -0.3539  0.5619 -0.4858
10924TIP3    H154263   2.134   1.184  11.522  0.2830 -0.2128 -1.3528
10924TIP3    H254264   2.164   1.296  11.425  0.5076 -1.0179 -2.2269
10925TIP3   OH254265   5.333   5.943   2.828 -0.1781 -0.7683 -0.0839
10925TIP3    H154266   5.309   5.925   2.919 -2.0040  1.3262 -0.1021
10925TIP3    H254267   5.284   5.878   2.777 -3.3787  1.3278  0.1276
10926TIP3   OH254268   6.349   1.010   4.802  0.0748  0.5162  0.3030
10926TIP3    H154269   6.313   0.945   4.863 -3.3920  1.6353 -0.4555
10926TIP3    H254270   6.383   1.080   4.858  1.1954 -0.5811  1.0326
10927TIP3   OH254271   4.070   5.009  11.691  0.5517  0.9553 -0.9837
10927TIP3    H154272   4.025   5.083  11.730 -0.4443 -0.3511  0.4241
10927TIP3    H254273   4.161   5.036  11.686  0.2831  2.0677 -0.0315
10928TIP3   OH254274   1.101   4.918   1.312 -0.3315  0.2875 -0.0775
10928TIP3    H154275   1.110   4.924   1.407  0.0689  2.3851 -0.2283
10928TIP3    H254276   1.166   4.853   1.285 -0.7848 -0.6694  1.1297
10929TIP3   OH254277   4.403   0.782  17.070  0.1103 -0.2811 -0.4010
10929TIP3    H154278   4.441   0.759  17.155 -0.2928  0.6165  0.0288
10929TIP3    H254279   4.406   0.701  17.020  1.8670 -0.4025 -0.1087
10930TIP3   OH254280   0.901   2.959   5.913 -0.0330  0.0277 -0.4793
10930TIP3    H154281   0.826   3.008   5.879 -0.1964  0.9642  1.2163
10930TIP3    H254282   0.925   3.004   5.993  0.8354 -1.7125  0.2632
10931TIP3   OH254283   1.163   1.868   2.201  0.4246 -1.1417  0.1988
10931TIP3    H154284   1.191   1.954   2.169 -0.6920 -0.7090  0.3861
10931TIP3    H254285   1.231   1.843   2.264  1.9309 -1.3943 -1.4790
10932TIP3   OH254286   1.309   1.895  16.612 -0.0842 -0.1317  0.0715
10932TIP3    H154287   1.246   1.887  16.684 -2.4889  0.5124 -1.9059
10932TIP3    H254288   1.301   1.813  16.564  1.8765 -0.7644  0.7809
10933TIP3   OH254289   1.791   4.959   1.746  0.0593 -0.0246 -0.2922
10933TIP3    H154290   1.750   5.030   1.796 -0.0259 -1.1896  1.3446
10933TIP3    H254291   1.792   4.991   1.655 -1.6916  1.2881  0.1146
10934TIP3   OH254292   4.216   6.508   3.452  0.4803 -0.4453  0.4261
10934TIP3    H154293   4.216   6.519   3.547  0.5262 -0.3479  0.4144
10934TIP3    H254294   4.124   6.500   3.428  0.3910  0.8453  0.3193
10935TIP3   OH254295   2.862   6.427   5.070 -0.3064 -0.1164 -0.2878
10935TIP3    H154296   2.889   6.456   4.983 -0.7416 -1.7803 -1.0001
10935TIP3    H254297   2.834   6.336   5.057  2.9920 -1.6049  2.1919
10936TIP3   OH254298   5.095   5.978  13.984 -0.0914 -0.1688  0.4795
10936TIP3    H154299   5.151   6.052  13.959 -2.1581  1.8008  1.5406
10936TIP3    H254300   5.119   5.961  14.076 -1.6967  1.1715  1.1763
10937TIP3   OH254301   2.510   6.260  14.438  0.2266  0.1705 -0.4173
10937TIP3    H154302   2.568   6.243  14.512 -0.1924 -1.4083 -0.4247
10937TIP3    H254303   2.426   6.222  14.465 -0.4172  1.1979 -0.9701
10938TIP3   OH254304   2.938   0.685  11.619  0.1075  0.2670 -0.1824
10938TIP3    H154305   2.893   0.637  11.688  2.8356 -1.7866  0.2179
10938TIP3    H254306   2.944   0.775  11.652 -3.1144  0.4554 -0.0146
10939TIP3   OH254307   5.233   3.802   0.157 -0.2571  0.7860 -0.5301
10939TIP3    H154308   5.307   3.798   0.098  1.9373  0.5344  2.1381
10939TIP3    H254309   5.221   3.895   0.176  1.7611  0.6047  1.8583
10940TIP3   OH254310   3.103   4.089  15.204  0.4850  0.5527 -0.5345
10940TIP3    H154311   3.053   4.165  15.175 -1.4030  0.1370  1.4938
10940TIP3    H254312   3.155   4.120  15.278  2.8185  0.8215 -2.2307
10941TIP3   OH254313   1.793   6.191  15.541  0.1358 -0.1286  0.4210
10941TIP3    H154314   1.837   6.208  15.624  0.7106 -0.6143  0.2203
10941TIP3    H254315   1.717   6.248  15.542 -0.5102 -0.9981  1.8007
10942TIP3   OH254316   4.085   0.777   5.735 -0.0541 -0.0401  0.5848
10942TIP3    H154317   4.093   0.871   5.718  1.1694 -0.1640  0.4577
10942TIP3    H254318   4.122   0.735   5.658 -1.9974 -0.6571 -0.0472
10943TIP3   OH254319   1.592   6.077  13.939 -0.1295  1.0117  0.1689
10943TIP3    H154320   1.574   6.170  13.951 -5.7231  0.1001  0.0545
10943TIP3    H254321   1.563   6.058  13.850  0.5882 -0.9481  0.3295
10944TIP3   OH254322   4.959   1.491  16.937  0.6833  0.6901 -1.0005
10944TIP3    H154323   5.025   1.447  16.882 -0.4035  0.7058 -2.3505
10944TIP3    H254324   4.889   1.513  16.876 -0.8401  0.1392  0.5137
10945TIP3   OH254325   0.742   1.624  13.007  0.3447  0.4394 -0.2739
10945TIP3    H154326   0.825   1.602  12.963  0.1215 -2.2497  0.5601
10945TIP3    H254327   0.768   1.653  13.094  0.4831  0.6293 -0.3794
10946TIP3   OH254328   3.463   0.023   1.747  0.1938  0.3226 -0.0320
10946TIP3    H154329   3.372   0.047   1.726  0.3827  2.2390  1.2085
10946TIP3    H254330   3.513   0.102   1.728  1.5585 -0.6007 -0.3087
10947TIP3   OH254331   5.612   5.684   4.339 -0.4669 -0.3359 -0.1507
10947TIP3    H154332   5.517   5.680   4.350 -0.2113 -2.3432  1.7935
10947TIP3    H254333   5.646   5.691   4.429  1.2347 -0.4439 -0.7591
10948TIP3   OH254334   2.218   0.730  11.123  0.2246  0.3245 -0.2608
10948TIP3    H154335   2.259   0.728  11.036  0.6757  1.1908 -0.0733
10948TIP3    H254336   2.280   0.683  11.179  0.0102 -0.0932 -0.3711
10949TIP3   OH254337   5.495   3.066   5.362 -0.7277  0.2664  0.2590
10949TIP3    H154338   5.585   3.036   5.369 -0.6565  0.2700 -0.6296
10949TIP3    H254339   5.479   3.111   5.445  0.5540  1.5211 -0.1556
10950TIP3   OH254340   3.741   6.397  13.712 -0.0005 -0.0212  0.5395
10950TIP3    H154341   3.729   6.335  13.784 -0.1401 -0.9715 -0.2816
10950TIP3    H254342   3.676   6.465  13.728  0.5644  0.2350  1.7843
10951TIP3   OH254343   1.665   3.597   0.713 -0.3901  0.8159  0.0151
10951TIP3    H154344   1.732   3.639   0.766 -1.8284  2.2666  0.7311
10951TIP3    H254345   1.591   3.585   0.772 -1.8483  2.0071 -1.4970
10952TIP3   OH254346   1.376   2.808  16.389  0.0773 -0.3353  0.0432
10952TIP3    H154347   1.460   2.814  16.433 -0.0394 -0.7590  0.3237
10952TIP3    H254348   1.318   2.865  16.440  0.3883  0.5672 -0.6129
10953TIP3   OH254349   3.218   0.906   0.519 -0.0502 -0.3355  0.6307
10953TIP3    H154350   3.309   0.884   0.537  0.7409  2.2992  0.0891
10953TIP3    H254351   3.167   0.843   0.570  2.0595 -2.2696  0.4070
10954TIP3   OH254352   1.867   2.085  11.911  0.1711  0.7089 -0.0068
10954TIP3    H154353   1.909   2.156  11.960 -1.3167  0.7788  1.2183
10954TIP3    H254354   1.781   2.120  11.886 -0.9083 -0.8988  1.3156
10955TIP3   OH254355   1.160   2.675  13.517 -0.1305  0.5377  0.1273
10955TIP3    H154356   1.183   2.700  13.428  1.4966  2.1878  0.9711
10955TIP3    H254357   1.244   2.655  13.558 -0.9458 -1.0437  1.0471
10956TIP3   OH254358   2.658   1.235   4.572 -0.4097 -0.2667 -0.5491
10956TIP3    H154359   2.595   1.179   4.527 -1.8129 -0.2058  1.2896
10956TIP3    H254360   2.611   1.317   4.588  0.3635  0.0533  0.1726
10957TIP3   OH254361   4.751   0.297  13.053  0.2633  0.1277 -0.3976
10957TIP3    H154362   4.681   0.233  13.068  1.3917 -0.7891  1.1076
10957TIP3    H254363   4.807   0.289  13.130  0.0003  3.5254  0.2203
10958TIP3   OH254364   4.098   2.908   5.681  0.0269 -0.0822 -0.0780
10958TIP3    H154365   4.114   3.001   5.672  1.2490 -0.4724 -2.3561
10958TIP3    H254366   4.134   2.869   5.601  2.4780 -2.8718  2.2353
10959TIP3   OH254367   2.710   1.640   3.624  0.3358 -0.5750  0.0861
10959TIP3    H154368   2.710   1.684   3.708  2.1485 -1.8766  0.8147
10959TIP3    H254369   2.627   1.665   3.583  0.0567  1.1622  1.6620
10960TIP3   OH254370   6.164   0.533   1.006  0.5064  0.1314 -0.1514
10960TIP3    H154371   6.118   0.598   1.059  1.5772  2.1664 -1.6528
10960TIP3    H254372   6.222   0.488   1.067 -0.5636  0.2756  0.9811
10961TIP3   OH254373   5.645   3.959  11.436  0.4739  0.3060 -0.0631
10961TIP3    H154374   5.661   3.994  11.349 -3.8723  0.6221 -0.8756
10961TIP3    H254375   5.633   4.037  11.491 -1.2531  0.1730 -0.2002
10962TIP3   OH254376   4.416   0.986   5.931  0.2919  0.6073  0.2237
10962TIP3    H154377   4.450   1.004   6.018  0.8556  0.9751 -0.0716
10962TIP3    H254378   4.364   1.063   5.909  1.3380  1.1643 -0.3543
10963TIP3   OH254379   3.258   0.968  15.574 -0.0414 -0.4961 -0.6655
10963TIP3    H154380   3.347   0.978  15.542  0.9102 -0.6810  1.8375
10963TIP3    H254381   3.260   0.890  15.630 -1.0174  1.1985  1.8453
10964TIP3   OH254382   5.776   6.353  13.202 -0.1928 -0.7584 -0.0104
10964TIP3    H154383   5.795   6.335  13.110 -2.5448 -1.7470 -0.3469
10964TIP3    H254384   5.850   6.316  13.249  0.3859 -1.4711 -1.4242
10965TIP3   OH254385   5.968   2.618  11.398  0.1335 -0.3254  0.4249
10965TIP3    H154386   5.938   2.546  11.342  1.9498 -1.3849  0.7774
10965TIP3    H254387   5.888   2.650  11.440 -0.7156 -2.0808  0.2106
10966TIP3   OH254388   1.478   0.658  14.172 -0.2182 -0.3128  0.4240
10966TIP3    H154389   1.434   0.606  14.105 -0.0508 -1.1189  0.9342
10966TIP3    H254390   1.533   0.718  14.123  0.5901 -1.5027 -0.1481
10967TIP3   OH254391   0.791   3.775   0.813 -0.0708 -0.2360  0.2283
10967TIP3    H154392   0.735   3.841   0.773  0.3648 -0.9872 -1.6584
10967TIP3    H254393   0.767   3.776   0.906  0.1089  2.7232  0.2823
10968TIP3   OH254394   6.468   6.816  11.000  0.5973 -0.1120  0.2356
10968TIP3    H154395   6.564   6.808  11.000  0.8740  2.7132  1.0477
10968TIP3    H254396   6.450   6.886  10.937 -0.8354  0.3669  1.1757
10969TIP3   OH254397   2.254   5.617  14.913 -0.2245 -0.2701 -0.1042
10969TIP3    H154398   2.328   5.610  14.974  0.2054  0.8187 -0.4865
10969TIP3    H254399   2.189   5.670  14.960 -0.2955 -0.2694 -0.2048
10970TIP3   OH254400   0.704   5.949  14.361  0.2096 -0.0224 -0.2645
10970TIP3    H154401   0.617   5.950  14.319 -0.0558  0.9902  0.2879
10970TIP3    H254402   0.698   5.880  14.427  0.5707 -1.5061 -1.7376
10971TIP3   OH254403   0.088   1.844  15.507 -0.8094 -0.4304  0.0903
10971TIP3    H154404   0.176   1.872  15.482 -0.4103 -0.1686  1.7164
10971TIP3    H254405   0.039   1.842  15.425  1.2192 -2.4285 -1.1366
10972TIP3   OH254406   4.978   6.425   5.435 -0.9022  0.8029  0.0166
10972TIP3    H154407   4.899   6.469   5.404 -0.4197  0.0829 -2.3748
10972TIP3    H254408   5.050   6.480   5.404 -0.3804 -0.3962 -0.9617
10973TIP3   OH254409   5.936   2.499   3.460  0.0383 -0.0150  0.6176
10973TIP3    H154410   5.946   2.510   3.365 -1.4521  3.6441  0.7976
10973TIP3    H254411   6.025   2.481   3.491  0.5373 -1.3960 -1.4645
10974TIP3   OH254412   1.367   2.538   0.416  0.1468  0.1758  0.4334
10974TIP3    H154413   1.276   2.529   0.386 -0.0783  1.8535  0.5527
10974TIP3    H254414   1.359   2.554   0.510  0.5914 -0.0468  0.5086
10975TIP3   OH254415   0.126   4.335   5.368 -0.4752 -0.6821 -0.5372
10975TIP3    H154416   0.126   4.369   5.457 -0.4174 -1.8506 -0.0891
10975TIP3    H254417   0.150   4.243   5.377 -0.0191 -0.6941 -1.7997
10976TIP3   OH254418   4.595   3.925   5.877  0.0199  0.0483  0.1641
10976TIP3    H154419   4.583   3.855   5.940 -0.6812 -0.8534 -0.9572
10976TIP3    H254420   4.506   3.954   5.856  0.3180  1.6602  1.0455
10977TIP3   OH254421   6.108   5.241   3.870 -0.9485 -0.5984 -0.2434
10977TIP3    H154422   6.032   5.202   3.913 -2.1168  0.2874 -1.4773
10977TIP3    H254423   6.082   5.332   3.853  0.9852  0.1871  0.7872
10978TIP3   OH254424   3.189   0.909   4.843 -0.3280  0.0026  1.2612
10978TIP3    H154425   3.140   0.966   4.784 -0.5554 -0.7054  0.7474
10978TIP3    H254426   3.196   0.958   4.925 -1.4320  0.3254  1.1723
10979TIP3   OH254427   4.229   2.463  17.071 -0.0748 -0.0548  0.4499
10979TIP3    H154428   4.281   2.384  17.080  0.1894  0.3543  2.6587
10979TIP3    H254429   4.208   2.490  17.160 -0.9842  1.8280 -0.2829
10980TIP3   OH254430   5.704   3.284   3.176  0.1981 -0.0931  0.0545
10980TIP3    H154431   5.736   3.234   3.251  0.6420 -1.9394 -1.3244
10980TIP3    H254432   5.772   3.349   3.159  0.2841  0.0598  0.9810
10981TIP3   OH254433   2.116   5.544   2.798  0.4013 -0.1989  0.5349
10981TIP3    H154434   2.198   5.586   2.773  0.8810 -2.1536 -1.3692
10981TIP3    H254435   2.048   5.599   2.759  0.8729  0.4186  0.5719
10982TIP3   OH254436   3.278   6.021   1.542  0.6460  0.5731  0.1776
10982TIP3    H154437   3.281   5.990   1.632 -0.7709 -0.4095 -0.1055
10982TIP3    H254438   3.249   6.112   1.548 -0.7033  0.1236  0.6368
10983TIP3   OH254439   1.493   4.369  11.203 -0.1653  0.4589  0.0245
10983TIP3    H154440   1.480   4.408  11.290 -0.7440  1.1474 -0.3630
10983TIP3    H254441   1.586   4.379  11.186  0.1675 -0.7494  1.0740
10984TIP3   OH254442   5.844   5.474   5.188 -0.0361 -0.1201  0.2023
10984TIP3    H154443   5.758   5.499   5.154  0.0127  0.3761  0.4479
10984TIP3    H254444   5.825   5.432   5.272 -0.1106 -0.8408 -0.1699
10985TIP3   OH254445   4.205   2.406   1.648 -0.0713  0.0802 -0.2276
10985TIP3    H154446   4.135   2.340   1.643 -0.3648  0.3803 -0.1217
10985TIP3    H254447   4.236   2.402   1.738  0.7851 -0.7996 -0.5483
10986TIP3   OH254448   4.104   4.881  14.579  0.1873 -0.1059  0.1554
10986TIP3    H154449   4.085   4.825  14.503  0.3540 -0.9904  0.7603
10986TIP3    H254450   4.110   4.969  14.542 -0.6542 -0.3995 -0.7229
10987TIP3   OH254451   6.047   3.422   0.252 -0.4329  0.2923 -0.5821
10987TIP3    H154452   6.070   3.459   0.337  0.9692 -0.8834 -0.4372
10987TIP3    H254453   5.971   3.473   0.223 -0.2027  1.4570  0.8401
10988TIP3   OH254454   3.026   0.257  15.096 -0.1134  0.7635  0.0670
10988TIP3    H154455   3.053   0.346  15.118  0.4823  0.3639  0.9662
10988TIP3    H254456   3.046   0.205  15.174 -1.9501  0.1382  0.1443
10989TIP3   OH254457   4.869   0.167  15.462 -0.0515  0.0329  0.6544
10989TIP3    H154458   4.965   0.174  15.459 -0.0023 -0.8074  0.1586
10989TIP3    H254459   4.852   0.123  15.546  0.0352 -0.3207  0.4911
10990TIP3   OH254460   1.389   2.851  11.294 -0.5383 -0.0078 -0.4808
10990TIP3    H154461   1.366   2.759  11.278 -0.4936 -0.0993 -0.0140
10990TIP3    H254462   1.335   2.900  11.232 -0.5048 -0.3528 -0.7858
10991TIP3   OH254463   1.944   6.314   4.200 -0.4433  0.5868 -0.0844
10991TIP3    H154464   1.918   6.398   4.162 -2.5249  0.7655  1.6513
10991TIP3    H254465   1.862   6.272   4.224  0.6284 -1.5417 -0.0302
10992TIP3   OH254466   1.299   6.337   5.415  0.2800 -0.2740  0.2922
10992TIP3    H154467   1.212   6.301   5.396  1.0890 -0.5346 -3.3573
10992TIP3    H254468   1.288   6.431   5.408  0.6989 -0.3795 -2.5243
10993TIP3   OH254469   3.449   0.420  16.380 -0.1466  0.3976 -0.1970
10993TIP3    H154470   3.459   0.364  16.457  3.9062 -0.9258 -1.5379
10993TIP3    H254471   3.481   0.506  16.408 -1.1532  0.6285  0.2841
10994TIP3   OH254472   4.489   1.075   4.614  0.2668  0.2272 -0.1509
10994TIP3    H154473   4.547   1.064   4.690 -0.5695 -0.5851  0.3823
10994TIP3    H254474   4.456   1.164   4.621  0.3502  0.2199  0.3272
10995TIP3   OH254475   0.492   2.945   2.807  0.2388 -0.3898 -0.3475
10995TIP3    H154476   0.492   2.893   2.727 -0.2414  0.5501 -0.9708
10995TIP3    H254477   0.579   2.933   2.844  0.2430 -1.3705 -0.6447
10996TIP3   OH254478   0.509   2.989   5.640 -0.1383 -0.2265  0.3163
10996TIP3    H154479   0.488   3.023   5.726  0.8197 -0.2364  0.5612
10996TIP3    H254480   0.605   2.993   5.635 -0.2999  2.2600 -1.7610
10997TIP3   OH254481   3.697   2.801  13.294 -0.5054 -0.2760 -0.9907
10997TIP3    H154482   3.637   2.860  13.340  0.0948  0.4970 -1.2018
10997TIP3    H254483   3.769   2.857  13.267  1.0031 -1.4644  0.4698
10998TIP3   OH254484   4.319   4.508   3.019  0.1225 -0.1937 -0.3236
10998TIP3    H154485   4.401   4.532   3.063 -0.0877 -1.1336  0.6272
10998TIP3    H254486   4.252   4.517   3.088 -1.1126  3.7540 -1.9326
10999TIP3   OH254487   1.767   5.454   1.395  0.3110  0.6254  0.4411
10999TIP3    H154488   1.825   5.505   1.339  1.6438  0.0115  1.2418
10999TIP3    H254489   1.824   5.393   1.440 -1.1346 -0.8922  0.2664
11000TIP3   OH254490   4.139   4.957  15.950  0.0900 -0.0627 -0.0019
11000TIP3    H154491   4.156   4.867  15.976 -1.1639 -0.4283 -0.3868
11000TIP3    H254492   4.204   5.009  15.998  0.1782 -1.0663  0.9906
11001TIP3   OH254493   1.965   5.759   2.434  0.6117  0.1866  0.1901
11001TIP3    H154494   1.917   5.785   2.355  2.9808  1.2913 -0.9687
11001TIP3    H254495   2.022   5.688   2.404 -1.8314 -2.6408  2.0527
11002TIP3   OH254496   2.998   0.583  14.756 -0.0384 -0.5517 -0.6666
11002TIP3    H154497   2.946   0.627  14.689 -1.7588 -0.3925  0.7126
11002TIP3    H254498   3.031   0.654  14.811  0.0964 -0.7574 -0.4813
11003TIP3   OH254499   2.825   6.666  11.556  0.5431  0.1430 -0.1583
11003TIP3    H154500   2.778   6.609  11.617  0.8361  0.8608  0.7656
11003TIP3    H254501   2.831   6.616  11.475  1.7651 -1.5615  0.9712
11004TIP3   OH254502   1.793   3.191  12.600  0.0891 -0.1466 -0.2504
11004TIP3    H154503   1.797   3.107  12.555  0.4563  0.3044 -1.0575
11004TIP3    H254504   1.883   3.224  12.600 -0.0117  0.1422  0.2593
11005TIP3   OH254505   1.874   1.523  13.699 -0.2827 -0.3112  0.2695
11005TIP3    H154506   1.877   1.519  13.604  0.9148  1.2120  0.2267
11005TIP3    H254507   1.845   1.436  13.726  1.9464 -1.6081 -1.3732
11006TIP3   OH254508   2.131   2.049   2.086  0.0484  0.0743 -0.1557
11006TIP3    H154509   2.075   2.113   2.131 -0.3981 -1.3363  1.3613
11006TIP3    H254510   2.193   2.102   2.037 -2.3621  1.6842 -1.5763
11007TIP3   OH254511   4.241   4.103  15.250 -0.1459  0.5799  0.0371
11007TIP3    H154512   4.220   4.177  15.194  0.2000  0.5478 -0.1406
11007TIP3    H254513   4.283   4.142  15.327 -1.5763  0.7124  0.7680
11008TIP3   OH254514   6.784   5.506   6.714 -0.7400 -0.0720 -0.3903
11008TIP3    H154515   6.829   5.456   6.647  1.5782 -0.3008  1.2988
11008TIP3    H254516   6.794   5.597   6.687  1.1195 -0.0943  0.1758
11009TIP3   OH254517   2.419   2.124  14.140  0.1185  0.0896  0.1653
11009TIP3    H154518   2.400   2.117  14.233 -1.0831 -0.5893 -0.1243
11009TIP3    H254519   2.439   2.217  14.127  0.6523  0.1233  1.1484
11010TIP3   OH254520   1.528   5.774   5.073  0.4055  0.3245  0.2985
11010TIP3    H154521   1.613   5.758   5.114  0.7017  0.1726 -0.3785
11010TIP3    H254522   1.464   5.749   5.140  0.8696 -1.4669  0.1018
11011TIP3   OH254523   3.447   4.586  14.269  0.3180 -0.0343  0.0304
11011TIP3    H154524   3.457   4.509  14.212  0.6177  0.3581 -0.4533
11011TIP3    H254525   3.443   4.660  14.208  1.0188  0.4226  0.5391
11012TIP3   OH254526   4.152   0.902   1.080  0.6293  0.2397  0.2033
11012TIP3    H154527   4.159   0.820   1.032 -0.5839 -0.7917  1.7270
11012TIP3    H254528   4.094   0.957   1.027 -1.4374 -1.2129  0.8790
11013TIP3   OH254529   0.441   3.136   2.202  0.2582 -0.2929 -0.3450
11013TIP3    H154530   0.355   3.155   2.238  1.0340 -0.1354  1.4609
11013TIP3    H254531   0.425   3.070   2.135 -1.1815 -0.7130  0.4070
11014TIP3   OH254532   2.299   3.891   6.276 -0.4344 -0.1487 -0.1315
11014TIP3    H154533   2.288   3.811   6.225 -0.0734 -0.4989  0.3331
11014TIP3    H254534   2.289   3.863   6.367 -0.3567  0.3436  0.0309
11015TIP3   OH254535   4.611   3.394  16.635 -0.6856 -0.0520 -0.0056
11015TIP3    H154536   4.617   3.438  16.720  0.8853 -1.5243  0.6824
11015TIP3    H254537   4.620   3.301  16.656 -1.7313 -0.5479 -1.6510
11016TIP3   OH254538   3.799   2.402   6.209  0.4719 -0.5114 -0.5052
11016TIP3    H154539   3.847   2.330   6.169  0.8871 -0.4934 -0.0459
11016TIP3    H254540   3.845   2.481   6.181 -0.7121 -0.3259 -2.0215
11017TIP3   OH254541   3.612   5.528  15.959 -0.4670  0.2704  0.5390
11017TIP3    H154542   3.640   5.476  15.883 -0.6672  1.6036 -0.4606
11017TIP3    H254543   3.692   5.539  16.011 -0.4049 -0.9465  0.7164
11018TIP3   OH254544   1.934   2.851  11.962 -0.1283 -0.1703 -0.6405
11018TIP3    H154545   1.923   2.765  11.921  0.6693 -0.1689 -0.8681
11018TIP3    H254546   2.008   2.840  12.022  1.2079  0.8583 -2.0719
11019TIP3   OH254547   3.765   4.552  16.495  0.5556  0.0436 -0.1521
11019TIP3    H154548   3.824   4.596  16.434  2.4778 -0.7574  1.0430
11019TIP3    H254549   3.684   4.603  16.492  0.6252  0.0786 -3.2564
11020TIP3   OH254550   1.018   1.114   5.590 -0.1989 -0.8881  0.0013
11020TIP3    H154551   1.102   1.153   5.563 -1.3063  1.0460 -0.7518
11020TIP3    H254552   1.022   1.115   5.686  0.5428 -0.5949 -0.0224
11021TIP3   OH254553   5.166   6.814   6.499 -0.0502 -0.0662 -0.4340
11021TIP3    H154554   5.157   6.900   6.458  2.1934 -1.0309 -3.0615
11021TIP3    H254555   5.082   6.800   6.544 -0.1117  3.8664  0.8330
11022TIP3   OH254556   3.634   4.767  15.245  0.1404 -0.5332  0.3105
11022TIP3    H154557   3.544   4.737  15.248 -0.2004  0.3559 -0.9938
11022TIP3    H254558   3.647   4.799  15.156  0.9210  1.8502  1.2233
11023TIP3   OH254559   4.037   5.313   5.637 -0.6700  0.4110 -0.6549
11023TIP3    H154560   4.018   5.303   5.544  2.4330  1.8013 -1.5404
11023TIP3    H254561   4.123   5.273   5.648 -0.2009  1.8443  1.2219
11024TIP3   OH254562   4.039   3.951  11.882 -1.0192 -0.4756 -0.2350
11024TIP3    H154563   4.114   3.996  11.921 -2.2333 -0.0562  1.6722
11024TIP3    H254564   4.028   3.993  11.796  0.4815 -0.0825 -0.2495
11025TIP3   OH254565   0.953   2.980  13.679  0.5135  0.1824 -0.0543
11025TIP3    H154566   0.988   2.929  13.752  0.6348  0.0416 -0.2119
11025TIP3    H254567   0.887   3.037  13.719  1.2079  0.7379  0.3026
11026TIP3   OH254568   6.033   1.230  14.152  0.4025 -0.5178  0.1853
11026TIP3    H154569   6.126   1.233  14.132  0.6947 -0.1362  1.5445
11026TIP3    H254570   6.016   1.311  14.200 -0.5846 -0.6857  0.1334
11027TIP3   OH254571   0.169   6.641  12.066  0.2157  0.6972  0.1532
11027TIP3    H154572   0.125   6.648  12.151  0.0609  1.1676  0.0309
11027TIP3    H254573   0.099   6.626  12.003  0.0057  3.4335 -0.3227
11028TIP3   OH254574   5.347   4.515  16.377 -0.2259 -0.0028 -0.0085
11028TIP3    H154575   5.388   4.433  16.402  2.7829  1.0325 -1.2531
11028TIP3    H254576   5.274   4.490  16.321 -0.0628 -1.8599  0.6013
11029TIP3   OH254577   3.598   5.607   0.492 -0.1619 -0.3215 -0.1643
11029TIP3    H154578   3.531   5.539   0.487 -0.5342  0.0080  0.3165
11029TIP3    H254579   3.628   5.605   0.583 -0.9862  0.9290  0.1548
11030TIP3   OH254580   6.806   6.204  12.790  0.3018 -0.0724  0.2043
11030TIP3    H154581   6.806   6.279  12.849 -0.3941 -0.0035  0.1143
11030TIP3    H254582   6.828   6.241  12.704  2.5588 -0.3450  0.6292
11031TIP3   OH254583   1.096   3.422   0.284 -0.1612  0.3828  0.3127
11031TIP3    H154584   1.177   3.466   0.258 -0.6401  1.1039  0.0244
11031TIP3    H254585   1.033   3.446   0.216 -0.2283 -1.3949 -0.2857
11032TIP3   OH254586   4.480   4.406   3.563 -0.4627 -0.5072 -0.3566
11032TIP3    H154587   4.417   4.392   3.634 -1.3061  0.1372 -0.9729
11032TIP3    H254588   4.435   4.463   3.501 -0.2453 -2.1390 -2.0746
11033TIP3   OH254589   3.749   6.061  15.495 -0.6604  0.2882 -0.3032
11033TIP3    H154590   3.655   6.066  15.477 -0.6813  0.2330 -0.2085
11033TIP3    H254591   3.788   6.128  15.439 -0.5357 -1.0941 -1.9232
11034TIP3   OH254592   5.135   2.213   3.535 -0.4584  0.7205  0.3100
11034TIP3    H154593   5.214   2.161   3.549  0.5792  2.3029  0.4861
11034TIP3    H254594   5.139   2.238   3.443 -0.0178  1.9944  0.6745
11035TIP3   OH254595   4.502   6.448   1.094 -0.7445 -0.2988 -0.2732
11035TIP3    H154596   4.418   6.447   1.047 -1.7808 -2.4839  1.5156
11035TIP3    H254597   4.558   6.389   1.044 -0.9189 -0.3771 -0.3760
11036TIP3   OH254598   1.423   6.489  10.544 -0.7798 -0.1750  0.2910
11036TIP3    H154599   1.425   6.582  10.567 -1.5569 -0.1314  0.1916
11036TIP3    H254600   1.380   6.448  10.619  0.6082 -0.6196  0.8706
11037TIP3   OH254601   3.211   4.749  11.501  0.3420  0.1020  0.2974
11037TIP3    H154602   3.264   4.679  11.539 -1.1885 -0.5558  1.2626
11037TIP3    H254603   3.123   4.731  11.532 -0.4635  1.1447 -1.3463
11038TIP3   OH254604   6.195   6.684   5.945  0.3566 -0.2683 -0.3503
11038TIP3    H154605   6.195   6.591   5.968 -0.8738 -0.5285 -1.3741
11038TIP3    H254606   6.218   6.686   5.852 -1.5756  0.3075 -0.8414
11039TIP3   OH254607   3.692   3.423  12.149  0.0331 -0.3256 -0.5110
11039TIP3    H154608   3.612   3.444  12.101 -1.3640  0.1365  1.9171
11039TIP3    H254609   3.679   3.332  12.178  0.4972 -0.3288 -0.3095
11040TIP3   OH254610   4.313   3.177  14.207 -0.5377  0.5969 -0.2094
11040TIP3    H154611   4.335   3.175  14.114  3.0044 -0.6103  0.5971
11040TIP3    H254612   4.364   3.106  14.246 -0.1104  2.5621  3.0245
11041TIP3   OH254613   4.221   3.583   4.967 -0.3098  0.4592 -0.3572
11041TIP3    H154614   4.206   3.625   5.052  2.6601  1.2641 -0.1760
11041TIP3    H254615   4.193   3.648   4.903  1.7680  1.7027 -0.0330
11042TIP3   OH254616   0.972   3.518   4.792  0.3156  0.0881  0.6445
11042TIP3    H154617   0.916   3.595   4.801 -0.7347 -0.3904 -1.5176
11042TIP3    H254618   0.968   3.474   4.877 -2.1943  0.3154  0.6572
11043TIP3   OH254619   4.635   6.161  12.100  0.0630 -0.0906  0.3399
11043TIP3    H154620   4.596   6.132  12.182 -0.2931  0.1110  0.2430
11043TIP3    H254621   4.566   6.147  12.035  0.2586 -0.0149  0.1166
11044TIP3   OH254622   6.217   5.667   6.044 -0.4530 -0.1217  0.1782
11044TIP3    H154623   6.307   5.658   6.075 -1.0605  1.4169  2.4374
11044TIP3    H254624   6.165   5.615   6.105 -1.3999  1.0876  0.4200
11045TIP3   OH254625   0.271   2.831  13.629  0.6106 -0.3413  0.3625
11045TIP3    H154626   0.295   2.922  13.614 -0.9521  0.1896  0.9773
11045TIP3    H254627   0.269   2.792  13.541 -0.3646  0.6586 -0.0818
11046TIP3   OH254628   1.516   0.453   5.091 -0.0099 -0.0403 -0.0711
11046TIP3    H154629   1.441   0.394   5.080 -0.7237  0.5243  1.5502
11046TIP3    H254630   1.571   0.436   5.015 -1.6501 -0.6667 -1.1616
11047TIP3   OH254631   2.141   1.775   5.384  0.5362  0.3362  0.2763
11047TIP3    H154632   2.061   1.801   5.431 -0.3737 -2.0342  0.0902
11047TIP3    H254633   2.119   1.787   5.291  1.0377  1.4103  0.2884
11048TIP3   OH254634   1.720   2.442   5.146  0.3486 -0.0613  0.2457
11048TIP3    H154635   1.642   2.464   5.094 -0.3861 -0.9195  0.9540
11048TIP3    H254636   1.770   2.524   5.151  0.5997 -0.0516 -2.0750
11049TIP3   OH254637   6.365   1.433  16.902 -0.0162 -0.1182 -0.1825
11049TIP3    H154638   6.351   1.340  16.919 -0.6795 -0.1996 -1.1243
11049TIP3    H254639   6.425   1.461  16.971 -1.8525 -0.6411  1.6691
11050TIP3   OH254640   4.274   2.689  14.428 -0.2224  0.3169 -0.2862
11050TIP3    H154641   4.294   2.782  14.438  2.2049 -0.1241 -0.8070
11050TIP3    H254642   4.328   2.646  14.494  1.1439 -0.9819 -2.2036
11051TIP3   OH254643   5.795   5.086  13.025 -0.0664  0.2438  0.1082
11051TIP3    H154644   5.774   5.176  12.997 -1.1890  0.1583  0.6316
11051TIP3    H254645   5.858   5.055  12.960  1.0263  1.7226  0.4124
11052TIP3   OH254646   5.467   0.949   5.415  0.1130  0.3992 -0.3828
11052TIP3    H154647   5.390   0.950   5.473  0.5997 -0.4571  0.2906
11052TIP3    H254648   5.449   0.878   5.353  0.1443  0.5109 -0.5186
11053TIP3   OH254649   6.346   4.659   5.069  0.3400 -0.2627  0.4675
11053TIP3    H154650   6.279   4.595   5.045 -1.3759  0.9202  1.9411
11053TIP3    H254651   6.426   4.607   5.080 -0.9313 -2.1144  1.2947
11054TIP3   OH254652   2.889   5.058  13.195  0.8183 -0.3051  0.4026
11054TIP3    H154653   2.854   4.972  13.221  1.4613 -0.5783  0.3793
11054TIP3    H254654   2.884   5.111  13.274 -1.4705  0.2673 -0.0979
11055TIP3   OH254655   4.074   3.992  15.900  0.0409  0.6878  0.1590
11055TIP3    H154656   4.014   3.918  15.894  1.0843 -0.1820  0.0800
11055TIP3    H254657   4.146   3.959  15.954  1.4476  0.9724 -1.4953
11056TIP3   OH254658   5.835   3.893   2.842  0.9233  0.5889  0.0843
11056TIP3    H154659   5.777   3.870   2.770  0.8192  0.7668  0.1099
11056TIP3    H254660   5.889   3.964   2.807 -0.5396  2.1019  0.8469
11057TIP3   OH254661   5.540   5.074  13.516 -0.1738  0.7825 -0.4600
11057TIP3    H154662   5.549   5.112  13.428  1.3737  0.5841 -0.3905
11057TIP3    H254663   5.466   5.015  13.508  1.9446 -1.7297 -2.5386
11058TIP3   OH254664   6.625   2.461  12.752  0.4113 -0.3860  0.3345
11058TIP3    H154665   6.542   2.485  12.709  0.2132  1.3754  1.6848
11058TIP3    H254666   6.691   2.510  12.704  0.8407 -2.5752 -1.4081
11059TIP3   OH254667   1.210   3.775  11.420 -0.1558 -0.0443 -0.0937
11059TIP3    H154668   1.205   3.789  11.515  2.5142  1.3461 -0.1046
11059TIP3    H254669   1.125   3.805  11.387 -1.7737 -2.1672  2.0133
11060TIP3   OH254670   5.012   5.379  16.585 -0.1862  0.0104  0.3131
11060TIP3    H154671   4.966   5.313  16.638  0.1736  0.8790  1.7344
11060TIP3    H254672   4.942   5.437  16.554 -0.5034 -1.0036 -0.9391
11061TIP3   OH254673   4.753   6.598  14.299  0.3829  0.4611 -0.7472
11061TIP3    H154674   4.748   6.568  14.390 -0.7750  0.3526 -0.8309
11061TIP3    H254675   4.836   6.645  14.293  0.6661  0.0967  0.2546
11062TIP3   OH254676   4.109   5.481   4.477  0.0700  0.4701  0.1090
11062TIP3    H154677   4.079   5.509   4.564  1.7621  0.9977  0.5485
11062TIP3    H254678   4.151   5.397   4.492  0.2466  0.4982 -0.2254
11063TIP3   OH254679   3.041   2.534  15.953 -0.1245  0.0010 -0.0528
11063TIP3    H154680   2.967   2.476  15.938 -1.2806  1.6207 -0.6876
11063TIP3    H254681   3.023   2.611  15.900  0.8740  1.4014  1.5850
11064TIP3   OH254682   0.338   6.041   0.875  0.7565 -0.1133  0.3305
11064TIP3    H154683   0.270   6.039   0.943  0.6461  2.4773  0.3431
11064TIP3    H254684   0.420   6.031   0.923  0.5813  0.2036  0.7026
11065TIP3   OH254685   5.320   6.337  13.698  0.5491 -0.1971 -0.1637
11065TIP3    H154686   5.259   6.392  13.650 -1.4532 -2.8185 -0.7061
11065TIP3    H254687   5.403   6.347  13.652  0.1251  2.0127 -0.4965
11066TIP3   OH254688   2.431   3.270  17.219 -0.1425  0.1632  0.3407
11066TIP3    H154689   2.358   3.310  17.171 -0.0745  0.3541  0.3959
11066TIP3    H254690   2.463   3.340  17.277  0.7341  0.4123 -0.4201
11067TIP3   OH254691   4.894   0.423   5.234  0.3206 -0.0713 -1.1856
11067TIP3    H154692   4.942   0.360   5.179 -0.3246 -0.1219 -1.6840
11067TIP3    H254693   4.877   0.498   5.177 -0.3381 -0.1199 -1.0568
11068TIP3   OH254694   1.885   0.411  13.133  0.7696 -0.3877  0.8989
11068TIP3    H154695   1.936   0.381  13.057  0.5183 -2.7354  1.6070
11068TIP3    H254696   1.826   0.477  13.098  0.4323 -1.6722 -1.0197
11069TIP3   OH254697   2.431   1.313  17.006 -0.1032 -0.9515 -1.0244
11069TIP3    H154698   2.500   1.249  17.027  0.7860 -0.3945 -2.2167
11069TIP3    H254699   2.352   1.260  16.996  0.1318 -1.5920  0.4094
11070TIP3   OH254700   5.221   3.106  12.070 -0.1354 -0.5814 -0.4248
11070TIP3    H154701   5.242   3.191  12.108  0.6313 -1.1947  0.5359
11070TIP3    H254702   5.186   3.127  11.983 -2.5251  0.8785  0.8297
11071TIP3   OH254703   6.558   1.773  15.728  0.4429  0.1652  0.1318
11071TIP3    H154704   6.622   1.760  15.799 -0.5812 -1.2519  0.8123
11071TIP3    H254705   6.600   1.838  15.671  1.3986  1.1610  1.8917
11072TIP3   OH254706   1.870   1.757   2.493  0.2878 -0.3456  0.2009
11072TIP3    H154707   1.788   1.719   2.461 -0.2207 -0.2973  1.4165
11072TIP3    H254708   1.927   1.759   2.416 -1.0157  0.0940 -0.7621
11073TIP3   OH254709   4.539   3.141   4.461  0.1455  0.4570  0.1752
11073TIP3    H154710   4.554   3.209   4.395  0.3878 -1.6347 -1.9752
11073TIP3    H254711   4.624   3.131   4.505  1.1368 -1.0835 -2.0535
11074TIP3   OH254712   6.802   6.620  11.823  0.3185  0.7255  0.5096
11074TIP3    H154713   6.863   6.613  11.749 -0.7942  2.2372 -0.5950
11074TIP3    H254714   6.743   6.546  11.811 -1.8631  2.7565 -2.0792
11075TIP3   OH254715   0.896   0.897  16.115  0.3403  0.4181 -0.4264
11075TIP3    H154716   0.822   0.862  16.164 -0.3599  0.8188 -1.1742
11075TIP3    H254717   0.902   0.840  16.037  1.7402 -0.5130  0.3363
11076TIP3   OH254718   0.605   3.917  12.912 -0.3841  0.0912 -0.2596
11076TIP3    H154719   0.571   3.830  12.892 -0.7816  0.1208  0.2656
11076TIP3    H254720   0.694   3.917  12.877 -0.5417 -0.3692 -0.6642
11077TIP3   OH254721   6.342   6.274   1.834 -0.0560 -0.0843 -0.3222
11077TIP3    H154722   6.367   6.245   1.921 -1.3752  3.7986  1.4869
11077TIP3    H254723   6.262   6.226   1.814  0.0590 -0.7361  0.7740
11078TIP3   OH254724   0.609   5.946   3.092 -0.2649  0.8696  0.1517
11078TIP3    H154725   0.536   5.988   3.138  0.3249  3.7182 -1.4353
11078TIP3    H254726   0.581   5.854   3.083 -2.4261  1.2919  1.9801
11079TIP3   OH254727   5.121   3.444  14.815 -0.2728  0.5736  0.5682
11079TIP3    H154728   5.215   3.444  14.797 -0.4108  0.8919 -0.1810
11079TIP3    H254729   5.090   3.527  14.778 -1.1135 -0.2347 -0.5801
11080TIP3   OH254730   5.613   4.006  12.213  0.4944  0.4970 -0.3292
11080TIP3    H154731   5.592   4.094  12.243  0.9406  0.0330  1.4168
11080TIP3    H254732   5.546   3.986  12.148 -0.1161  1.7927 -0.1174
11081TIP3   OH254733   5.851   0.280   3.572 -0.2401 -0.3837  0.0186
11081TIP3    H154734   5.913   0.354   3.573  1.1675 -1.4643 -2.2438
11081TIP3    H254735   5.765   0.321   3.567  0.4672  1.1335 -0.0988
11082TIP3   OH254736   0.840   4.329   5.774 -0.0786 -0.1988  0.4934
11082TIP3    H154737   0.899   4.398   5.805 -0.9939  1.1636 -0.6961
11082TIP3    H254738   0.836   4.342   5.679 -1.0093 -1.2884  0.3722
11083TIP3   OH254739   5.439   3.230   5.637  0.5398  0.2161  0.0589
11083TIP3    H154740   5.358   3.270   5.607  1.5357 -0.3255 -3.6260
11083TIP3    H254741   5.504   3.300   5.633  1.1332 -0.3942 -1.0885
11084TIP3   OH254742   3.845   3.013   2.996 -0.5043 -0.4398  0.1819
11084TIP3    H154743   3.880   2.929   2.966 -1.3629 -0.0724 -1.9598
11084TIP3    H254744   3.768   2.991   3.047 -0.5744 -0.9687 -0.1508
11085TIP3   OH254745   2.766   4.102   5.260  0.2585 -0.4786  0.2013
11085TIP3    H154746   2.707   4.082   5.332 -0.3715  0.0764 -0.1542
11085TIP3    H254747   2.721   4.171   5.210  0.5553 -1.0566 -0.8803
11086TIP3   OH254748   4.148   4.798  17.187 -0.0842 -0.1258  0.0538
11086TIP3    H154749   4.185   4.802  17.098 -0.6870 -0.3415 -0.2060
11086TIP3    H254750   4.173   4.711  17.219 -1.7988 -0.9437 -0.7545
11087TIP3   OH254751   5.412   0.113  12.107 -0.4081 -0.1750 -0.0648
11087TIP3    H154752   5.505   0.113  12.128 -0.1647  0.0749 -1.1291
11087TIP3    H254753   5.382   0.201  12.129 -0.5253 -0.4432  0.8524
11088TIP3   OH254754   0.825   5.279   0.529 -0.2654 -0.3589  0.1195
11088TIP3    H154755   0.850   5.216   0.462 -0.5886  1.0330 -1.3349
11088TIP3    H254756   0.730   5.291   0.517 -0.1781  0.5181  0.2675
11089TIP3   OH254757   5.354   1.302   2.860  0.1946 -0.1015  0.6006
11089TIP3    H154758   5.426   1.271   2.915 -0.4072 -1.3493  0.7261
11089TIP3    H254759   5.282   1.241   2.879 -0.2770 -0.0522 -0.9669
11090TIP3   OH254760   6.403   5.198  12.970  0.2831 -0.1889  0.0051
11090TIP3    H154761   6.350   5.136  13.020 -0.2697  0.3482  0.0931
11090TIP3    H254762   6.482   5.211  13.023 -0.6992  1.0820  1.2084
11091TIP3   OH254763   0.278   5.640   2.795 -0.0314 -0.3519 -0.0089
11091TIP3    H154764   0.313   5.626   2.707 -0.3694  0.4713 -0.2746
11091TIP3    H254765   0.299   5.731   2.815  0.0952 -0.5491  0.7903
11092TIP3   OH254766   3.950   1.264   4.468  0.8838 -0.4624  0.2118
11092TIP3    H154767   3.878   1.284   4.528  0.6108  0.9239 -0.5412
11092TIP3    H254768   4.028   1.263   4.524  0.4210 -0.8347  0.8528
11093TIP3   OH254769   5.177   3.264   4.069 -0.1439  0.3564 -0.6954
11093TIP3    H154770   5.160   3.171   4.057  2.2575 -0.0787 -1.0579
11093TIP3    H254771   5.254   3.267   4.125 -0.5963  2.1460 -0.1422
11094TIP3   OH254772   1.776   2.593  16.902  0.0384 -0.2229  0.2165
11094TIP3    H154773   1.742   2.518  16.853  2.4733 -0.5393 -1.1253
11094TIP3    H254774   1.858   2.560  16.941  1.0686  1.6790 -0.2903
11095TIP3   OH254775   1.482   2.669  15.243 -1.2463  0.2417 -0.2171
11095TIP3    H154776   1.538   2.591  15.242 -0.1698  0.9803  1.1069
11095TIP3    H254777   1.539   2.740  15.214 -1.4027  1.0640  1.4601
11096TIP3   OH254778   1.226   1.254   5.018  0.0976  0.3274 -0.1415
11096TIP3    H154779   1.263   1.203   4.946  1.1938 -0.3064  0.8558
11096TIP3    H254780   1.277   1.335   5.019 -0.6496  0.8118 -0.7709
11097TIP3   OH254781   0.618   6.356   2.651 -0.1510  0.3049  0.2730
11097TIP3    H154782   0.550   6.361   2.584 -1.2751 -0.6678  1.3171
11097TIP3    H254783   0.700   6.362   2.602 -0.9713  2.9717 -0.8763
11098TIP3   OH254784   2.509   2.373   1.191 -0.0433 -0.4598 -0.5160
11098TIP3    H154785   2.545   2.409   1.110  1.7635 -1.8214 -0.3403
11098TIP3    H254786   2.522   2.279   1.183 -0.0632 -0.6269  1.2527
11099TIP3   OH254787   5.484   0.175   4.791 -0.1572 -0.1281  0.4091
11099TIP3    H154788   5.470   0.083   4.811 -0.9386 -0.3614 -1.1295
11099TIP3    H254789   5.518   0.175   4.701 -1.7746  1.1586 -0.2256
11100TIP3   OH254790   4.563   1.199   5.465  0.1380 -0.1595  0.4058
11100TIP3    H154791   4.493   1.137   5.445 -0.3755  1.3186 -2.5882
11100TIP3    H254792   4.578   1.189   5.559 -2.8521 -1.7729  0.7544
11101TIP3   OH254793   5.551   0.646   3.073 -0.4213 -0.7427 -0.3993
11101TIP3    H154794   5.527   0.625   3.163 -1.1193 -1.5367 -0.7601
11101TIP3    H254795   5.570   0.561   3.033 -0.0781 -0.3901 -0.9907
11102TIP3   OH254796   6.109   2.837  12.172  0.1941  0.3502 -1.2506
11102TIP3    H154797   6.123   2.766  12.235  0.2544 -0.6559 -2.3566
11102TIP3    H254798   6.104   2.792  12.087 -0.4939  1.6092 -1.8919
11103TIP3   OH254799   3.893   2.401  11.906  0.4419  0.2243 -0.4205
11103TIP3    H154800   3.886   2.496  11.917 -1.2583  0.3271 -2.0933
11103TIP3    H254801   3.986   2.386  11.890  0.7973  1.5586  0.3104
11104TIP3   OH254802   0.070   6.311   4.626  0.0343 -0.5039 -0.1317
11104TIP3    H154803   0.028   6.302   4.540  1.3704  0.2337 -0.8723
11104TIP3    H254804   0.161   6.285   4.611  0.0817 -1.1924  1.2624
11105TIP3   OH254805   3.669   2.197   2.237  0.0713  0.0967  0.0334
11105TIP3    H154806   3.652   2.124   2.297  2.5596 -0.2696  0.3355
11105TIP3    H254807   3.688   2.155   2.154 -0.3998  0.4929 -0.2753
11106TIP3   OH254808   5.123   6.231   1.015  0.2191  0.9625 -0.2343
11106TIP3    H154809   5.175   6.191   1.085 -1.7046 -1.9553 -0.3835
11106TIP3    H254810   5.085   6.309   1.055  0.0366 -0.0706  1.6771
11107TIP3   OH254811   0.110   5.464  11.511  0.0001  0.0239 -0.5566
11107TIP3    H154812   0.099   5.545  11.562 -2.1228  0.4017 -1.5715
11107TIP3    H254813   0.033   5.412  11.533  0.3172 -0.8519 -1.5199
11108TIP3   OH254814   4.313   4.470   2.748 -0.2375 -0.6117  0.4252
11108TIP3    H154815   4.331   4.455   2.841  0.2745  1.2191  0.6433
11108TIP3    H254816   4.233   4.522   2.748 -0.3450 -0.7824 -0.1730
11109TIP3   OH254817   4.132   4.486   5.115 -0.1935  0.3128 -0.2680
11109TIP3    H154818   4.069   4.533   5.060 -1.5919 -0.8387  0.3436
11109TIP3    H254819   4.149   4.545   5.188 -1.5293  0.1128  0.2122
11110TIP3   OH254820   3.063   0.294  12.034  0.7864  0.5047  0.0441
11110TIP3    H154821   3.014   0.215  12.055  1.4794 -0.0826 -0.5133
11110TIP3    H254822   3.004   0.344  11.977 -0.0526  0.8743  1.2204
11111TIP3   OH254823   1.343   2.457   3.740 -0.0918 -0.0669  0.1755
11111TIP3    H154824   1.367   2.375   3.697  1.4768  0.0784  0.7593
11111TIP3    H254825   1.395   2.524   3.696 -1.3990  0.6427 -0.3319
11112TIP3   OH254826   0.190   5.730  12.206  0.5199 -0.4935 -0.2659
11112TIP3    H154827   0.112   5.759  12.253  1.5569  1.2237  0.4593
11112TIP3    H254828   0.162   5.653  12.157 -1.0566 -1.2136  1.7238
11113TIP3   OH254829   0.651   2.876  16.173 -0.8705 -0.5462 -0.1105
11113TIP3    H154830   0.705   2.849  16.099 -2.5449 -1.7394 -0.9121
11113TIP3    H254831   0.704   2.855  16.250  0.6156  0.1181 -0.9145
11114TIP3   OH254832   0.069   4.989   4.811  0.0380  0.1166  0.2513
11114TIP3    H154833  -0.015   4.982   4.857  0.0311 -0.3104  0.1772
11114TIP3    H254834   0.047   5.025   4.726 -0.1685 -0.6952 -0.0433
11115TIP3   OH254835   0.668   2.107  15.030  0.3316  0.4977  0.9631
11115TIP3    H154836   0.658   2.200  15.011  0.2741  0.4104  0.5615
11115TIP3    H254837   0.669   2.102  15.126 -2.7099  0.6004  1.0599
11116TIP3   OH254838   0.204   3.960  13.883 -0.4267 -0.1952  0.3948
11116TIP3    H154839   0.286   3.927  13.921  0.2629 -1.1279 -1.8047
11116TIP3    H254840   0.217   3.951  13.788 -2.1315  1.9568 -0.0611
11117TIP3   OH254841   2.866   3.482  11.135 -0.4707 -0.0984 -0.4595
11117TIP3    H154842   2.833   3.393  11.132 -1.6117  0.2853  0.2458
11117TIP3    H254843   2.872   3.509  11.044 -2.4304 -0.0764 -0.6072
11118TIP3   OH254844   2.726   0.229  12.041  0.1368 -0.2533  0.2314
11118TIP3    H154845   2.698   0.236  11.950  0.1284  1.6356  0.3503
11118TIP3    H254846   2.645   0.221  12.091  0.1346 -1.1316  0.0938
11119TIP3   OH254847   0.000   4.244  13.316 -0.1947 -0.1339 -0.2517
11119TIP3    H154848   0.080   4.295  13.301 -0.0305 -0.0374  0.8604
11119TIP3    H254849   0.031   4.153  13.322 -0.5813 -0.4932 -3.0037
11120TIP3   OH254850   5.298   3.041   0.023  0.2938 -0.4944 -0.4563
11120TIP3    H154851   5.307   3.094  -0.055 -0.9717 -0.8504 -0.8618
11120TIP3    H254852   5.208   3.007   0.019 -0.6064  1.3603  2.3085
11121TIP3   OH254853   0.076   2.554   3.415 -0.4896 -0.2027 -0.4242
11121TIP3    H154854   0.032   2.562   3.331 -1.4823 -0.6512  0.0364
11121TIP3    H254855   0.007   2.525   3.475 -0.2576  2.0759  0.9772
11122TIP3   OH254856   2.323   2.371   1.857  0.6239  0.2895  0.2480
11122TIP3    H154857   2.351   2.281   1.841  1.2762  0.7442 -1.2391
11122TIP3    H254858   2.330   2.414   1.772 -0.6661  1.4863  0.7250
11123TIP3   OH254859   2.895   4.550  15.027  0.0449 -0.4207 -0.8970
11123TIP3    H154860   2.919   4.530  14.936  0.3359 -1.8249 -0.5296
11123TIP3    H254861   2.937   4.634  15.045  0.0237 -0.1518 -2.0472
11124TIP3   OH254862   4.228   5.346  16.725 -0.8066 -0.1721 -0.5728
11124TIP3    H154863   4.210   5.322  16.634  1.4197 -0.4620 -0.9773
11124TIP3    H254864   4.309   5.299  16.746 -1.2448 -0.0100  1.5256
11125TIP3   OH254865   1.020   0.900  11.590 -0.2134 -0.0943 -0.5425
11125TIP3    H154866   1.040   0.831  11.652  1.0423  0.0203 -0.8099
11125TIP3    H254867   1.055   0.980  11.630  0.4022  0.0155 -1.2854
11126TIP3   OH254868   1.075   2.283   0.069  0.6135  0.0466 -0.6868
11126TIP3    H154869   1.150   2.340   0.088  1.6944 -2.1201  1.8858
11126TIP3    H254870   1.112   2.195   0.066 -1.3199 -0.7466 -2.7718
11127TIP3   OH254871   3.298   0.073  16.730  0.6205 -0.0907 -0.2587
11127TIP3    H154872   3.207   0.045  16.721  0.9065 -2.0582  2.1408
11127TIP3    H254873   3.347   0.016  16.671  0.5044 -0.4334 -0.0264
11128TIP3   OH254874   1.757   3.546   2.810  0.9939 -0.2072 -0.0515
11128TIP3    H154875   1.817   3.525   2.882  0.7708 -0.7401 -0.0172
11128TIP3    H254876   1.751   3.642   2.811 -0.6786 -0.2861  2.0172
11129TIP3   OH254877   5.046   2.598   3.749 -0.0697  0.4850  0.0714
11129TIP3    H154878   5.102   2.645   3.688  0.0601 -0.6199 -0.6642
11129TIP3    H254879   5.105   2.541   3.798 -0.1261  1.5606  1.4517
11130TIP3   OH254880   3.331   2.998   5.668 -0.0426  0.4226  0.0752
11130TIP3    H154881   3.268   3.059   5.629 -0.5219 -0.0672  0.0805
11130TIP3    H254882   3.277   2.936   5.716  0.5742  1.6530  2.4548
11131TIP3   OH254883   1.721   0.955  12.640 -0.1081  0.4637  0.7090
11131TIP3    H154884   1.797   0.968  12.584 -1.0476  0.7521 -0.5129
11131TIP3    H254885   1.669   1.035  12.629 -1.9878 -0.9085 -0.7008
11132TIP3   OH254886   4.684   6.724  16.073  0.1003 -0.0359  0.2648
11132TIP3    H154887   4.662   6.814  16.052  2.0793  0.8824  1.9507
11132TIP3    H254888   4.656   6.673  15.997 -0.8628  2.0080 -0.7694
11133TIP3   OH254889   3.973   0.179  11.227  0.3263 -0.3550 -0.0353
11133TIP3    H154890   4.029   0.252  11.201 -0.0734 -0.0517 -0.0432
11133TIP3    H254891   3.908   0.172  11.158  0.1236 -0.4634  0.1640
11134TIP3   OH254892   6.137   3.833   0.335 -0.1497 -0.7464  0.5915
11134TIP3    H154893   6.203   3.782   0.382  0.3070  0.0445  0.8167
11134TIP3    H254894   6.175   3.921   0.328 -0.6636 -0.5855 -0.3299
11135TIP3   OH254895   5.887   3.636   2.477 -0.0155 -0.5046  0.0100
11135TIP3    H154896   5.972   3.649   2.520 -0.0064 -0.4788 -0.0164
11135TIP3    H254897   5.907   3.639   2.384  0.0802 -1.2646  0.0035
11136TIP3   OH254898   1.240   3.180  14.903 -0.0171 -0.0105  0.5932
11136TIP3    H154899   1.216   3.130  14.981 -0.0137  0.3715  0.8410
11136TIP3    H254900   1.160   3.224  14.876  0.1456  0.4274  0.8045
11137TIP3   OH254901   4.264   0.634  11.163 -0.3152 -0.5006 -0.4882
11137TIP3    H154902   4.197   0.611  11.099  0.5046 -1.9144 -0.8564
11137TIP3    H254903   4.290   0.723  11.139  0.1526 -1.0948 -2.2842
11138TIP3   OH254904   1.549   5.098  11.633  0.7125 -0.5975  0.5383
11138TIP3    H154905   1.593   5.168  11.584  2.3135 -0.5557  1.9547
11138TIP3    H254906   1.473   5.076  11.580  0.0830  2.3051  0.1034
11139TIP3   OH254907   0.428   3.909   6.434  0.2827  0.2443 -0.5791
11139TIP3    H154908   0.436   3.818   6.403 -0.9295  0.3899 -1.3439
11139TIP3    H254909   0.335   3.919   6.454  0.2404  1.6323 -1.4594
11140TIP3   OH254910   3.998   4.803  15.657 -0.1499  0.7302 -0.4742
11140TIP3    H154911   4.009   4.784  15.750  0.6555  1.2874 -0.4500
11140TIP3    H254912   3.913   4.766  15.635  0.0185 -0.1237  0.2920
11141TIP3   OH254913   1.871   6.771  11.825 -0.0081  0.0507 -0.5565
11141TIP3    H154914   1.926   6.718  11.767 -0.5288 -1.5041  0.3751
11141TIP3    H254915   1.934   6.824  11.875  0.5589 -0.4072 -0.7719
11142TIP3   OH254916   4.069   3.225  14.039 -0.4423  0.1993 -0.4042
11142TIP3    H154917   4.132   3.202  13.970 -0.7907  0.2965 -0.7579
11142TIP3    H254918   4.121   3.229  14.119 -0.0626 -0.0828 -0.6350
11143TIP3   OH254919   0.437   2.909   1.627 -0.0748  0.6430 -0.3536
11143TIP3    H154920   0.342   2.899   1.634 -0.0707 -0.6555 -1.8226
11143TIP3    H254921   0.452   3.003   1.628 -1.4253  0.8702 -0.6265
11144TIP3   OH254922   2.025   4.415   3.084  0.0210 -0.0383 -0.2636
11144TIP3    H154923   1.999   4.326   3.061 -0.2780  0.0510 -0.2631
11144TIP3    H254924   1.986   4.430   3.170 -1.2547  0.6654 -0.9534
11145TIP3   OH254925   3.018   3.193  16.134 -0.2088 -0.0130  0.4438
11145TIP3    H154926   3.070   3.199  16.214  1.0500  1.7442 -0.4721
11145TIP3    H254927   3.004   3.284  16.107  0.6769 -0.5885 -2.1335
11146TIP3   OH254928   5.939   3.955   6.242 -0.1693  0.2375 -0.0714
11146TIP3    H154929   5.939   3.967   6.337 -1.1251 -0.0737 -0.0334
11146TIP3    H254930   5.860   3.998   6.211 -0.5786 -0.8422 -0.5702
11147TIP3   OH254931   1.936   5.817  14.336 -0.1147  0.5442  0.2762
11147TIP3    H154932   1.959   5.826  14.244 -0.8166 -0.2728  0.0143
11147TIP3    H254933   1.856   5.765  14.336 -0.7382  1.4829  1.2893
11148TIP3   OH254934   1.195   2.487  10.722  0.2629  0.1919 -0.3644
11148TIP3    H154935   1.194   2.394  10.747 -0.7397  0.1814 -0.4115
11148TIP3    H254936   1.104   2.515  10.733  0.4953  1.0776 -0.6963
11149TIP3   OH254937   1.829   2.761   0.817 -0.7527 -0.0329  0.2135
11149TIP3    H154938   1.809   2.712   0.738 -1.2359 -0.9854  0.9117
11149TIP3    H254939   1.757   2.824   0.826 -0.0546  0.9130 -0.7645
11150TIP3   OH254940   3.287   2.429   4.871 -0.2825 -0.1308  0.3797
11150TIP3    H154941   3.320   2.471   4.792 -3.3453  0.5018 -0.6047
11150TIP3    H254942   3.309   2.491   4.941  1.9380 -0.4412  0.0163
11151TIP3   OH254943   3.932   4.751   2.437  0.0610 -0.2123 -0.0528
11151TIP3    H154944   3.981   4.670   2.449  0.6568 -0.0026 -0.9894
11151TIP3    H254945   3.871   4.732   2.366 -1.2603 -0.4805  1.1300
11152TIP3   OH254946   4.440   2.565   0.343  0.0413 -0.2734  0.3533
11152TIP3    H154947   4.392   2.490   0.378 -0.3921 -0.2253 -0.1298
11152TIP3    H254948   4.517   2.572   0.399  0.2743 -1.3097  0.1757
11153TIP3   OH254949   0.192   0.758  10.618 -0.0541  0.0774 -0.1362
11153TIP3    H154950   0.270   0.808  10.595 -0.5465  0.6499 -0.5962
11153TIP3    H254951   0.217   0.708  10.695  1.0032 -0.3296 -0.7325
11154TIP3   OH254952   0.193   5.883  12.773 -0.5005  0.3044 -0.5226
11154TIP3    H154953   0.202   5.849  12.683  1.2014  0.2627 -0.3585
11154TIP3    H254954   0.249   5.960  12.775 -3.4722  2.5277 -0.5489
11155TIP3   OH254955   1.665   1.397   4.181  0.2647  0.0598 -0.3006
11155TIP3    H154956   1.596   1.412   4.117  0.5001  0.1111 -0.5488
11155TIP3    H254957   1.653   1.464   4.247  0.2654  0.2606 -0.5037
11156TIP3   OH254958   5.783   5.517  15.820 -0.1155  0.0246  0.5081
11156TIP3    H154959   5.863   5.554  15.859 -0.5412 -0.8778  2.2863
11156TIP3    H254960   5.760   5.578  15.750  1.5150  0.8835  0.6903
11157TIP3   OH254961   1.300   0.246  16.970  0.1517 -0.3835 -0.1278
11157TIP3    H154962   1.283   0.264  17.063 -1.5194  2.1542 -0.8408
11157TIP3    H254963   1.382   0.291  16.951  0.0663 -0.1949 -0.0555
11158TIP3   OH254964   1.924   3.260   5.709 -0.3930  0.3747 -0.1124
11158TIP3    H154965   1.956   3.329   5.769  2.3973  0.0346 -1.1267
11158TIP3    H254966   1.884   3.195   5.766  0.2165  1.1345  1.2020
11159TIP3   OH254967   3.948   0.923  14.370 -0.4514  0.1888 -0.2392
11159TIP3    H154968   3.853   0.912  14.361 -0.3720  0.1511 -0.9908
11159TIP3    H254969   3.960   1.018  14.372 -0.4959  0.1947 -0.2389
11160TIP3   OH254970   5.324   0.749  15.564  0.0378  0.5415 -0.0081
11160TIP3    H154971   5.280   0.685  15.508  1.2410  1.1087 -1.6196
11160TIP3    H254972   5.403   0.704  15.595 -0.3304  0.4301  0.7880
11161TIP3   OH254973   3.304   0.968  17.136  0.2724 -0.2199 -0.5733
11161TIP3    H154974   3.356   0.891  17.160  0.6455 -0.2241 -1.4081
11161TIP3    H254975   3.364   1.042  17.147 -0.2295  0.0155  0.7122
11162TIP3   OH254976   4.173   1.061  11.316  0.1625 -0.2440  0.0159
11162TIP3    H154977   4.252   1.113  11.302 -0.0093  0.4026  1.3664
11162TIP3    H254978   4.157   1.018  11.232  0.1503  2.0905 -1.2032
11163TIP3   OH254979   6.337   6.142   5.773  0.1423 -0.1674 -0.7969
11163TIP3    H154980   6.378   6.118   5.690 -0.6108 -0.7023 -1.0175
11163TIP3    H254981   6.396   6.108   5.840  0.7856  0.3223 -1.1143
11164TIP3   OH254982   3.708   2.343   5.708 -0.0564 -0.4010 -0.5750
11164TIP3    H154983   3.693   2.438   5.702  3.4209  0.3084  1.0805
11164TIP3    H254984   3.780   2.326   5.647  1.3895 -1.4385  1.3801
11165TIP3   OH254985   1.950   1.353   2.062  0.0911  0.0798 -0.1480
11165TIP3    H154986   1.901   1.279   2.025  0.0660  0.1654 -0.2875
11165TIP3    H254987   2.039   1.343   2.028 -0.6202  1.8066 -2.6555
11166TIP3   OH254988   4.097   0.565   4.416 -0.4196 -0.2072 -0.3626
11166TIP3    H154989   4.004   0.542   4.421 -0.3971 -0.4103 -0.8381
11166TIP3    H254990   4.114   0.574   4.322  0.2504 -1.0441 -0.3339
11167TIP3   OH254991   6.095   3.824   6.065  0.2270 -0.0979 -0.2717
11167TIP3    H154992   6.051   3.868   6.138  0.8857  1.1847 -0.6295
11167TIP3    H254993   6.052   3.739   6.060 -1.8429  0.8983 -0.2463
11168TIP3   OH254994   6.092   6.026   3.258 -0.2543  0.1316  0.3228
11168TIP3    H154995   6.020   6.081   3.288 -0.1046  0.1207  0.7086
11168TIP3    H254996   6.102   5.959   3.327 -0.4700 -0.4095 -0.1669
11169TIP3   OH254997   2.151   3.573   0.212 -0.2739  0.1994 -0.1803
11169TIP3    H154998   2.142   3.577   0.308  1.3270 -0.9354  0.0378
11169TIP3    H254999   2.061   3.577   0.180 -0.8952 -0.3216  1.4174
11170TIP3   OH255000   2.221   4.349  15.773 -0.0699  0.2936 -0.4927
11170TIP3    H155001   2.282   4.400  15.720 -1.5806  1.3565 -1.2695
11170TIP3    H255002   2.262   4.263  15.782  2.1196  1.3533  0.0941
11171TIP3   OH255003   5.372   4.469  11.542  0.1239 -0.2560  0.6564
11171TIP3    H155004   5.392   4.452  11.450  1.9849  0.7096  0.8668
11171TIP3    H255005   5.445   4.522  11.573 -0.8478  0.0268  2.5122
11172TIP3   OH255006   6.715   5.968  16.140 -0.0748 -0.1741 -0.4558
11172TIP3    H155007   6.770   5.931  16.208  0.6839  0.5578 -0.6607
11172TIP3    H255008   6.646   5.903  16.127 -0.6518  0.0099  1.5243
11173TIP3   OH255009   5.911   2.622  10.918 -0.0737 -0.1356  0.2759
11173TIP3    H155010   5.992   2.657  10.954 -0.2156 -1.8500  2.3845
11173TIP3    H255011   5.848   2.694  10.923  0.1119 -0.1055  2.8637
11174TIP3   OH255012   2.819   5.004   5.598  0.0246  0.0478 -0.8131
11174TIP3    H155013   2.782   4.925   5.638  1.4197 -0.0518  0.3166
11174TIP3    H255014   2.743   5.059   5.580 -0.6624  0.1316  2.1199
11175TIP3   OH255015   5.460   5.497  11.567 -0.0907 -0.2127  0.5384
11175TIP3    H155016   5.416   5.581  11.584 -0.3779 -0.2380 -0.0738
11175TIP3    H255017   5.398   5.431  11.600  0.5247 -0.1615  1.8583
11176TIP3   OH255018   1.894   5.629   1.206 -0.3078  0.1866  0.1593
11176TIP3    H155019   1.845   5.679   1.141  0.3850  1.6195  0.7261
11176TIP3    H255020   1.917   5.548   1.161  0.2192  1.1801 -1.4077
11177TIP3   OH255021   3.629   1.137  13.990 -0.5548 -0.3829  0.2170
11177TIP3    H155022   3.647   1.083  13.913  0.9919 -2.0259  1.6822
11177TIP3    H255023   3.641   1.078  14.064 -2.2937  1.0933  1.7330
11178TIP3   OH255024   4.361   1.091   3.838 -0.4229 -0.3848  0.1351
11178TIP3    H155025   4.396   1.084   3.749 -2.9347 -0.6442 -0.8819
11178TIP3    H255026   4.341   1.184   3.850 -1.4760 -0.5673 -0.1458
11179TIP3   OH255027   4.726   3.223   4.810 -0.1643 -0.2691 -0.5132
11179TIP3    H155028   4.669   3.168   4.864  0.5287 -0.6809 -0.1845
11179TIP3    H255029   4.813   3.210   4.848 -0.0620  1.3974 -0.1566
11180TIP3   OH255030   6.007   1.198   4.276  0.1208  0.1406 -0.5077
11180TIP3    H155031   5.935   1.234   4.329  1.2924  1.9247 -0.0921
11180TIP3    H255032   6.021   1.263   4.207  2.5544  0.7299  0.5012
11181TIP3   OH255033   4.252   5.512  12.332  0.2755  0.4852 -0.0862
11181TIP3    H155034   4.280   5.488  12.244  0.4601  1.1079 -0.2002
11181TIP3    H255035   4.264   5.432  12.383  3.1132  0.9361  0.0570
11182TIP3   OH255036   2.439   0.846   5.179  0.2051 -0.1885 -0.3731
11182TIP3    H155037   2.460   0.939   5.189 -0.7864 -0.0047  0.1418
11182TIP3    H255038   2.516   0.808   5.138 -0.2879  1.3203 -2.8603
11183TIP3   OH255039   1.322   3.064   2.748  0.1502  0.0038 -0.3261
11183TIP3    H155040   1.333   2.969   2.751  0.3800  0.0365 -0.1210
11183TIP3    H255041   1.352   3.089   2.660  1.2170  0.0309  0.0486
11184TIP3   OH255042   4.696   3.523   4.450  0.2602 -0.1779 -0.1999
11184TIP3    H155043   4.680   3.616   4.435  1.8955  0.1271 -0.1398
11184TIP3    H255044   4.622   3.495   4.505 -0.4422  0.9805 -0.5281
11185TIP3   OH255045   2.168   1.354   0.757  0.0276 -0.0053 -0.1947
11185TIP3    H155046   2.244   1.380   0.705  1.6825 -1.4229  1.4518
11185TIP3    H255047   2.147   1.265   0.727 -1.2859  0.5399 -0.9534
11186TIP3   OH255048   2.847   5.710   0.691 -0.2832 -0.3604  0.1915
11186TIP3    H155049   2.827   5.744   0.779 -0.9402 -0.8431  0.2348
11186TIP3    H255050   2.822   5.618   0.696 -0.9388 -0.2374 -0.6993
11187TIP3   OH255051   4.579   2.939  12.597 -0.3253  0.3344  0.3049
11187TIP3    H155052   4.666   2.913  12.566 -0.4364  1.0884 -0.6888
11187TIP3    H255053   4.523   2.863  12.577  0.0137  0.0220  0.5360
11188TIP3   OH255054   1.073   5.894  11.113 -0.1652 -0.5680 -0.0708
11188TIP3    H155055   1.087   5.986  11.136 -3.4802  0.3608 -1.4374
11188TIP3    H255056   1.020   5.860  11.185  0.4852 -1.2474  0.0901
11189TIP3   OH255057   3.325   2.219   4.382  0.4358 -0.2166 -0.4822
11189TIP3    H155058   3.389   2.211   4.454 -0.0858  1.2901  0.1541
11189TIP3    H255059   3.241   2.198   4.423  0.6468 -3.7308 -1.6548
11190TIP3   OH255060   1.878   4.704  13.109  0.3184  0.1396 -0.3393
11190TIP3    H155061   1.852   4.641  13.177 -1.6741  0.5606 -0.6687
11190TIP3    H255062   1.959   4.742  13.141 -1.4702  1.5974  2.7127
11191TIP3   OH255063   5.280   1.310   2.517 -0.1182 -0.2155  0.2475
11191TIP3    H155064   5.254   1.382   2.458  1.9165 -0.7405 -1.3700
11191TIP3    H255065   5.311   1.354   2.596  3.5025  0.9354 -1.6635
11192TIP3   OH255066   3.020   2.738   2.627 -0.2129 -0.2575  0.0915
11192TIP3    H155067   2.976   2.748   2.711 -1.1950  0.4767 -0.4991
11192TIP3    H255068   3.057   2.824   2.609  2.9691 -1.2886  1.3833
11193TIP3   OH255069   0.307   1.577   2.470  0.2301 -0.1149  0.0128
11193TIP3    H155070   0.358   1.567   2.550 -0.9510  0.0631  0.7892
11193TIP3    H255071   0.317   1.493   2.424 -0.1832 -0.7033  0.9881
11194TIP3   OH255072   4.442   1.300  11.939  0.3951  0.7699  1.1755
11194TIP3    H155073   4.403   1.367  11.883  0.3041 -0.1120  0.1515
11194TIP3    H255074   4.406   1.316  12.026 -0.6170  1.2500  0.6693
11195TIP3   OH255075   5.677   1.021  14.098 -0.2825 -0.0175 -0.0433
11195TIP3    H155076   5.709   1.097  14.049 -1.2176 -0.7494 -1.8170
11195TIP3    H255077   5.756   0.978  14.130  0.3693  0.1800 -1.3550
11196TIP3   OH255078   3.810   0.045  15.758  0.6082 -0.3476  0.6010
11196TIP3    H155079   3.758  -0.036  15.756  1.4118 -0.8628 -1.6047
11196TIP3    H255080   3.880   0.026  15.820  0.2326 -0.9957  0.8394
11197TIP3   OH255081   4.584   3.866   4.946 -0.3692 -0.1220  0.2447
11197TIP3    H155082   4.528   3.796   4.913 -1.5169  1.0154 -0.2271
11197TIP3    H255083   4.571   3.864   5.041  0.6329 -1.4129  0.3727
11198TIP3   OH255084   1.103   4.706  13.315  0.3114 -0.3905 -0.3857
11198TIP3    H155085   1.035   4.658  13.268 -2.4475  2.5038  0.5064
11198TIP3    H255086   1.081   4.693  13.407  0.5744  1.1606 -0.1049
11199TIP3   OH255087   6.645   3.540  16.064  0.4625 -0.2161 -0.5127
11199TIP3    H155088   6.689   3.497  16.137 -0.4234 -1.6610 -0.8079
11199TIP3    H255089   6.586   3.603  16.105  1.3221  0.2989 -0.0566
11200TIP3   OH255090   0.903   2.466  11.740 -0.0183  0.5466 -0.0569
11200TIP3    H155091   0.885   2.423  11.823  0.1046 -0.6304 -0.6335
11200TIP3    H255092   0.997   2.455  11.727  0.0597  1.2079 -0.0922
11201TIP3   OH255093   4.312   6.693   4.993 -0.0876  0.0770  0.6328
11201TIP3    H155094   4.253   6.651   4.930  0.2335  2.4276 -1.2896
11201TIP3    H255095   4.347   6.620   5.045 -0.0652 -1.9813 -2.1655
11202TIP3   OH255096   2.465   5.629  15.794  0.2774 -0.1739  0.1238
11202TIP3    H155097   2.482   5.666  15.881  0.7350 -0.9614  0.3697
11202TIP3    H255098   2.393   5.567  15.809  1.8935 -2.0182  0.3712
11203TIP3   OH255099   1.803   6.058   5.248  0.4621  0.3757 -0.1372
11203TIP3    H155100   1.710   6.056   5.224  0.8936 -0.4428 -1.8055
11203TIP3    H255101   1.848   6.089   5.170  1.5575  1.3325  0.8412
11204TIP3   OH255102   1.492   2.408  15.539 -0.1333 -0.2940  0.4967
11204TIP3    H155103   1.437   2.360  15.477 -0.7270  0.1784  0.6530
11204TIP3    H255104   1.536   2.341  15.590  1.3446 -0.7187 -1.3002
11205TIP3   OH255105   0.381   5.729   3.663  0.1096  1.0179  0.3902
11205TIP3    H155106   0.292   5.760   3.675 -0.1425  0.6152 -0.4151
11205TIP3    H255107   0.436   5.808   3.672 -0.4285  1.4952 -0.4698
11206TIP3   OH255108   0.443   6.181  15.364  0.8228 -0.1851  0.2936
11206TIP3    H155109   0.488   6.237  15.426  0.1976  1.0997 -0.3995
11206TIP3    H255110   0.513   6.132  15.321  1.6009  1.8839 -0.8730
11207TIP3   OH255111   5.054   6.477  12.008  0.2799 -0.3636  0.1124
11207TIP3    H155112   5.006   6.551  12.043  1.7318  0.8895 -0.4969
11207TIP3    H255113   5.126   6.463  12.069  0.2650 -0.9847 -0.0081
11208TIP3   OH255114   0.890   3.585   1.430 -0.7708  0.1818  0.0294
11208TIP3    H155115   0.837   3.611   1.354  0.3031 -1.2792 -1.2501
11208TIP3    H255116   0.909   3.668   1.475 -0.0424  1.2864 -2.2129
11209TIP3   OH255117   3.306   2.444   5.398  0.6299  0.5214  0.2573
11209TIP3    H155118   3.308   2.379   5.328 -0.1859  0.4987  0.2459
11209TIP3    H255119   3.398   2.467   5.413  0.8164  0.4395 -0.7353
11210TIP3   OH255120   0.581   2.991  12.018 -0.1308 -0.0881  0.7202
11210TIP3    H155121   0.522   3.065  12.005  0.1604  0.5193  2.6666
11210TIP3    H255122   0.527   2.913  12.004 -0.9752  0.4840  0.8165
11211TIP3   OH255123   5.215   2.620   2.589 -0.0061  0.2624 -0.5631
11211TIP3    H155124   5.136   2.640   2.639  0.2137 -0.6107  0.1541
11211TIP3    H255125   5.182   2.583   2.507 -0.3555  1.1191 -0.8189
11212TIP3   OH255126   5.328   3.461  10.311 -0.3175 -0.5143  0.0163
11212TIP3    H155127   5.364   3.447  10.223 -0.3959 -0.7980  0.0274
11212TIP3    H255128   5.338   3.376  10.354  0.9109 -0.0392  0.7093
11213TIP3   OH255129   5.452   5.389   2.158  0.8610 -0.6083 -0.2463
11213TIP3    H155130   5.360   5.411   2.170  1.2272  1.1779 -0.6848
11213TIP3    H255131   5.486   5.456   2.099  2.4785 -1.1859  0.0015
11214TIP3   OH255132   2.814   2.724   0.838 -0.2005 -0.1640 -0.2894
11214TIP3    H155133   2.804   2.646   0.893  1.0608  1.0697  1.7386
11214TIP3    H255134   2.887   2.704   0.781 -0.1229 -0.6139 -0.0367
11215TIP3   OH255135   0.939   6.426   4.278  0.4736 -0.5738  0.0689
11215TIP3    H155136   1.025   6.408   4.240  0.8335  0.0612  0.5682
11215TIP3    H255137   0.878   6.376   4.224  1.0202 -0.0460 -1.0537
11216TIP3   OH255138   2.964   3.905  15.026  0.5479 -0.2314  0.1032
11216TIP3    H155139   3.015   3.914  15.107  1.3533 -0.2861 -0.3862
11216TIP3    H255140   2.898   3.974  15.031  1.1620  0.3406  0.4035
11217TIP3   OH255141   2.851   3.663  15.576 -0.0573 -0.2343 -0.0462
11217TIP3    H155142   2.833   3.722  15.649  1.5086  0.0980  0.0978
11217TIP3    H255143   2.838   3.575  15.613 -1.9882 -0.0006 -0.1473
11218TIP3   OH255144   0.257   0.692  14.866 -0.4021 -0.7461  0.3861
11218TIP3    H155145   0.272   0.742  14.946 -0.2647 -1.9586  1.1242
11218TIP3    H255146   0.254   0.601  14.894  0.1771 -1.2327 -1.0602
11219TIP3   OH255147   0.880   2.157   4.249  0.6588 -0.5203  0.1700
11219TIP3    H155148   0.788   2.133   4.260  0.7040 -0.3494  0.9197
11219TIP3    H255149   0.897   2.143   4.156  0.4099 -2.4515  0.3921
11220TIP3   OH255150   2.588   3.193   5.090  0.2050  0.3117  0.2532
11220TIP3    H155151   2.620   3.116   5.042 -0.4018 -0.0082  0.3510
11220TIP3    H255152   2.502   3.211   5.051  1.1229  2.0555 -1.0102
11221TIP3   OH255153   3.092   2.166   4.518 -0.1755  0.4458  0.6191
11221TIP3    H155154   3.150   2.118   4.578 -0.5495 -1.0290 -0.1779
11221TIP3    H255155   3.008   2.169   4.565 -0.2259  0.0740  0.5576
11222TIP3   OH255156   5.486   5.834  13.065 -0.0079  0.6114  1.4929
11222TIP3    H155157   5.466   5.855  13.156 -1.2895  1.4235  1.0447
11222TIP3    H255158   5.488   5.919  13.021 -3.5433  0.0130 -0.0196
11223TIP3   OH255159   0.811   3.738   3.105 -0.1023  0.1061 -0.1893
11223TIP3    H155160   0.816   3.818   3.157 -1.8981  0.2080 -0.1392
11223TIP3    H255161   0.719   3.731   3.079  0.6785 -0.0609 -3.1759
11224TIP3   OH255162   4.747   1.872   1.243  0.0088  0.0136  0.0891
11224TIP3    H155163   4.808   1.943   1.226  0.4740 -0.7288 -1.3347
11224TIP3    H255164   4.791   1.817   1.308  0.2843  0.1892  0.0485
11225TIP3   OH255165   2.231   0.258  13.528  0.6008  0.1635 -0.0153
11225TIP3    H155166   2.146   0.264  13.571  0.7686  3.1499  0.0179
11225TIP3    H255167   2.285   0.207  13.589 -0.5147  0.2004  1.0191
11226TIP3   OH255168   6.786   5.447   3.965  0.1653  0.0956 -0.5792
11226TIP3    H155169   6.772   5.392   3.887  2.5651  0.2069 -1.1367
11226TIP3    H255170   6.817   5.386   4.032 -2.2881 -0.0659  0.4653
11227TIP3   OH255171   3.083   5.017   2.752 -0.0046 -0.0110 -0.0790
11227TIP3    H155172   3.031   4.955   2.803 -0.6283 -0.0196 -0.7216
11227TIP3    H255173   3.167   4.973   2.739 -0.2379 -0.4717 -0.0231
11228TIP3   OH255174   1.332   0.605  15.585  0.4288  0.3354 -0.3100
11228TIP3    H155175   1.387   0.561  15.650 -0.3439 -2.4696 -1.4727
11228TIP3    H255176   1.390   0.667  15.542  1.7460  0.0010  0.9468
11229TIP3   OH255177   4.263   2.281   6.005 -0.4458  0.6535 -0.2713
11229TIP3    H155178   4.280   2.298   6.098  1.5969  0.6454 -0.6257
11229TIP3    H255179   4.312   2.201   5.985 -1.2690  0.3783 -1.2413
11230TIP3   OH255180   1.535   5.191  17.072  0.0594 -0.6392  0.5401
11230TIP3    H155181   1.617   5.175  17.119  0.7531  0.8117 -0.1617
11230TIP3    H255182   1.472   5.210  17.141  0.8926  0.6994  0.9561
11231TIP3   OH255183   4.349   4.558   3.354  0.0310 -0.0889 -0.2174
11231TIP3    H155184   4.279   4.624   3.354 -0.0534 -0.1360 -2.3449
11231TIP3    H255185   4.398   4.575   3.273  0.6388 -1.9571 -0.2655
11232TIP3   OH255186   6.770   1.293   1.295  0.0141  0.0888 -0.0851
11232TIP3    H155187   6.730   1.309   1.210  0.4278  1.1377 -0.0928
11232TIP3    H255188   6.699   1.305   1.358  0.1406  1.2038 -0.1491
11233TIP3   OH255189   3.173   6.800  13.878  0.1976  0.1264  0.2396
11233TIP3    H155190   3.126   6.722  13.906  0.7968  0.2558  1.6347
11233TIP3    H255191   3.108   6.852  13.831 -0.8946  0.0432  1.6630
11234TIP3   OH255192   4.323   6.239   0.196  0.2439  0.3540 -0.6917
11234TIP3    H155193   4.373   6.158   0.196 -0.1399  0.0817  0.9152
11234TIP3    H255194   4.388   6.307   0.213  0.4471  0.2826 -1.1984
11235TIP3   OH255195   5.080   1.200  13.148 -0.2739  0.2029 -0.0055
11235TIP3    H155196   5.053   1.161  13.065 -2.9152  0.5102  0.6893
11235TIP3    H255197   5.026   1.278  13.157 -0.7377 -0.3558  2.4750
11236TIP3   OH255198   5.979   4.632  13.803 -0.4333 -0.2550  0.0885
11236TIP3    H155199   5.975   4.727  13.792 -0.1865 -0.4591 -1.9347
11236TIP3    H255200   5.944   4.596  13.721  0.3281 -1.9043  0.4502
11237TIP3   OH255201   5.446   5.533  15.127  0.3573  0.0859  0.6554
11237TIP3    H155202   5.528   5.579  15.147  1.3973 -0.7454 -1.5385
11237TIP3    H255203   5.470   5.440  15.126  0.2214 -0.0165 -3.2551
11238TIP3   OH255204   2.825   4.688  16.465  0.1468  0.4307  0.1091
11238TIP3    H155205   2.904   4.721  16.507  1.0830 -1.3205 -0.2280
11238TIP3    H255206   2.777   4.644  16.536  1.1556 -1.4952 -0.3782
11239TIP3   OH255207   0.747   5.071  16.114 -0.1247  0.6064  0.4101
11239TIP3    H155208   0.699   5.041  16.191  0.0172  1.1133  0.6934
11239TIP3    H255209   0.796   5.147  16.144  1.2776 -0.2161  0.2600
11240TIP3   OH255210   2.151   4.728   1.967  0.2482 -0.2928 -0.0874
11240TIP3    H155211   2.100   4.746   1.889  0.6533  1.6710  0.0822
11240TIP3    H255212   2.240   4.711   1.935  0.2090 -0.4218 -0.1262
11241TIP3   OH255213   1.815   2.415  15.125 -0.0981 -0.2826  0.6306
11241TIP3    H155214   1.734   2.387  15.168  0.1265 -1.9313 -0.0078
11241TIP3    H255215   1.874   2.436  15.198 -0.8425  0.2221  1.0984
11242TIP3   OH255216   0.854   0.646  13.444 -0.5014 -0.3769  0.4659
11242TIP3    H155217   0.765   0.613  13.451 -0.9858  0.9209  0.5763
11242TIP3    H255218   0.848   0.738  13.472  0.5221  0.2452 -1.2830
11243TIP3   OH255219   5.567   4.744  10.699  0.2922 -0.2129  0.4460
11243TIP3    H155220   5.613   4.687  10.637  1.6431 -0.6891  1.8641
11243TIP3    H255221   5.500   4.687  10.738  0.2903 -0.2593  0.3749
11244TIP3   OH255222   6.104   5.651   1.065  0.1775  0.3697 -0.8163
11244TIP3    H155223   6.199   5.651   1.077  0.0867  1.8988  0.0369
11244TIP3    H255224   6.087   5.727   1.010 -0.5790  0.2357 -0.7720
11245TIP3   OH255225   1.569   3.820   2.669 -0.0776  0.5590 -0.2050
11245TIP3    H155226   1.630   3.849   2.737  0.0046  1.1116 -0.5035
11245TIP3    H255227   1.499   3.885   2.671  0.6727  1.4627 -1.6496
11246TIP3   OH255228   0.433   6.572   0.717  0.3819  0.0941 -0.5930
11246TIP3    H155229   0.378   6.543   0.790  1.3061 -0.6527 -0.1936
11246TIP3    H255230   0.392   6.534   0.639 -1.3641  1.9591 -0.6335
11247TIP3   OH255231   6.529   1.725   3.566  0.2889 -0.4486 -0.0632
11247TIP3    H155232   6.546   1.631   3.564 -2.5081 -1.0318  0.6940
11247TIP3    H255233   6.499   1.746   3.477  0.8706 -0.2866 -0.2204
11248TIP3   OH255234   3.282   0.254   4.409  0.5701  0.5513  0.6133
11248TIP3    H155235   3.220   0.204   4.463 -0.8829  0.9222 -0.6698
11248TIP3    H255236   3.262   0.346   4.429  0.8372  0.6718  0.3263
11249TIP3   OH255237   6.621   5.409  15.059 -0.2537  0.0129  0.4294
11249TIP3    H155238   6.574   5.466  15.120  0.1212  1.4913 -0.6325
11249TIP3    H255239   6.712   5.413  15.088 -0.0871  0.6605 -0.1748
11250TIP3   OH255240   2.634   5.640  15.572 -0.2867  0.0361 -0.3665
11250TIP3    H155241   2.567   5.636  15.641 -1.7766 -0.6458 -1.8430
11250TIP3    H255242   2.640   5.733  15.551 -0.2962  0.1748  0.2311
11251TIP3   OH255243   5.158   2.736  14.501 -0.4074  0.5215  0.8970
11251TIP3    H155244   5.197   2.675  14.564  0.4899  1.2510  1.0620
11251TIP3    H255245   5.228   2.799  14.484 -1.6141  2.0118  1.4003
11252TIP3   OH255246   3.549   4.148   6.076  0.3376  0.1766  0.0587
11252TIP3    H155247   3.643   4.138   6.087  0.2991 -0.4383 -0.1473
11252TIP3    H255248   3.517   4.175   6.162  0.7662  0.8853 -0.0013
11253TIP3   OH255249   4.059   3.737   1.521  0.0972  0.5226  0.2040
11253TIP3    H155250   4.126   3.732   1.454  0.1180  1.4406  0.1491
11253TIP3    H255251   4.012   3.654   1.514  1.2906 -0.1790  0.3240
11254TIP3   OH255252   2.863   2.057  15.544 -0.3284  0.2635  0.1485
11254TIP3    H155253   2.890   2.038  15.455 -2.0603  0.7481 -0.5016
11254TIP3    H255254   2.917   2.000  15.599  2.0465  1.3123 -1.0676
11255TIP3   OH255255   5.758   1.767   0.095  0.1256 -0.4243 -0.1508
11255TIP3    H155256   5.822   1.792   0.162  0.0463 -1.9736  0.5136
11255TIP3    H255257   5.751   1.672   0.102 -2.6117 -0.2492  0.0835
11256TIP3   OH255258   2.027   5.690   4.994  0.5895 -0.1231 -0.4654
11256TIP3    H155259   1.939   5.688   5.030  0.4739  1.0237 -0.6687
11256TIP3    H255260   2.075   5.623   5.043  0.2975  1.0439  1.4636
11257TIP3   OH255261   3.692   2.538   3.014  0.3983  0.0790 -0.4449
11257TIP3    H155262   3.750   2.476   2.969 -1.0908 -2.1079  0.5802
11257TIP3    H255263   3.605   2.502   3.002 -0.4701  1.8505  0.4323
11258TIP3   OH255264   6.528   5.671   1.326  0.3542  0.1843 -0.9410
11258TIP3    H155265   6.448   5.683   1.377  1.0286 -0.0987  0.2159
11258TIP3    H255266   6.514   5.589   1.279 -0.6465  0.9142 -1.9299
11259TIP3   OH255267   4.451   2.259  15.811  0.2877  0.1925 -0.0357
11259TIP3    H155268   4.514   2.326  15.784  1.4445 -0.3680  1.2486
11259TIP3    H255269   4.481   2.179  15.769  0.0411  0.0703  0.0206
11260TIP3   OH255270   2.037   5.732   4.715  0.3151 -0.6835  0.2993
11260TIP3    H155271   2.051   5.754   4.807  1.2195  0.4559 -0.1099
11260TIP3    H255272   2.097   5.659   4.698  1.6210  0.4284  0.0816
11261TIP3   OH255273   5.150   5.920  12.826  0.4104 -0.3598  0.2940
11261TIP3    H155274   5.099   6.001  12.820  1.8977  0.6055  0.5484
11261TIP3    H255275   5.100   5.857  12.774  0.3215  1.2721 -1.6680
11262TIP3   OH255276   5.849   3.276   2.177 -0.3425  0.2838  0.0191
11262TIP3    H155277   5.828   3.186   2.154 -0.3490 -0.1750  1.8026
11262TIP3    H255278   5.788   3.328   2.124 -0.7714 -0.7608 -0.5377
11263TIP3   OH255279   3.351   2.217  14.468  0.0319  0.4628 -0.4790
11263TIP3    H155280   3.405   2.143  14.438  2.7497  3.5295 -3.6403
11263TIP3    H255281   3.413   2.278  14.507 -1.8506  2.0428  0.1192
11264TIP3   OH255282   2.170   5.615  14.055  0.0578 -0.3047  0.2399
11264TIP3    H155283   2.108   5.688  14.054  1.2551  0.7317 -2.8518
11264TIP3    H255284   2.119   5.541  14.091 -2.1303  1.1951  0.3305
11265TIP3   OH255285   6.738   3.994   2.600 -0.1952 -0.1550  0.3865
11265TIP3    H155286   6.813   4.054   2.594 -1.3045  1.3670  1.3626
11265TIP3    H255287   6.772   3.918   2.648  0.9054  0.2053  0.2036
11266TIP3   OH255288   0.591   2.609  15.735  0.0836 -0.2660 -0.6244
11266TIP3    H155289   0.625   2.667  15.804 -2.1240 -0.0677  0.3225
11266TIP3    H255290   0.635   2.525  15.751  1.1714  0.3619 -0.2721
11267TIP3   OH255291   3.076   2.357  17.114  0.3340  0.3592  0.2047
11267TIP3    H155292   3.120   2.306  17.182  0.9944  0.3601 -0.2085
11267TIP3    H255293   3.133   2.348  17.037 -0.2569  0.5852 -0.2662
11268TIP3   OH255294   6.232   2.445  11.144  0.3622  0.0069 -0.0912
11268TIP3    H155295   6.237   2.359  11.103  1.0612 -0.8511  1.7460
11268TIP3    H255296   6.287   2.501  11.089  1.2127 -1.1101 -0.3909
11269TIP3   OH255297   6.391   4.726   1.370  0.2053 -0.7038  0.4237
11269TIP3    H155298   6.480   4.710   1.336  0.6669  2.0600  0.1983
11269TIP3    H255299   6.403   4.737   1.464  0.4553  1.7751  0.1330
11270TIP3   OH255300   2.682   4.406   0.556  0.1713  0.3038  0.4135
11270TIP3    H155301   2.656   4.447   0.638 -1.1563  1.9504 -0.7982
11270TIP3    H255302   2.661   4.313   0.568  1.2325  0.2929  2.4028
11271TIP3   OH255303   3.885   6.358   5.605 -0.0403 -0.0915  0.5705
11271TIP3    H155304   3.965   6.393   5.567 -1.1139  1.4608 -0.2744
11271TIP3    H255305   3.828   6.340   5.531 -0.4020 -1.4111  1.1517
11272TIP3   OH255306   4.308   1.743  11.982  0.2419  0.0259  0.0808
11272TIP3    H155307   4.306   1.827  11.936  2.4956 -0.2213 -0.5389
11272TIP3    H255308   4.323   1.767  12.074  3.0615  0.2970 -0.3812
11273TIP3   OH255309   3.381   0.889   4.121  1.2939  0.0451 -0.4879
11273TIP3    H155310   3.352   0.810   4.076  0.0143  0.3190 -0.1746
11273TIP3    H255311   3.419   0.943   4.052 -0.9590  0.6038 -1.3589
11274TIP3   OH255312   4.239   3.730   5.473 -0.3005 -0.4303 -0.2386
11274TIP3    H155313   4.278   3.720   5.560 -0.1940 -1.8579 -0.4439
11274TIP3    H255314   4.146   3.744   5.490  0.0065  1.1909  0.1770
11275TIP3   OH255315   3.493   4.269   1.099 -0.0060 -0.0018 -0.1491
11275TIP3    H155316   3.460   4.208   1.033  0.9283 -0.8913  0.1983
11275TIP3    H255317   3.414   4.306   1.139 -0.5721 -0.1121 -1.1548
11276TIP3   OH255318   0.566   5.218   3.558 -0.3743 -0.5115 -0.0622
11276TIP3    H155319   0.653   5.242   3.588 -0.6232 -0.2971  0.4981
11276TIP3    H255320   0.571   5.123   3.544  0.0977 -0.4164 -0.5529
11277TIP3   OH255321   6.519   0.394  12.201  0.1124  0.5729  0.3052
11277TIP3    H155322   6.543   0.357  12.116  1.1066 -0.7152  1.1278
11277TIP3    H255323   6.424   0.402  12.198 -0.0147 -1.0778 -0.2933
11278TIP3   OH255324   5.218   2.730   5.399  0.2292  0.2327  0.3766
11278TIP3    H155325   5.153   2.660   5.401 -0.3067  0.7271  0.2651
11278TIP3    H255326   5.274   2.709   5.324 -0.0952  0.0697  0.1825
11279TIP3   OH255327   6.307   1.172  14.568 -0.2249 -0.3719  0.2140
11279TIP3    H155328   6.262   1.190  14.650  0.3690 -0.3605  0.5419
11279TIP3    H255329   6.242   1.128  14.514 -0.9722  0.6683  0.2611
11280TIP3   OH255330   3.309   0.336   6.340  0.1288 -1.0204  0.2734
11280TIP3    H155331   3.329   0.362   6.251 -0.2383 -0.8055  0.2545
11280TIP3    H255332   3.389   0.293   6.371  1.2422  1.3709  0.7969
11281TIP3   OH255333   2.524   5.403  14.570 -0.4066  0.1674 -0.6591
11281TIP3    H155334   2.463   5.462  14.614 -1.3355 -1.4246  0.2597
11281TIP3    H255335   2.547   5.447  14.488 -2.0260  1.2243 -0.5547
11282TIP3   OH255336   6.689   5.249  12.386 -0.2593 -0.4070  0.6823
11282TIP3    H155337   6.666   5.342  12.392 -0.2572 -0.3305 -0.3160
11282TIP3    H255338   6.784   5.248  12.382 -0.2665 -0.4336  0.5028
11283TIP3   OH255339   2.057   0.546  13.308  0.2880 -0.0503  0.2590
11283TIP3    H155340   1.975   0.504  13.284 -0.4035  1.0612  0.6283
11283TIP3    H255341   2.125   0.484  13.281 -0.6312 -0.6039 -0.8112
11284TIP3   OH255342   3.262   0.679   3.975  0.4255  0.5164 -0.2369
11284TIP3    H155343   3.324   0.606   3.986 -0.4324 -0.4083 -1.4497
11284TIP3    H255344   3.208   0.653   3.901 -0.3609  2.0761 -0.2141
11285TIP3   OH255345   1.161   2.952  15.694 -0.4442  0.6099 -0.3735
11285TIP3    H155346   1.165   2.896  15.772 -1.7545  0.5607 -0.3325
11285TIP3    H255347   1.249   2.988  15.687  0.5595 -1.7845 -0.6547
11286TIP3   OH255348   6.115   5.904   4.346  0.0987 -0.4653  0.0428
11286TIP3    H155349   6.130   5.811   4.361 -0.3395 -0.3669  1.1423
11286TIP3    H255350   6.194   5.947   4.378  0.1100 -0.4178 -0.0461
11287TIP3   OH255351   0.446   3.406  15.768 -0.7107 -0.0805  0.0987
11287TIP3    H155352   0.423   3.485  15.719 -1.3409 -0.7433 -0.7043
11287TIP3    H255353   0.529   3.426  15.811 -1.4083  1.3912  0.7699
11288TIP3   OH255354   5.282   5.044   2.351 -0.3270 -0.1165 -0.5972
11288TIP3    H155355   5.229   5.117   2.319 -0.6200 -1.1631 -2.6226
11288TIP3    H255356   5.372   5.076   2.349 -0.5646  0.5540 -0.4426
11289TIP3   OH255357   4.205   3.323   5.887  0.2812  0.1363 -0.4069
11289TIP3    H155358   4.122   3.275   5.893 -0.0292  0.5281 -1.3839
11289TIP3    H255359   4.222   3.354   5.976 -0.5603 -0.0616 -0.1732
11290TIP3   OH255360   2.683   3.515   4.309  0.0413  0.2362 -0.2016
11290TIP3    H155361   2.605   3.563   4.338 -0.3877 -0.5580 -0.0356
11290TIP3    H255362   2.743   3.521   4.383 -0.5049 -0.5684  0.3164
11291TIP3   OH255363   2.706   2.321  13.988 -0.2613 -0.2240  0.3721
11291TIP3    H155364   2.615   2.337  13.963  0.0160  0.7095 -0.0538
11291TIP3    H255365   2.704   2.317  14.084 -0.7247 -0.0209  0.3728
11292TIP3   OH255366   4.761   6.136   1.694  0.4871  0.1862 -0.3092
11292TIP3    H155367   4.672   6.165   1.716 -1.0462 -3.4810 -1.2754
11292TIP3    H255368   4.789   6.084   1.769  1.6716  0.9272 -0.2191
11293TIP3   OH255369   3.058   5.526   1.147 -0.2643 -0.2484 -0.3308
11293TIP3    H155370   3.114   5.534   1.225  0.4939  1.2227 -0.9946
11293TIP3    H255371   2.971   5.549   1.178  0.1979  1.2597 -0.0887
11294TIP3   OH255372   1.415   4.116   3.084  0.0664  0.3717 -0.1487
11294TIP3    H155373   1.358   4.040   3.067  0.5975  0.0533 -0.5237
11294TIP3    H255374   1.501   4.078   3.100  0.1890  0.8571  0.3640
11295TIP3   OH255375   5.283   6.105   2.566 -0.6026 -0.0222 -0.1919
11295TIP3    H155376   5.274   6.180   2.625 -1.8753 -0.1722 -0.1683
11295TIP3    H255377   5.323   6.036   2.619  2.2509  1.1847 -0.7005
11296TIP3   OH255378   0.035   5.255   1.672 -0.1337 -0.1019  0.5076
11296TIP3    H155379   0.097   5.181   1.668  0.6126  0.5505 -0.1636
11296TIP3    H255380   0.055   5.307   1.594 -0.6500  0.8221  0.9852
11297TIP3   OH255381   3.384   3.731   0.115 -0.0453  0.0356  0.6099
11297TIP3    H155382   3.432   3.683   0.048  1.1555  1.0865  0.7003
11297TIP3    H255383   3.323   3.787   0.066 -1.0914 -1.1706  0.4929
11298TIP3   OH255384   5.162   0.602   0.268 -0.3824 -0.4737 -0.0399
11298TIP3    H155385   5.239   0.613   0.324  0.7451  1.3800 -1.8812
11298TIP3    H255386   5.192   0.546   0.197 -0.8237 -0.0188 -0.5883
11299TIP3   OH255387   6.590   4.339   5.449  0.4879  0.5126  0.3518
11299TIP3    H155388   6.527   4.305   5.386 -0.5333 -1.1164  2.1675
11299TIP3    H255389   6.625   4.418   5.409  0.1037 -0.6527 -2.3684
11300TIP3   OH255390   3.892   0.271   2.608  0.0309  0.3984 -0.1776
11300TIP3    H155391   3.972   0.259   2.558 -0.7958 -0.2136 -1.3970
11300TIP3    H255392   3.890   0.197   2.669  0.8931  0.9764  0.5490
11301TIP3   OH255393   6.479   2.625   4.258 -0.2368  0.0053 -0.5525
11301TIP3    H155394   6.512   2.570   4.330 -0.3177  0.3652 -0.2371
11301TIP3    H255395   6.451   2.705   4.301  1.7483  1.1118 -1.2354
11302TIP3   OH255396   4.880   0.428   5.654  0.1460 -0.1439 -0.0027
11302TIP3    H155397   4.938   0.458   5.584 -0.0698 -1.2728 -0.6912
11302TIP3    H255398   4.853   0.340   5.626 -1.3751  0.1158  0.6377
11303TIP3   OH255399   3.649   4.709  11.107 -0.0199 -0.1791  0.1766
11303TIP3    H155400   3.729   4.666  11.138  1.1695  1.1894 -0.9785
11303TIP3    H255401   3.667   4.803  11.114 -1.2211  0.1456 -0.8583
11304TIP3   OH255402   1.053   3.057  13.204 -0.0717  0.3596 -0.3234
11304TIP3    H155403   1.117   3.004  13.252 -1.3312 -0.8662  0.0534
11304TIP3    H255404   1.034   3.131  13.262  0.3009  0.2245 -0.0268
11305TIP3   OH255405   0.418   3.341   3.006  0.2711  0.7068  0.6246
11305TIP3    H155406   0.456   3.422   3.041  0.1717  0.8253  0.4608
11305TIP3    H255407   0.440   3.274   3.070 -0.1721  0.9836  1.0667
11306TIP3   OH255408   2.922   0.429   0.841 -0.5367 -0.7159 -0.0146
11306TIP3    H155409   2.878   0.414   0.758 -1.2170  1.5382 -0.1065
11306TIP3    H255410   2.853   0.423   0.907 -0.4324 -0.2598  0.1428
11307TIP3   OH255411   3.247   0.192   5.615 -0.6311 -0.0270  0.0849
11307TIP3    H155412   3.210   0.272   5.653 -0.6335  0.2107 -0.4082
11307TIP3    H255413   3.180   0.162   5.554  0.0129  0.4402 -0.8631
11308TIP3   OH255414   4.781   2.015   3.757  0.3031  0.0794  0.1297
11308TIP3    H155415   4.843   1.963   3.705 -0.0322  1.9343 -2.2433
11308TIP3    H255416   4.696   1.977   3.739  0.2488  0.3991 -0.3125
11309TIP3   OH255417   3.955   4.409   2.734  0.5639  0.2178 -0.1817
11309TIP3    H155418   3.992   4.326   2.703 -0.9335 -0.0463 -1.3349
11309TIP3    H255419   3.903   4.441   2.660 -0.1240  1.4091  0.7973
11310TIP3   OH255420   6.621   3.222  13.888  0.0633 -0.1395  0.3536
11310TIP3    H155421   6.644   3.223  13.795  0.1573 -1.2609  0.3661
11310TIP3    H255422   6.526   3.212  13.890  0.1892 -1.3344  0.3973
11311TIP3   OH255423   1.493   0.005   0.152 -0.2388  0.5303  0.1811
11311TIP3    H155424   1.499  -0.062   0.220  0.4063  1.1401  0.7385
11311TIP3    H255425   1.573   0.056   0.163  0.1389  0.2867 -1.4098
11312TIP3   OH255426   6.574   4.320  17.216  0.4315 -0.7028  0.0155
11312TIP3    H155427   6.544   4.410  17.230  0.6235 -0.6103 -0.1526
11312TIP3    H255428   6.515   4.266  17.269 -0.2165 -0.5477 -0.5349
11313TIP3   OH255429   0.799   2.956   3.372 -0.0866  0.0246 -0.6512
11313TIP3    H155430   0.875   2.934   3.426  0.4232 -0.2979 -1.4787
11313TIP3    H255431   0.837   3.000   3.296 -0.5528 -1.7733 -1.9629
11314TIP3   OH255432   0.510   1.271   5.369  0.1286 -0.6785  0.1813
11314TIP3    H155433   0.486   1.236   5.455 -0.0159  1.8794  1.2226
11314TIP3    H255434   0.604   1.292   5.377  0.1279 -0.4806 -0.2951
11315TIP3   OH255435   0.645   2.217  13.762  0.3913 -0.1200 -0.5635
11315TIP3    H155436   0.686   2.148  13.815 -0.1387  1.3903  1.8884
11315TIP3    H255437   0.711   2.286  13.758 -0.8321  1.1880  1.0830
11316TIP3   OH255438   0.297   3.056   0.954 -0.0678  0.2896 -0.3182
11316TIP3    H155439   0.238   3.020   0.888 -1.1228  1.6256 -0.1289
11316TIP3    H255440   0.380   3.067   0.908 -0.2954 -0.4481 -0.9276
11317TIP3   OH255441   4.476   1.662  13.138 -0.3021  0.1089  0.5543
11317TIP3    H155442   4.538   1.672  13.210  0.6670  1.2826 -0.4315
11317TIP3    H255443   4.390   1.676  13.179  0.0358 -1.7911  1.9677
11318TIP3   OH255444   5.269   1.883   3.005  0.0158  0.1426  0.2352
11318TIP3    H155445   5.361   1.861   3.022 -0.5213 -1.3816  1.2107
11318TIP3    H255446   5.226   1.799   2.992 -1.4527  0.7971  0.7617
11319TIP3   OH255447   4.546   2.811   2.903 -0.1734 -0.4890 -0.0548
11319TIP3    H155448   4.575   2.727   2.939  0.7803 -0.1797 -0.1118
11319TIP3    H255449   4.511   2.859   2.978 -0.6235 -0.8936 -0.0039
11320TIP3   OH255450   4.157   1.703  14.497 -0.4534  0.2970  0.0864
11320TIP3    H155451   4.145   1.784  14.448 -0.5701 -0.5771 -1.3427
11320TIP3    H255452   4.099   1.712  14.573 -1.5718  0.9326 -0.8324
11321TIP3   OH255453   6.356   0.788  12.095 -0.2912  0.0012 -0.1783
11321TIP3    H155454   6.437   0.761  12.139 -1.5065  0.0876  2.1630
11321TIP3    H255455   6.351   0.882  12.110  0.2276  0.3876 -2.1676
11322TIP3   OH255456   4.730   3.285  14.402  0.1919  0.2759  0.1122
11322TIP3    H155457   4.762   3.373  14.382 -0.1576  0.2552 -0.5231
11322TIP3    H255458   4.774   3.263  14.485  1.2447  0.5463 -0.3594
11323TIP3   OH255459   1.738   2.522  13.952  0.0101 -0.4038 -0.0085
11323TIP3    H155460   1.664   2.479  13.909  0.9840 -1.3647 -0.7482
11323TIP3    H255461   1.750   2.604  13.905 -1.0806  0.1284  0.6243
11324TIP3   OH255462   0.602   6.688  15.941  0.3366 -0.6588 -0.6896
11324TIP3    H155463   0.525   6.718  15.893  0.3281  2.2511  1.0504
11324TIP3    H255464   0.675   6.730  15.897  0.7407 -1.5550 -0.8868
11325TIP3   OH255465   5.221   2.298   4.404  0.6382  0.2099  0.1061
11325TIP3    H155466   5.286   2.300   4.334 -0.4659 -2.2024 -1.0338
11325TIP3    H255467   5.208   2.390   4.427  3.0776  0.8429 -0.9023
11326TIP3   OH255468   1.977   6.621  14.835  0.3827 -0.1328 -0.1276
11326TIP3    H155469   1.896   6.587  14.873  0.9249 -2.2782 -0.8214
11326TIP3    H255470   2.046   6.593  14.895  0.7535  0.5182 -0.2478
11327TIP3   OH255471   2.135   1.175  12.074  0.2787  0.2300 -0.2907
11327TIP3    H155472   2.109   1.242  12.137  1.3837 -0.4664  0.9200
11327TIP3    H255473   2.080   1.100  12.095 -1.6518  1.0226 -2.2710
11328TIP3   OH255474   1.913   4.692   2.488  0.4305  0.3164 -0.7109
11328TIP3    H155475   1.873   4.628   2.546  1.2846  1.4135  1.1091
11328TIP3    H255476   1.847   4.708   2.421 -1.3145  0.4358  1.0089
11329TIP3   OH255477   3.561   1.154   2.111  1.1185  0.2096  0.3894
11329TIP3    H155478   3.608   1.222   2.159  1.4685 -0.8709  1.6220
11329TIP3    H255479   3.561   1.079   2.171 -2.7310  0.3744  0.7527
11330TIP3   OH255480   6.512   4.384   4.975 -0.2823 -0.0116  0.0376
11330TIP3    H155481   6.425   4.346   4.990  0.2659 -1.1179  0.4975
11330TIP3    H255482   6.571   4.309   4.977  0.4654  0.4794 -2.2781
11331TIP3   OH255483   6.074   3.666   6.614 -0.3535 -0.2806  0.3707
11331TIP3    H155484   6.119   3.585   6.637 -1.0444 -0.0274  2.8377
11331TIP3    H255485   6.143   3.724   6.582  0.0895 -1.9435 -1.7312
11332TIP3   OH255486   0.470   3.298   4.921  0.0908 -0.2159  0.1042
11332TIP3    H155487   0.550   3.256   4.891 -0.1198 -0.4603 -0.1161
11332TIP3    H255488   0.481   3.306   5.015 -0.8357 -2.8597  0.4819
11333TIP3   OH255489   0.388   3.186   4.515 -0.0421 -0.0582 -0.1569
11333TIP3    H155490   0.348   3.146   4.438 -1.2561 -0.3885  0.6288
11333TIP3    H255491   0.373   3.280   4.504 -0.6144 -0.1417 -0.1005
11334TIP3   OH255492   2.856   6.662  17.146 -0.2688 -0.0392  0.2006
11334TIP3    H155493   2.903   6.649  17.228 -0.1587 -1.0747 -0.0180
11334TIP3    H255494   2.884   6.748  17.115 -0.7946  0.6349  1.5558
11335TIP3   OH255495   3.511   4.275   5.563  0.3461  0.2362 -0.3562
11335TIP3    H155496   3.421   4.281   5.595  1.0367  0.9060  1.5646
11335TIP3    H255497   3.541   4.189   5.593  0.6345  0.3978 -0.1789
11336TIP3   OH255498   3.451   3.911   3.568 -0.4246  0.1966 -0.2071
11336TIP3    H155499   3.504   3.837   3.539 -1.9031 -1.1323  0.4635
11336TIP3    H255500   3.468   3.917   3.662  0.9064  1.7232 -0.5087
11337TIP3   OH255501   3.511   6.283   1.277 -0.3961  0.4311 -0.3487
11337TIP3    H155502   3.507   6.192   1.307 -1.2430  0.8003  0.6771
11337TIP3    H255503   3.420   6.310   1.270 -0.1453  1.7950  1.2303
11338TIP3   OH255504   4.032   0.626   1.252 -0.0443 -0.0640  0.4021
11338TIP3    H155505   4.097   0.676   1.204  2.9394 -1.5865  2.6427
11338TIP3    H255506   4.009   0.553   1.194 -0.7129  1.1529 -0.8844
11339TIP3   OH255507   2.884   2.999   2.105 -0.0890  0.3554  0.3805
11339TIP3    H155508   2.978   2.990   2.093 -0.0908  0.2796  0.4182
11339TIP3    H255509   2.867   3.093   2.102 -0.1644  0.3094 -0.8067
11340TIP3   OH255510   0.511   4.456   6.117 -0.6207  0.3971 -0.3117
11340TIP3    H155511   0.528   4.512   6.041 -0.7823  2.0377  0.8216
11340TIP3    H255512   0.452   4.508   6.172  0.3432 -0.3167  1.4282
11341TIP3   OH255513   5.435   6.541  16.812 -0.4418  0.3818 -0.4540
11341TIP3    H155514   5.383   6.621  16.810  0.8079  1.2754  1.6125
11341TIP3    H255515   5.426   6.509  16.902  1.8760  0.0934 -0.3115
11342TIP3   OH255516   2.325   3.796  14.866 -0.2812 -0.4128  0.2982
11342TIP3    H155517   2.311   3.711  14.825 -2.2323 -0.4843  1.0532
11342TIP3    H255518   2.412   3.790  14.905  0.4035 -1.3533 -1.3463
11343TIP3   OH255519   0.327   6.025  16.977  0.5672  0.1397 -0.1183
11343TIP3    H155520   0.298   5.976  16.900 -0.9909 -1.7054  1.6017
11343TIP3    H255521   0.312   6.117  16.954 -1.4344 -0.4748 -1.4027
11344TIP3   OH255522   4.124   0.042   1.707 -0.5417  0.1753  0.3066
11344TIP3    H155523   4.213   0.020   1.735 -0.0121  0.0392 -1.4227
11344TIP3    H255524   4.116   0.136   1.721 -0.3722  0.0708  1.1186
11345TIP3   OH255525   1.994   4.065   1.183 -0.0539 -0.0197 -0.1160
11345TIP3    H155526   1.947   4.082   1.101  0.5203  2.7224  0.0882
11345TIP3    H255527   1.967   4.136   1.241  0.4469 -1.2986  1.7115
11346TIP3   OH255528   0.329   4.561  14.855 -0.5289  0.2049  0.3781
11346TIP3    H155529   0.325   4.609  14.773 -0.5699  0.7300  0.6852
11346TIP3    H255530   0.423   4.547  14.870 -0.4587  1.1614  0.8484
11347TIP3   OH255531   2.120   0.809   0.236  0.1126  0.6085  0.0200
11347TIP3    H155532   2.096   0.894   0.200  1.4958  0.4932 -1.2419
11347TIP3    H255533   2.083   0.745   0.174  1.4883  0.3825 -0.6044
11348TIP3   OH255534   6.571   3.109  12.905  0.9948  0.7488  0.4908
11348TIP3    H155535   6.604   3.020  12.898  0.0440  0.0279  4.0127
11348TIP3    H255536   6.476   3.099  12.912  0.8378  2.0694  0.3187
11349TIP3   OH255537   2.669   5.325  17.276  0.3078 -0.1212  0.4738
11349TIP3    H155538   2.686   5.240  17.235  0.0022 -1.6057  3.3176
11349TIP3    H255539   2.581   5.348  17.246  0.8675 -0.1783 -1.2996
11350TIP3   OH255540   5.565   4.130   1.149 -0.2894  0.3653  0.6295
11350TIP3    H155541   5.563   4.099   1.059 -2.1443 -0.4909  0.9237
11350TIP3    H255542   5.644   4.182   1.156  0.0829  0.0812 -1.3757
11351TIP3   OH255543   0.995   3.649  15.431 -0.7331 -0.3788  0.1310
11351TIP3    H155544   1.084   3.672  15.402 -1.2997  0.8059 -0.6816
11351TIP3    H255545   1.008   3.575  15.490  0.8427  0.0827  0.3858
11352TIP3   OH255546   3.753   3.398   0.898  0.0397  0.5274  0.0554
11352TIP3    H155547   3.784   3.333   0.834  0.4033 -0.6953  1.4567
11352TIP3    H255548   3.794   3.480   0.870  1.0787 -0.2146 -0.6520
11353TIP3   OH255549   2.293   1.271  11.039 -0.2350 -0.1522  0.5704
11353TIP3    H155550   2.281   1.179  11.017  1.0603 -0.2691  0.3216
11353TIP3    H255551   2.330   1.310  10.960 -0.4415  0.5053  0.7933
11354TIP3   OH255552   6.239   5.286  16.598 -0.0749  0.1582  0.7154
11354TIP3    H155553   6.301   5.343  16.644 -0.6617  0.5885  0.9783
11354TIP3    H255554   6.190   5.242  16.668 -1.3492  1.2315  0.5031
11355TIP3   OH255555   0.739   4.270  11.909  0.4285  0.7235 -0.1310
11355TIP3    H155556   0.652   4.241  11.883  1.2889 -1.3322 -0.8497
11355TIP3    H255557   0.732   4.365  11.917 -2.2533  0.4406  1.3354
11356TIP3   OH255558   0.877   6.597   0.355 -0.1081  0.6972  0.0167
11356TIP3    H155559   0.891   6.627   0.445  0.8795 -0.4513  0.2713
11356TIP3    H255560   0.846   6.674   0.308 -0.6702  1.2989  1.3558
11357TIP3   OH255561   6.157   0.201   5.873  0.2594 -0.5750  0.8732
11357TIP3    H155562   6.144   0.235   5.962  0.2143  1.8963 -0.0437
11357TIP3    H255563   6.251   0.204   5.859  0.1021  1.0332  0.0939
11358TIP3   OH255564   5.318   5.781   4.373  0.7808  0.5244  0.3843
11358TIP3    H155565   5.224   5.779   4.358  1.0358 -1.3726 -1.2010
11358TIP3    H255566   5.332   5.728   4.452  0.6155 -0.1119 -0.0105
11359TIP3   OH255567   1.650   3.977   3.133 -0.2609  0.2092 -0.4513
11359TIP3    H155568   1.738   4.015   3.129  0.1055 -0.4390  1.1295
11359TIP3    H255569   1.641   3.946   3.224 -1.9493 -0.1264 -0.7164
11360TIP3   OH255570   3.676   1.771   0.903  0.6129  0.2606 -0.1150
11360TIP3    H155571   3.588   1.776   0.864  0.1684  0.3614  0.8954
11360TIP3    H255572   3.735   1.784   0.829 -0.2249  0.3915 -0.7748
11361TIP3   OH255573   3.920   2.293   5.018 -0.1447 -0.1853  0.3721
11361TIP3    H155574   3.849   2.357   5.028 -1.6104 -1.5253 -1.2472
11361TIP3    H255575   3.959   2.313   4.933  0.6967 -0.1892  0.7489
11362TIP3   OH255576   1.211   1.083   4.613 -0.4862 -0.3241 -0.3303
11362TIP3    H155577   1.202   1.175   4.588 -2.6261 -1.0962 -2.5758
11362TIP3    H255578   1.124   1.057   4.641  0.3713 -1.3745  1.4048
11363TIP3   OH255579   5.292   4.039  17.052  0.0228  0.1476 -0.1020
11363TIP3    H155580   5.221   4.003  17.000 -1.8230  1.1972  1.6119
11363TIP3    H255581   5.337   3.963  17.089 -2.1417 -0.4964  1.2925
11364TIP3   OH255582   0.127   6.492   1.800 -0.0853 -0.1762  0.4375
11364TIP3    H155583   0.059   6.424   1.799 -1.1955  0.9294 -0.5117
11364TIP3    H255584   0.084   6.570   1.766  1.4216  0.7950  0.6922
11365TIP3   OH255585   4.132   6.074   0.307 -0.9762  0.3232  0.0033
11365TIP3    H155586   4.169   6.126   0.236  0.6954 -0.9389 -0.0719
11365TIP3    H255587   4.173   6.109   0.386 -0.6897 -0.1436  0.0624
11366TIP3   OH255588   2.961   4.474   0.469  0.6553  0.2749  0.2239
11366TIP3    H155589   2.990   4.552   0.516  0.2351  1.4894 -1.4981
11366TIP3    H255590   2.877   4.451   0.509  0.4977  1.0426  0.3264
11367TIP3   OH255591   6.031   6.603   1.915 -0.2697  0.1738 -0.5300
11367TIP3    H155592   6.101   6.632   1.857  0.3096 -2.0466 -0.9799
11367TIP3    H255593   5.951   6.615   1.863 -0.0338  0.7936 -0.7594
11368TIP3   OH255594   4.353   3.920  16.807  0.7249 -0.1499 -0.1255
11368TIP3    H155595   4.350   3.866  16.728 -0.3800  0.4906 -0.5329
11368TIP3    H255596   4.436   3.897  16.849  0.8986 -1.1521 -1.0041
11369TIP3   OH255597   1.997   6.094   5.036  0.0075 -0.1660  0.1075
11369TIP3    H155598   1.948   6.073   4.957  0.3984 -0.5108 -0.0458
11369TIP3    H255599   2.087   6.103   5.007  0.5205 -2.4624  0.8527
11370TIP3   OH255600   3.427   0.242  15.879  0.5424 -0.3325 -0.0593
11370TIP3    H155601   3.450   0.164  15.830 -0.5102  0.3483 -1.6760
11370TIP3    H255602   3.390   0.209  15.961 -1.0104 -1.5549 -1.2229
11371TIP3   OH255603   3.842   4.282   1.492 -0.4837 -0.0268 -0.1021
11371TIP3    H155604   3.921   4.241   1.455 -0.4282  1.0309 -1.1961
11371TIP3    H255605   3.808   4.217   1.553  0.9069 -0.7435 -0.0620
11372TIP3   OH255606   0.403   3.553   2.751  0.6598 -0.3063 -0.2094
11372TIP3    H155607   0.465   3.614   2.792  1.8649 -0.8100 -1.2197
11372TIP3    H255608   0.433   3.467   2.779 -0.1284 -0.5176 -0.0059
11373TIP3   OH255609   0.739   0.504   4.017  0.0715  0.0828  0.5624
11373TIP3    H155610   0.820   0.555   4.016 -0.1870  0.4760 -0.9792
11373TIP3    H255611   0.751   0.438   3.949 -1.2865  0.7410 -0.3255
11374TIP3   OH255612   4.627   0.513   0.562  0.0231  0.1993 -0.5463
11374TIP3    H155613   4.577   0.508   0.481  0.1529 -3.8752 -0.4819
11374TIP3    H255614   4.702   0.455   0.548 -0.1982 -0.9683  2.6316
11375TIP3   OH255615   0.295   5.009  14.394  0.9162 -0.5394  0.2939
11375TIP3    H155616   0.306   4.934  14.336  0.5445 -1.3231  1.2230
11375TIP3    H255617   0.224   5.060  14.355  1.5085 -0.3973 -0.6141
11376TIP3   OH255618   4.654   6.093   4.304 -0.6857 -0.3432  0.1090
11376TIP3    H155619   4.736   6.107   4.351 -0.1715 -0.4821 -0.7370
11376TIP3    H255620   4.658   6.002   4.275 -0.4440  0.0980 -1.2558
11377TIP3   OH255621   1.482   5.686  14.180  0.1024 -0.4468 -0.4204
11377TIP3    H155622   1.415   5.650  14.122  1.3353 -0.7011 -1.7149
11377TIP3    H255623   1.475   5.781  14.169 -1.4954 -0.3718  1.1142
11378TIP3   OH255624   3.800   6.748   4.108  0.0296  0.2416  0.2198
11378TIP3    H155625   3.793   6.656   4.085 -1.6098  0.6756 -1.1813
11378TIP3    H255626   3.806   6.793   4.024  0.7847  1.4249  0.8839
11379TIP3   OH255627   6.270   0.379  15.373  0.1254 -0.2059  0.0463
11379TIP3    H155628   6.352   0.413  15.408 -0.3305 -1.7587  2.7876
11379TIP3    H255629   6.203   0.439  15.408 -0.1092 -0.2419 -0.3356
11380TIP3   OH255630   0.221   2.194  13.108  0.3786 -0.1486  0.1518
11380TIP3    H155631   0.183   2.108  13.125 -0.1973 -0.0064 -0.4001
11380TIP3    H255632   0.315   2.177  13.100  0.2458 -0.7632 -0.1705
11381TIP3   OH255633   1.448   3.986   0.528 -0.7997  0.9076 -0.3349
11381TIP3    H155634   1.519   3.923   0.538  0.3023  2.0706 -0.6899
11381TIP3    H255635   1.398   3.979   0.610  0.0677  0.5043  0.1643
11382TIP3   OH255636   2.073   2.235   5.958 -0.6141 -0.1062  0.2789
11382TIP3    H155637   2.079   2.202   6.047  0.3314  0.5737  0.4714
11382TIP3    H255638   2.136   2.182   5.909 -3.0511 -2.3329 -0.5716
11383TIP3   OH255639   1.573   1.995   3.575 -0.1016 -0.0479 -0.4468
11383TIP3    H155640   1.579   1.924   3.640 -2.0479  0.4075  0.2826
11383TIP3    H255641   1.532   1.953   3.499 -1.7588  0.3936  0.1815
11384TIP3   OH255642   0.042   0.592   1.929  0.6705  0.4492 -0.2259
11384TIP3    H155643  -0.044   0.608   1.968 -0.2880 -0.6731 -1.8286
11384TIP3    H255644   0.068   0.676   1.892 -0.4918  0.3777 -1.2089
11385TIP3   OH255645   3.494   1.584   2.758  0.4982  0.5986  0.5964
11385TIP3    H155646   3.480   1.496   2.791 -0.5492 -0.0398 -1.4258
11385TIP3    H255647   3.589   1.594   2.755  0.6431 -0.8696 -0.1546
11386TIP3   OH255648   6.716   1.358   6.245  0.2532  0.5240  0.1667
11386TIP3    H155649   6.793   1.302   6.245 -0.4837 -0.5113 -1.2151
11386TIP3    H255650   6.705   1.384   6.154 -0.4494  1.4931  0.5114
11387TIP3   OH255651   4.832   6.768   1.218  0.0867 -0.2530  0.0476
11387TIP3    H155652   4.847   6.781   1.312 -0.9508 -1.5607  0.4039
11387TIP3    H255653   4.808   6.676   1.210 -0.9484  0.1247 -1.3612
11388TIP3   OH255654   3.085   1.730   0.995 -0.0047 -0.4707  0.0073
11388TIP3    H155655   3.131   1.814   0.998  0.7437 -0.8687 -0.3255
11388TIP3    H255656   3.048   1.727   0.907 -0.2362 -0.3823  0.1013
11389TIP3   OH255657   1.033   4.805   2.646  0.5855  0.1450 -0.2793
11389TIP3    H155658   0.938   4.796   2.631  0.7929 -3.2911  0.0902
11389TIP3    H255659   1.041   4.883   2.700 -1.9307  1.1987 -1.3257
11390TIP3   OH255660   2.738   5.475  16.241 -0.4599 -0.1929 -0.2132
11390TIP3    H155661   2.647   5.497  16.262 -0.5778 -1.8919  1.0979
11390TIP3    H255662   2.790   5.537  16.292 -0.8380 -1.0317  1.1913
11391TIP3   OH255663   3.214   0.022  15.149  0.7755  0.2329  0.3659
11391TIP3    H155664   3.291  -0.030  15.125  0.7794  1.4223 -2.4150
11391TIP3    H255665   3.141  -0.023  15.107  0.2749  0.4275  1.0265
11392TIP3   OH255666   1.566   5.644  10.960 -0.4025 -0.0198 -0.6399
11392TIP3    H155667   1.615   5.682  10.887  1.8646 -0.7587  0.4444
11392TIP3    H255668   1.631   5.633  11.030 -2.1108 -1.0832  0.8450
11393TIP3   OH255669   3.779   2.022   1.986  0.4461 -0.2176  0.0582
11393TIP3    H155670   3.801   1.942   2.034  0.3499 -0.4154 -0.2274
11393TIP3    H255671   3.837   2.021   1.910  1.4303  0.6920  0.7826
11394TIP3   OH255672   5.730   0.389   1.222 -0.4529  0.8524 -0.0554
11394TIP3    H155673   5.823   0.408   1.236 -0.6813  1.2128  1.0669
11394TIP3    H255674   5.684   0.446   1.284 -1.3260 -0.7296  0.7833
11395TIP3   OH255675   0.791   6.071   3.639 -0.1263  0.1095 -0.3121
11395TIP3    H155676   0.737   6.028   3.706 -2.3172  0.6237 -1.6745
11395TIP3    H255677   0.826   6.149   3.683 -0.5332 -0.2143  0.6015
11396TIP3   OH255678   0.830   0.593  17.130 -0.0264  0.1431  0.8571
11396TIP3    H155679   0.827   0.649  17.207 -1.1773 -1.8652  2.3177
11396TIP3    H255680   0.739   0.570  17.113  0.3068 -0.1711 -0.5558
11397TIP3   OH255681   3.694   3.581   2.589  0.2467  0.6511 -0.7977
11397TIP3    H155682   3.789   3.574   2.598  0.2436 -1.2232 -1.9806
11397TIP3    H255683   3.662   3.590   2.679  1.6287  2.9612 -0.4960
11398TIP3   OH255684   1.914   0.957   0.608  0.1844 -0.3029  0.0937
11398TIP3    H155685   1.888   1.024   0.671  1.0333 -0.1352  0.2660
11398TIP3    H255686   1.865   0.879   0.633  0.6650 -0.2906  1.0792
11399TIP3   OH255687   3.967   3.335  13.661 -0.1997  0.6332 -0.0164
11399TIP3    H155688   3.966   3.426  13.690  1.6775  0.3218  1.0930
11399TIP3    H255689   3.941   3.285  13.738  1.0356  0.0754  0.0475
11400TIP3   OH255690   4.651   3.575  16.848 -0.0184  0.8097  0.1705
11400TIP3    H155691   4.741   3.601  16.829 -0.6419  2.7381 -0.2463
11400TIP3    H255692   4.615   3.648  16.898 -1.7069  0.6090 -0.7175
11401TIP3   OH255693   2.507   6.609   5.278  0.2842 -0.2185  0.1127
11401TIP3    H155694   2.602   6.601   5.272  0.2166 -2.2655  1.0681
11401TIP3    H255695   2.474   6.525   5.245 -1.0652 -0.5565  2.1910
11402TIP3   OH255696   5.312   3.220  15.913 -0.4919  0.6836 -0.4802
11402TIP3    H155697   5.291   3.127  15.919  0.9676  0.2959 -1.2401
11402TIP3    H255698   5.270   3.250  15.833 -1.1446  0.7421 -0.1228
11403TIP3   OH255699   5.699   2.234   3.331  0.4428 -0.1250 -0.3756
11403TIP3    H155700   5.698   2.297   3.258  1.0352 -0.4329 -0.6540
11403TIP3    H255701   5.612   2.242   3.370  0.4656  0.7720 -0.4899
11404TIP3   OH255702   6.061   4.293   4.599  0.3973  0.1604 -0.2064
11404TIP3    H155703   6.120   4.363   4.571 -2.0373  2.8571  1.0980
11404TIP3    H255704   6.108   4.247   4.668  1.4971  1.4179 -0.1119
11405TIP3   OH255705   4.370   2.604  13.851 -0.4493 -0.0905 -0.8083
11405TIP3    H155706   4.350   2.686  13.898  2.1262  0.0711  0.0872
11405TIP3    H255707   4.332   2.535  13.906  1.5317  0.1851  0.9589
11406TIP3   OH255708   2.797   5.674   2.133  0.1799 -0.0720  0.2656
11406TIP3    H155709   2.835   5.590   2.156  0.1950 -0.2823 -0.5255
11406TIP3    H255710   2.702   5.658   2.134  0.1418  0.2187  1.3392
11407TIP3   OH255711   4.653   1.574   3.490  0.4182  0.1113 -0.0550
11407TIP3    H155712   4.744   1.587   3.462  0.1793  0.1778 -0.8102
11407TIP3    H255713   4.630   1.487   3.456 -0.0935  0.4775 -0.6311
11408TIP3   OH255714   4.891   1.491  11.421 -0.5510  0.8845 -0.4324
11408TIP3    H155715   4.964   1.439  11.388 -2.0054 -0.1190 -2.2142
11408TIP3    H255716   4.924   1.533  11.500  1.6149 -0.3422 -0.6580
11409TIP3   OH255717   5.640   5.135  11.256 -0.2373  0.2531 -0.7336
11409TIP3    H155718   5.577   5.183  11.203  0.7562  3.2085  0.6352
11409TIP3    H255719   5.718   5.129  11.202 -0.9678 -1.5928 -1.6379
11410TIP3   OH255720   6.745   5.582   6.312 -0.5090  0.4027 -0.4817
11410TIP3    H155721   6.651   5.564   6.322 -0.3928  0.6095  1.0619
11410TIP3    H255722   6.786   5.496   6.317 -0.4642  0.4836  0.8826
11411TIP3   OH255723   2.281   4.015   4.157  0.1078 -0.2500  0.1813
11411TIP3    H155724   2.218   4.085   4.143  1.6004  1.1875  0.5266
11411TIP3    H255725   2.330   4.009   4.075  0.8493 -0.0114  0.6066
11412TIP3   OH255726   6.528   0.328   2.723  0.3757 -0.1139  0.1935
11412TIP3    H155727   6.496   0.249   2.678  0.2181 -0.7561  1.4186
11412TIP3    H255728   6.585   0.295   2.793  2.4789  0.9570 -0.9442
11413TIP3   OH255729   0.225   6.034   0.554  0.5050 -0.2075  0.1056
11413TIP3    H155730   0.300   5.979   0.578  0.2574 -0.9068 -0.6789
11413TIP3    H255731   0.264   6.115   0.522  0.9321 -0.5618 -0.2814
11414TIP3   OH255732   3.900   3.134  16.952 -0.2614 -0.1129  0.1914
11414TIP3    H155733   3.932   3.044  16.948 -2.5119 -0.9352 -0.2961
11414TIP3    H255734   3.842   3.134  17.029  0.7714  1.2876  0.9841
11415TIP3   OH255735   1.407   0.105   0.880 -0.0860 -0.1300  0.0656
11415TIP3    H155736   1.388   0.013   0.899  3.2850 -0.6219  1.4743
11415TIP3    H255737   1.469   0.102   0.807 -0.2339  1.0457 -0.1072
11416TIP3   OH255738   1.882   5.165  13.318  0.3784  0.2859 -0.6128
11416TIP3    H155739   1.801   5.170  13.267 -0.8918  0.3526  1.3601
11416TIP3    H255740   1.921   5.252  13.307 -0.1836  0.5028 -0.9821
11417TIP3   OH255741   5.088   6.467   0.214  0.5577  0.0714 -0.0314
11417TIP3    H155742   5.091   6.451   0.308 -0.7543  0.3016  0.0652
11417TIP3    H255743   5.158   6.413   0.178 -0.2432 -1.6109  0.8746
11418TIP3   OH255744   0.427   1.943   1.679 -0.2469 -0.0835 -0.4098
11418TIP3    H155745   0.506   1.888   1.677 -0.6685 -0.7539  1.0443
11418TIP3    H255746   0.446   2.014   1.618  1.4055 -0.3548 -0.2345
11419TIP3   OH255747   6.413   5.202  16.853  0.2018  0.0830 -0.4425
11419TIP3    H155748   6.481   5.139  16.828 -0.1399 -1.0784  1.4428
11419TIP3    H255749   6.460   5.269  16.903 -0.1827 -1.4597  2.0986
11420TIP3   OH255750   0.718   5.762   1.982 -0.1698 -0.1040  0.2920
11420TIP3    H155751   0.779   5.825   2.020 -1.2791  0.7653  0.6457
11420TIP3    H255752   0.749   5.677   2.012  0.5204  0.3812  0.9489
11421TIP3   OH255753   1.160   1.762   4.350 -0.2080 -0.9408  0.0724
11421TIP3    H155754   1.084   1.708   4.329  0.6201 -2.2224  0.2969
11421TIP3    H255755   1.199   1.783   4.265 -2.5449  2.3499 -0.2675
11422TIP3   OH255756   3.092   2.074   6.324  0.1980  0.1998 -0.0677
11422TIP3    H155757   3.034   2.108   6.392 -1.1935 -0.5024 -0.8711
11422TIP3    H255758   3.179   2.103   6.349 -0.2972 -0.0538  2.0044
11423TIP3   OH255759   2.627   0.194   4.305  0.2613 -0.6045  0.5717
11423TIP3    H155760   2.584   0.164   4.225  1.8768 -0.8207 -0.2209
11423TIP3    H255761   2.631   0.290   4.295  2.3244 -0.7764 -0.5921
11424TIP3   OH255762   3.501   1.754  14.105  0.3149  0.2166 -0.6040
11424TIP3    H155763   3.478   1.832  14.054 -0.6886  1.0689  1.1255
11424TIP3    H255764   3.557   1.787  14.176 -0.5145 -0.5682  0.4267
11425TIP3   OH255765   0.089   5.105  15.487  0.2785 -0.2374 -0.1661
11425TIP3    H155766   0.076   5.071  15.398 -0.1968  0.6782 -0.4540
11425TIP3    H255767   0.131   5.034  15.534 -2.2075 -1.8401 -0.3032
11426TIP3   OH255768   1.966   1.523  12.486 -0.0335  0.0068 -0.0803
11426TIP3    H155769   1.882   1.568  12.482  1.2139  2.3765 -0.4854
11426TIP3    H255770   1.992   1.528  12.578 -0.1092 -0.2725 -0.0442
11427TIP3   OH255771   3.956   2.439   3.489  0.2832  0.1545 -0.1389
11427TIP3    H155772   3.948   2.344   3.491 -1.7540  0.3101  1.0125
11427TIP3    H255773   3.882   2.468   3.435 -0.8791  1.2195  1.9770
11428TIP3   OH255774   1.770   0.745  13.711 -0.3804  0.4236 -0.3453
11428TIP3    H155775   1.826   0.762  13.635  0.3750 -1.3603 -0.2163
11428TIP3    H255776   1.799   0.660  13.744 -2.1548  0.1709  0.6487
11429TIP3   OH255777   3.898   3.423  13.928  0.1271 -0.2689 -0.0902
11429TIP3    H155778   3.927   3.514  13.925 -0.0141 -0.2480 -1.1446
11429TIP3    H255779   3.965   3.378  13.980 -0.0041  0.4988  0.7585
11430TIP3   OH255780   5.514   0.455   2.804  0.5279 -0.0294 -0.1748
11430TIP3    H155781   5.429   0.417   2.823  1.8953 -2.1279  2.0993
11430TIP3    H255782   5.574   0.412   2.865  3.4274  0.5183 -2.5004
11431TIP3   OH255783   0.038   1.708   3.402  0.4639 -0.0763  0.4806
11431TIP3    H155784   0.024   1.798   3.434  1.7110  0.1877  0.3089
11431TIP3    H255785  -0.025   1.698   3.330  1.0284  1.0302 -0.1844
11432TIP3   OH255786   0.234   1.062  15.456  0.4259  0.8978 -0.1255
11432TIP3    H155787   0.144   1.096  15.458  0.3138  0.6329  3.4676
11432TIP3    H255788   0.282   1.123  15.401 -0.9843  3.7735  1.6977
11433TIP3   OH255789   0.398   4.594  13.122  0.3017 -0.2139  0.0974
11433TIP3    H155790   0.492   4.585  13.106  0.0559 -0.2453 -1.4663
11433TIP3    H255791   0.377   4.522  13.182  1.1110 -0.7727 -0.2733
11434TIP3   OH255792   0.978   5.033   1.998 -0.4914 -0.3246 -0.7285
11434TIP3    H155793   1.038   4.960   1.989 -0.5719 -0.7224  1.6172
11434TIP3    H255794   1.032   5.105   2.031 -0.9065 -0.0872 -0.5565
11435TIP3   OH255795   2.189   2.093  13.751  0.5759  0.1256 -0.1704
11435TIP3    H155796   2.128   2.039  13.701  0.1959  0.3746  0.0188
11435TIP3    H255797   2.180   2.062  13.841  1.8970 -0.9086 -0.3846
11436TIP3   OH255798   5.712   6.213   5.895  0.1554  0.5250 -0.0527
11436TIP3    H155799   5.624   6.211   5.856  0.4313 -0.3545 -0.6601
11436TIP3    H255800   5.753   6.133   5.863  0.6155  0.1026  1.5594
11437TIP3   OH255801   4.481   2.593  14.624 -0.5094  0.0568 -0.0732
11437TIP3    H155802   4.557   2.652  14.631 -0.7113  0.3582 -0.4046
11437TIP3    H255803   4.518   2.506  14.636 -0.4256  0.3384  1.8796
11438TIP3   OH255804   0.168   4.027   2.555 -0.0904 -0.0988  0.0719
11438TIP3    H155805   0.169   4.100   2.493  0.0744 -0.4914 -0.3980
11438TIP3    H255806   0.259   3.997   2.556  0.3051  1.0792  1.9199
11439TIP3   OH255807   4.550   2.813   1.927  0.3328  0.4701 -0.2464
11439TIP3    H155808   4.629   2.825   1.978  0.0778  1.3581 -0.0602
11439TIP3    H255809   4.562   2.869   1.850  0.0550  0.2947 -0.4204
11440TIP3   OH255810   6.093   4.332   6.649 -0.3654 -0.1278  0.1950
11440TIP3    H155811   6.171   4.364   6.694 -2.3540 -0.5187  4.1053
11440TIP3    H255812   6.042   4.411   6.631 -0.8558 -0.2335  1.1352
11441TIP3   OH255813   4.726   0.830   2.260 -0.5192  0.2252 -0.5690
11441TIP3    H155814   4.770   0.911   2.235 -0.3125 -0.3041 -1.9393
11441TIP3    H255815   4.793   0.779   2.305 -0.9136  1.2038  1.2067
11442TIP3   OH255816   3.499   0.724   1.030 -0.5665 -0.7753 -0.1652
11442TIP3    H155817   3.555   0.663   0.983  1.0573  1.5496 -1.3833
11442TIP3    H255818   3.559   0.777   1.082 -1.6852  1.1668 -0.7782
11443TIP3   OH255819   4.466   6.150   3.542 -0.2162 -0.2467  0.3785
11443TIP3    H155820   4.541   6.172   3.597  0.0236  0.8081 -0.3582
11443TIP3    H255821   4.452   6.228   3.488 -1.1159 -0.8723 -0.3046
11444TIP3   OH255822   4.672   3.588  13.151  0.1763  0.5797  0.3117
11444TIP3    H155823   4.696   3.497  13.130  3.4238  1.7343 -1.2737
11444TIP3    H255824   4.613   3.613  13.080  1.1303  0.4470 -0.5366
11445TIP3   OH255825   5.779   2.662  11.749 -0.2817 -0.8740  0.1928
11445TIP3    H155826   5.694   2.678  11.790  0.7256  0.8646  1.6725
11445TIP3    H255827   5.771   2.702  11.662 -0.1460  1.5098  1.2615
11446TIP3   OH255828   2.386   6.477   0.277  0.6231 -0.2465 -0.1161
11446TIP3    H155829   2.450   6.432   0.334  0.8948 -0.6389 -0.7252
11446TIP3    H255830   2.316   6.413   0.266 -0.4718  0.6284  1.5440
11447TIP3   OH255831   2.099   4.485   1.229 -0.1209  0.2461  0.4310
11447TIP3    H155832   2.174   4.444   1.188 -1.1440 -2.1305  0.8376
11447TIP3    H255833   2.045   4.517   1.157  0.1170 -0.1822  0.0678
11448TIP3   OH255834   0.896   5.920   2.106  0.0329 -0.7323 -0.6248
11448TIP3    H155835   0.951   5.887   2.177 -0.7395 -4.0814 -1.4547
11448TIP3    H255836   0.848   5.993   2.145  2.3527 -0.1186  1.1728
11449TIP3   OH255837   3.684   6.055  13.013  0.2667  0.1577  0.3692
11449TIP3    H155838   3.623   5.982  13.022 -0.3341  0.6076 -0.0210
11449TIP3    H255839   3.730   6.038  12.931  0.7796 -0.2714  0.7504
11450TIP3   OH255840   3.529   5.176  13.238  0.1108  0.1434 -0.7863
11450TIP3    H155841   3.597   5.243  13.238 -0.1524  0.4151 -1.5284
11450TIP3    H255842   3.531   5.140  13.327  1.0759  0.2864 -0.7479
11451TIP3   OH255843   0.090   1.003  13.365  0.2438 -0.5550 -1.2946
11451TIP3    H155844   0.031   1.060  13.415  1.3005 -1.2847  0.8744
11451TIP3    H255845   0.177   1.041  13.379  0.6142 -1.0556 -2.1936
11452TIP3   OH255846   3.711   1.860  12.805  0.2745  0.3470 -0.7229
11452TIP3    H155847   3.715   1.923  12.733 -1.5522 -1.2499 -2.2492
11452TIP3    H255848   3.639   1.892  12.860 -2.6415 -1.9162 -3.0463
11453TIP3   OH255849   2.173   4.919  16.671  0.3217 -0.0569  0.3875
11453TIP3    H155850   2.167   5.013  16.690 -1.0233  0.2469 -1.4170
11453TIP3    H255851   2.188   4.915  16.577  0.7405 -1.6604  0.5122
11454TIP3   OH255852   2.212   0.182   2.125  0.1854  0.5276 -0.1451
11454TIP3    H155853   2.178   0.262   2.164 -0.0341  0.4074 -0.0937
11454TIP3    H255854   2.137   0.123   2.122  0.6303 -0.1107  0.9545
11455TIP3   OH255855   6.006   0.120   3.392 -0.1546 -0.8922 -0.1043
11455TIP3    H155856   6.037   0.043   3.441  1.9745  1.2091  1.9731
11455TIP3    H255857   5.955   0.170   3.456 -1.8446 -0.7384 -1.5441
11456TIP3   OH255858   6.523   6.495  12.751 -0.3629 -0.2246  0.4265
11456TIP3    H155859   6.480   6.410  12.740 -1.5163  0.1474  1.9746
11456TIP3    H255860   6.453   6.559  12.740  0.2911  0.4969  0.4347
11457TIP3   OH255861   0.704   6.355  12.164 -0.2254 -0.7400  0.0233
11457TIP3    H155862   0.755   6.409  12.225  0.7946  0.9959 -2.2617
11457TIP3    H255863   0.764   6.339  12.091 -1.2315 -3.2474 -0.2862
11458TIP3   OH255864   4.212   6.529   1.447 -0.4750 -0.2271  0.3572
11458TIP3    H155865   4.167   6.460   1.399  0.8325 -1.0404  0.2894
11458TIP3    H255866   4.198   6.509   1.539  0.0032 -0.6504  0.3382
11459TIP3   OH255867   0.690   0.083   3.115  0.1078 -0.2158  0.3771
11459TIP3    H155868   0.618   0.143   3.098  1.3728  1.5041  0.8830
11459TIP3    H255869   0.695   0.078   3.211  1.1224  0.2631  0.3524
11460TIP3   OH255870   2.672   2.715  13.171 -0.3274 -0.3025  0.1867
11460TIP3    H155871   2.650   2.778  13.240 -0.7920  0.9225 -1.0581
11460TIP3    H255872   2.624   2.745  13.094  0.7081 -1.2537 -0.8614
11461TIP3   OH255873   3.142   0.726  14.216  0.2627  0.1004 -0.7942
11461TIP3    H155874   3.062   0.688  14.253 -0.0536  1.0620 -0.4886
11461TIP3    H255875   3.134   0.714  14.122 -1.0900  1.8197 -0.9162
11462TIP3   OH255876   5.944   5.022  14.335  1.0459  0.2879 -0.1132
11462TIP3    H155877   6.001   5.081  14.287 -0.7584  1.7763 -0.4931
11462TIP3    H255878   5.920   5.070  14.414  1.9131 -1.1230  1.0342
11463TIP3   OH255879   2.303   0.144  11.686  0.1365  0.1072  0.2156
11463TIP3    H155880   2.301   0.226  11.637  0.8627  1.5308  2.4669
11463TIP3    H255881   2.371   0.092  11.643  1.2402  1.6017  0.1013
11464TIP3   OH255882   2.082   1.899  14.385 -0.0748  0.0045  0.0903
11464TIP3    H155883   2.011   1.951  14.422 -1.1665  0.2331 -2.2659
11464TIP3    H255884   2.142   1.885  14.458 -2.6072 -0.3296  2.1543
11465TIP3   OH255885   2.518   5.952   2.302 -0.3507 -0.0959  0.0059
11465TIP3    H155886   2.442   5.894   2.307 -1.1106  0.7945 -0.8957
11465TIP3    H255887   2.483   6.036   2.272  1.1838 -0.0981 -1.9793
11466TIP3   OH255888   4.685   2.808  12.303 -0.3168 -0.4105 -0.1277
11466TIP3    H155889   4.654   2.884  12.253  1.0023  0.1275 -0.1668
11466TIP3    H255890   4.758   2.842  12.355 -0.6605 -1.3308  0.9726
11467TIP3   OH255891   6.785   6.063   3.115 -0.3047  0.3438 -0.2970
11467TIP3    H155892   6.797   6.096   3.204 -1.5844  2.1885 -0.7907
11467TIP3    H255893   6.829   6.126   3.059  0.4030 -0.7532 -1.0136
11468TIP3   OH255894   3.165   1.091  12.171  0.4014  0.3893 -0.1019
11468TIP3    H155895   3.195   1.181  12.154  1.1020  0.3377  0.8430
11468TIP3    H255896   3.153   1.087  12.265 -2.5939  0.3812 -0.4514
11469TIP3   OH255897   2.756   3.488  14.924 -0.0949 -0.2465  0.7472
11469TIP3    H155898   2.812   3.527  14.857  0.4281  0.9653  1.8720
11469TIP3    H255899   2.673   3.472  14.879  0.1074  0.9814 -0.0731
11470TIP3   OH255900   0.042   5.090   6.095 -0.0621 -0.2596 -0.5056
11470TIP3    H155901   0.116   5.030   6.111  0.4798  0.3736 -0.5978
11470TIP3    H255902   0.082   5.177   6.096 -1.0535  0.1815  0.8704
11471TIP3   OH255903   4.121   2.131  10.287 -0.0087  0.1616  0.3312
11471TIP3    H155904   4.075   2.084  10.356  0.4606 -0.9551 -0.1103
11471TIP3    H255905   4.189   2.071  10.258 -0.0656  0.7043 -0.9637
11472TIP3   OH255906   0.197   5.690  16.597  0.3657 -0.1538  0.0141
11472TIP3    H155907   0.109   5.659  16.618  0.2550  0.0318 -0.1705
11472TIP3    H255908   0.255   5.618  16.622  0.1246 -0.4439 -0.2586
11473TIP3   OH255909   6.497   3.617  15.151  0.1488  0.2601  0.0382
11473TIP3    H155910   6.474   3.567  15.230 -0.8431  0.3299 -0.2008
11473TIP3    H255911   6.529   3.550  15.090  2.0625  0.3404  0.8862
11474TIP3   OH255912   5.268   2.085   4.947 -0.1403 -0.2468 -0.3383
11474TIP3    H155913   5.188   2.130   4.973  0.3360  1.0913 -1.1568
11474TIP3    H255914   5.268   2.089   4.851 -0.3400 -2.4365 -0.4632
11475TIP3   OH255915   4.252   4.056  14.119  0.2410  0.1176 -0.0027
11475TIP3    H155916   4.226   4.110  14.193  1.1893  2.1155 -1.0727
11475TIP3    H255917   4.345   4.038  14.134 -0.3178 -2.1240  0.8775
11476TIP3   OH255918   6.083   3.436  17.291  0.1638 -0.1241  0.6340
11476TIP3    H155919   6.107   3.528  17.286 -3.5638  0.9374  0.3941
11476TIP3    H255920   6.099   3.411  17.382  2.9246  0.1938  0.2592
11477TIP3   OH255921   3.836   1.776  11.069  0.3660 -0.6268  0.8552
11477TIP3    H155922   3.849   1.729  11.151 -2.2870  0.0700  1.7034
11477TIP3    H255923   3.817   1.866  11.094  1.3728  0.0162 -0.6018
11478TIP3   OH255924   1.912   5.452  15.175  0.1800  0.5916 -0.3586
11478TIP3    H155925   1.955   5.527  15.135  2.5852  0.0187  1.0308
11478TIP3    H255926   1.939   5.377  15.122 -1.1260  0.5301 -0.9464
11479TIP3   OH255927   6.440   3.982   1.256  0.4134  0.1783 -0.0438
11479TIP3    H155928   6.430   3.888   1.242  0.6025  0.3475 -1.3319
11479TIP3    H255929   6.394   3.999   1.339  2.0092 -1.3601  1.2015
11480TIP3   OH255930   6.306   2.716  13.982 -0.0729 -0.0472  0.4071
11480TIP3    H155931   6.263   2.670  13.910 -0.5534 -0.9357  1.2525
11480TIP3    H255932   6.399   2.695  13.972 -0.2474 -0.9245  0.5841
11481TIP3   OH255933   6.590   3.215  12.359  0.5238  0.6781  0.5131
11481TIP3    H155934   6.583   3.201  12.454 -0.5230  0.4663  0.4134
11481TIP3    H255935   6.660   3.156  12.331  1.6124  1.5650  1.3184
11482TIP3   OH255936   4.197   3.809  16.128 -0.1994 -0.0182  0.5163
11482TIP3    H155937   4.265   3.787  16.064  1.0977  1.5947  1.2807
11482TIP3    H255938   4.192   3.732  16.185 -0.1535 -0.7831 -0.5022
11483TIP3   OH255939   3.641   6.518   3.498 -0.0919  0.3068  0.1912
11483TIP3    H155940   3.699   6.523   3.422 -0.1999  0.8189  0.1416
11483TIP3    H255941   3.625   6.425   3.510  0.1391  0.2101 -0.2536
11484TIP3   OH255942   3.024   0.521   1.567  0.3407 -0.0690  0.1835
11484TIP3    H155943   3.014   0.578   1.490 -1.0262 -1.8733 -1.0019
11484TIP3    H255944   3.116   0.495   1.566  0.0305 -1.1495 -1.6289
11485TIP3   OH255945   3.831   5.269  14.803  0.2386 -0.2318  0.3899
11485TIP3    H155946   3.833   5.303  14.713  2.8194 -0.2541  0.4180
11485TIP3    H255947   3.899   5.202  14.805  0.3122 -0.1276  2.4085
11486TIP3   OH255948   2.098   3.175   3.054 -0.1070 -0.4912 -0.6657
11486TIP3    H155949   2.087   3.256   3.105  1.5849 -0.2751 -0.5988
11486TIP3    H255950   2.049   3.109   3.104 -1.4615  0.4697 -0.6956
11487TIP3   OH255951   5.722   5.956   1.070  0.2273  0.3227  0.0423
11487TIP3    H155952   5.714   5.922   0.981  0.3692 -0.7073  0.4163
11487TIP3    H255953   5.740   5.879   1.124 -1.0589  0.7734  1.1391
11488TIP3   OH255954   0.994   1.613   1.385  0.0362  0.4297  0.1720
11488TIP3    H155955   0.950   1.541   1.340  0.4964 -0.3731  0.9918
11488TIP3    H255956   0.924   1.656   1.434  0.1318 -0.8675  1.5019
11489TIP3   OH255957   3.493   4.282   2.967  0.6459 -0.0107  0.5011
11489TIP3    H155958   3.476   4.300   2.875 -0.2803 -0.6582  0.5372
11489TIP3    H255959   3.413   4.309   3.012  0.7176 -0.6177  0.9993
11490TIP3   OH255960   0.311   0.918  15.676 -0.1072 -0.1669 -0.0005
11490TIP3    H155961   0.238   0.866  15.709  0.1652 -0.5094  0.0637
11490TIP3    H255962   0.275   0.965  15.601 -0.2148 -0.8296 -0.3601
11491TIP3   OH255963   0.185   4.057  13.210 -0.2510 -0.1969 -0.0829
11491TIP3    H155964   0.103   4.008  13.199  0.3037 -0.8473 -1.4823
11491TIP3    H255965   0.248   4.009  13.156  1.0613  0.2889  0.9981
11492TIP3   OH255966   6.457   3.706  12.339 -0.4298 -0.9216  0.0742
11492TIP3    H155967   6.406   3.776  12.297  0.9424  0.2969  0.4055
11492TIP3    H255968   6.439   3.715  12.432  1.1236  0.1309  0.2860
11493TIP3   OH255969   0.365   2.838  11.659  0.2208  0.8865 -0.1553
11493TIP3    H155970   0.381   2.745  11.674 -0.6180  0.5211 -1.5055
11493TIP3    H255971   0.285   2.857  11.707  0.2185  0.8388 -0.1410
11494TIP3   OH255972   2.653   6.418  13.351  0.3815 -0.2347 -0.0446
11494TIP3    H155973   2.684   6.399  13.262  1.7048 -1.3727  0.6239
11494TIP3    H255974   2.571   6.466  13.339  0.2551 -0.8725 -1.8772
11495TIP3   OH255975   3.460   3.356  15.984 -0.6388  0.0143 -0.3980
11495TIP3    H155976   3.408   3.429  16.017 -0.0450  0.5150 -0.5841
11495TIP3    H255977   3.428   3.343  15.894 -0.7180  0.0635 -0.3763
11496TIP3   OH255978   0.148   0.346  17.189  0.6141  0.7434 -0.0566
11496TIP3    H155979   0.186   0.371  17.273  0.6222  1.7368 -0.3513
11496TIP3    H255980   0.057   0.374  17.194  0.0717 -1.0316  0.3875
11497TIP3   OH255981   1.051   4.759  15.773 -0.7302 -0.0119 -0.8836
11497TIP3    H155982   1.075   4.849  15.799  2.8137 -0.5548 -2.0503
11497TIP3    H255983   1.079   4.705  15.847  0.0858 -0.4574 -1.5001
11498TIP3   OH255984   3.797   6.044  12.753 -0.0880  0.0455 -0.2673
11498TIP3    H155985   3.704   6.025  12.742 -0.4062  1.1930  0.2822
11498TIP3    H255986   3.822   6.088  12.672  0.1156 -0.7484 -0.6408
11499TIP3   OH255987   2.879   2.824  17.156 -0.2186  0.1827 -0.0277
11499TIP3    H155988   2.862   2.797  17.246  0.2364  0.4009  0.1286
11499TIP3    H255989   2.915   2.746  17.114 -2.1783 -0.4694 -0.5311
11500TIP3   OH255990   6.363   6.253  16.886 -0.2895  0.7458 -0.1969
11500TIP3    H155991   6.404   6.178  16.841 -1.5948  0.5077 -1.0012
11500TIP3    H255992   6.432   6.319  16.888 -0.3532  0.9483 -3.0206
11501TIP3   OH255993   4.421   2.298  14.085  0.4178 -0.1689 -0.5398
11501TIP3    H155994   4.503   2.263  14.121  0.5801 -0.0365 -0.7715
11501TIP3    H255995   4.426   2.276  13.991  1.4362  2.1781 -1.0632
11502TIP3   OH255996   3.235   5.175  13.256  0.1434 -0.5129 -0.2841
11502TIP3    H155997   3.182   5.108  13.298 -0.1042 -0.3156 -0.2734
11502TIP3    H255998   3.322   5.137  13.248  0.2399 -0.4744  0.5931
11503TIP3   OH255999   2.805   0.839   6.388  0.0690  0.1670 -0.1001
11503TIP3    H156000   2.761   0.862   6.470 -0.3545  0.5928 -0.4447
11503TIP3    H256001   2.830   0.747   6.400  0.5043  0.3843  0.7221
11504TIP3   OH256002   2.391   1.897  16.878  0.4151  0.1317 -0.0552
11504TIP3    H156003   2.383   1.823  16.937 -1.0951 -0.6422 -1.1791
11504TIP3    H256004   2.350   1.970  16.926  1.6514  0.1846  0.9359
11505TIP3   OH256005   4.474   3.315   2.395  0.4417 -0.0645 -0.5198
11505TIP3    H156006   4.453   3.225   2.368  0.3413 -0.5869  1.2369
11505TIP3    H256007   4.403   3.368   2.357  0.0745 -0.8267 -0.9149
11506TIP3   OH256008   6.069   1.192  16.775  0.6613 -0.4235  0.3648
11506TIP3    H156009   6.098   1.123  16.715  0.4103  0.1528 -0.4273
11506TIP3    H256010   6.130   1.186  16.849  2.0720 -0.0248 -0.7343
11507TIP3   OH256011   4.352   2.395   4.044  0.4347  0.2813  0.1298
11507TIP3    H156012   4.343   2.427   4.134 -1.8017  0.8962 -0.2704
11507TIP3    H256013   4.298   2.316   4.041 -0.0144  0.6139 -0.8261
11508TIP3   OH256014   5.958   4.460   1.152 -0.3276  0.2693 -0.4059
11508TIP3    H156015   5.899   4.524   1.112 -0.8459 -0.6033 -1.0349
11508TIP3    H256016   6.044   4.478   1.112 -0.4821  0.5453 -0.6113
11509TIP3   OH256017   5.905   0.871  15.979  0.1665 -0.5029  0.7413
11509TIP3    H156018   5.972   0.938  15.963 -2.3436  2.1736  0.9227
11509TIP3    H256019   5.895   0.869  16.074  0.9362 -1.8821  0.7980
11510TIP3   OH256020   4.144   3.007   2.483  0.5459 -0.1414  0.0720
11510TIP3    H156021   4.199   2.928   2.480 -0.5225 -0.9297  0.7482
11510TIP3    H256022   4.064   2.982   2.437  0.2606  0.6094  0.1531
11511TIP3   OH256023   3.985   1.324  16.047 -0.1979 -0.1361  0.6740
11511TIP3    H156024   4.031   1.244  16.074  0.0390 -0.0306  0.5788
11511TIP3    H256025   4.042   1.364  15.982 -1.2045 -0.8571 -0.6754
11512TIP3   OH256026   5.588   6.577  14.511 -0.0806 -0.0434  0.1937
11512TIP3    H156027   5.521   6.556  14.575  0.3083  1.0554  0.9745
11512TIP3    H256028   5.622   6.492  14.483 -1.4259 -0.5844  0.1780
11513TIP3   OH256029   4.597   4.339   2.916  0.5068  0.4857 -0.3429
11513TIP3    H156030   4.631   4.414   2.867  1.0850  0.8616  0.6321
11513TIP3    H256031   4.631   4.262   2.869  0.6178  0.8391 -0.8423
11514TIP3   OH256032   0.532   2.461   6.040  0.2756 -0.1122  0.1555
11514TIP3    H156033   0.540   2.368   6.019 -0.9193 -0.6445  1.9539
11514TIP3    H256034   0.551   2.466   6.134 -2.4807  1.0516  0.6766
11515TIP3   OH256035   3.532   1.948   4.299  0.1108 -0.4612 -0.4070
11515TIP3    H156036   3.515   1.879   4.364  0.6516 -0.6866 -0.5018
11515TIP3    H256037   3.565   2.021   4.350 -0.4004 -0.2886 -0.3131
11516TIP3   OH256038   3.565   6.243  12.150 -0.3456  0.1386 -0.0087
11516TIP3    H156039   3.543   6.334  12.171 -0.5052  0.2033 -0.4409
11516TIP3    H256040   3.590   6.246  12.057 -0.3537 -0.2593 -0.0208
11517TIP3   OH256041   6.730   6.706   3.910  0.9191 -0.1742 -0.4448
11517TIP3    H156042   6.822   6.732   3.906  0.7010  0.7523  0.5332
11517TIP3    H256043   6.708   6.707   4.003 -0.2867  0.3184 -0.7267
11518TIP3   OH256044   4.479   4.745   2.389  0.5152 -0.3388  0.5729
11518TIP3    H156045   4.425   4.778   2.461  1.1785  0.8643  0.5315
11518TIP3    H256046   4.563   4.725   2.429  0.7118 -0.1864  0.2381
11519TIP3   OH256047   0.101   5.819  13.678 -0.5196 -0.0178 -0.1515
11519TIP3    H156048   0.035   5.879  13.712 -0.5520  1.1349 -2.1990
11519TIP3    H256049   0.171   5.820  13.744 -1.6905  0.2203  1.0959
11520TIP3   OH256050   4.161   2.494   5.852  0.9685 -0.3573 -0.1533
11520TIP3    H156051   4.142   2.460   5.764  0.3410  0.7195 -0.4496
11520TIP3    H256052   4.202   2.421   5.898  1.4759 -0.8783 -1.4047
11521TIP3   OH256053   1.760   6.051  14.196 -0.4020  0.2931  0.1474
11521TIP3    H156054   1.705   6.036  14.119 -0.1124  0.7626 -0.1523
11521TIP3    H256055   1.823   5.980  14.194  0.0575  0.7112 -0.4558
11522TIP3   OH256056   0.550   0.442   3.569 -0.1073 -0.2086  0.0326
11522TIP3    H156057   0.520   0.460   3.658 -4.1485 -0.3056 -1.1978
11522TIP3    H256058   0.594   0.358   3.575 -0.9280 -0.5290  1.8409
11523TIP3   OH256059   5.447   6.647   1.152  0.6400 -0.5597  0.3371
11523TIP3    H156060   5.404   6.724   1.115  1.1632 -0.0656  0.7513
11523TIP3    H256061   5.375   6.588   1.174  0.1254  0.5049  1.5751
11524TIP3   OH256062   1.881   6.686   1.083  0.2270  0.0508  0.1596
11524TIP3    H156063   1.938   6.743   1.134  0.1405 -0.9418  1.3996
11524TIP3    H256064   1.909   6.698   0.992  2.0232 -0.0083  0.6930
11525TIP3   OH256065   2.488   4.470  11.576  0.3914 -1.2966  0.4600
11525TIP3    H156066   2.434   4.533  11.625  1.3122 -0.6931  0.7039
11525TIP3    H256067   2.448   4.467  11.489  0.2823 -0.4388  0.4802
11526TIP3   OH256068   3.579   5.200  15.370 -0.0305  0.2398  0.1999
11526TIP3    H156069   3.638   5.150  15.314  0.2105  0.5289  0.1951
11526TIP3    H256070   3.497   5.203  15.322  0.5180  1.4902 -0.6608
11527TIP3   OH256071   5.664   1.468   4.977 -0.0716  0.3120  0.4894
11527TIP3    H156072   5.749   1.426   4.992 -0.2247 -0.4019 -0.5765
11527TIP3    H256073   5.599   1.404   5.006 -0.2482  1.3972  2.6077
11528TIP3   OH256074   0.404   2.265   5.817  0.7537  0.1874 -0.4171
11528TIP3    H156075   0.446   2.226   5.893  1.0366  1.2128 -0.0451
11528TIP3    H256076   0.310   2.259   5.836  0.7750 -0.5961 -0.5129
11529TIP3   OH256077   4.363   6.234  16.771 -0.1932 -0.2209  0.3502
11529TIP3    H156078   4.429   6.197  16.829 -0.6632 -1.7551 -0.0593
11529TIP3    H256079   4.327   6.158  16.725  0.6145  1.0128 -2.4270
11530TIP3   OH256080   3.624   2.461  16.429  0.1705 -0.1629  0.5163
11530TIP3    H156081   3.690   2.400  16.461  0.4498  0.4317  1.0861
11530TIP3    H256082   3.569   2.479  16.505 -1.3947 -1.6031 -0.2639
11531TIP3   OH256083   3.596   3.203  10.352  0.1774 -0.6626  0.8624
11531TIP3    H156084   3.675   3.149  10.355  0.4299 -0.3399  0.0985
11531TIP3    H256085   3.547   3.170  10.277  0.7770  0.7617 -0.1857
11532TIP3   OH256086   1.700   3.082   2.512  0.2744  0.3822 -0.2146
11532TIP3    H156087   1.660   2.995   2.512 -2.6738  1.6735  0.2658
11532TIP3    H256088   1.734   3.094   2.600  0.2987 -0.0965 -0.1604
11533TIP3   OH256089   3.620   4.907   1.992 -0.0271 -0.2367 -0.3343
11533TIP3    H156090   3.616   4.852   2.070  0.8447 -1.3956 -1.0900
11533TIP3    H256091   3.555   4.869   1.933  1.3976 -1.1712 -1.3098
11534TIP3   OH256092   1.632   4.951  15.495  0.0187  0.3495 -0.3698
11534TIP3    H156093   1.651   4.940  15.588 -1.0961 -0.3885 -0.2267
11534TIP3    H256094   1.710   4.919  15.450  0.4893  0.5519  0.2971
11535TIP3   OH256095   5.088   6.193  15.921 -0.1981 -0.1647 -0.4241
11535TIP3    H156096   5.031   6.148  15.858  0.8096  0.0651 -1.4943
11535TIP3    H256097   5.128   6.121  15.971  0.4518 -0.4194 -1.3032
11536TIP3   OH256098   0.578   4.569   2.601  0.1101 -0.5663  0.2528
11536TIP3    H156099   0.530   4.488   2.582  2.0966 -1.2690 -2.0948
11536TIP3    H256100   0.669   4.541   2.611  0.5299  1.1421  1.4353
11537TIP3   OH256101   1.607   1.421   4.537  0.1186 -0.1533  0.2294
11537TIP3    H156102   1.610   1.364   4.614  2.1359 -1.5251 -0.8073
11537TIP3    H256103   1.514   1.437   4.522 -0.2836  0.4497  3.1497
11538TIP3   OH256104   4.741   4.978  16.186 -0.4418  0.1532  0.8516
11538TIP3    H156105   4.836   4.984  16.172 -0.3460 -0.1910  1.3334
11538TIP3    H256106   4.716   4.897  16.141 -0.1729 -0.8270  2.3931
11539TIP3   OH256107   3.730   4.044  14.286  0.4035  0.1384  0.5546
11539TIP3    H156108   3.670   3.991  14.338 -0.1166  0.5880  0.4087
11539TIP3    H256109   3.709   4.134  14.309 -0.1028  0.3523 -0.7552
11540TIP3   OH256110   0.685   4.011  17.140 -0.6316  0.0862  0.2559
11540TIP3    H156111   0.720   3.924  17.119 -0.8580  0.4046 -1.4843
11540TIP3    H256112   0.628   4.033  17.066 -0.1085  1.9728  0.3842
11541TIP3   OH256113   3.970   2.633   1.280  0.5589 -0.0740 -0.3303
11541TIP3    H156114   3.957   2.592   1.194  2.0791 -2.2763  0.4595
11541TIP3    H256115   3.963   2.561   1.342  0.8233  1.2990  1.3098
11542TIP3   OH256116   3.656   2.190   1.014 -0.0512 -0.4759  0.2492
11542TIP3    H156117   3.685   2.127   1.080  1.0409 -1.3674 -1.0614
11542TIP3    H256118   3.716   2.177   0.941 -0.0799  1.8103 -0.1976
11543TIP3   OH256119   6.388   6.060  13.845  0.1658 -0.1683  0.1336
11543TIP3    H156120   6.320   6.097  13.901 -0.7699  2.1661 -2.4191
11543TIP3    H256121   6.348   6.053  13.759  2.2011 -1.6886 -0.7358
11544TIP3   OH256122   0.805   3.578  13.137 -0.0983  0.7005  0.1356
11544TIP3    H156123   0.784   3.656  13.188  0.7162  0.8395  0.2537
11544TIP3    H256124   0.836   3.612  13.053 -0.2453  0.4880 -0.0074
11545TIP3   OH256125   3.827   1.240  15.729  0.0391  0.1548  0.3370
11545TIP3    H156126   3.772   1.232  15.652 -1.0259  0.9657  0.9976
11545TIP3    H256127   3.872   1.156  15.736 -0.2777 -0.1138 -0.8418
11546TIP3   OH256128   1.566   5.640  14.815  0.2975  0.3834 -0.2838
11546TIP3    H156129   1.594   5.598  14.734  1.0240  1.4977 -0.6269
11546TIP3    H256130   1.625   5.715  14.825  1.2261 -0.6042  2.0864
11547TIP3   OH256131   5.638   6.799   1.308 -0.4725  0.1773 -0.3784
11547TIP3    H156132   5.596   6.732   1.254  0.3032 -1.2361  0.7431
11547TIP3    H256133   5.652   6.757   1.393 -0.2256  1.8574  0.4392
11548TIP3   OH256134   2.547   1.834   0.993 -0.5374  0.7102 -0.2088
11548TIP3    H156135   2.543   1.904   0.928 -2.6592  0.9965  0.1821
11548TIP3    H256136   2.515   1.756   0.946  0.3054  0.3547 -0.1996
11549TIP3   OH256137   4.837   3.723  13.786 -0.3829 -0.3854 -0.5646
11549TIP3    H156138   4.744   3.720  13.764 -0.0720 -1.0144 -1.8189
11549TIP3    H256139   4.878   3.661  13.726  0.8119 -0.3253  0.1706
11550TIP3   OH256140   4.169   1.870   4.253  0.0949 -0.2325  0.1435
11550TIP3    H156141   4.090   1.899   4.298  1.0778  1.7703  0.6113
11550TIP3    H256142   4.230   1.848   4.324  1.2208  1.7413 -0.1857
11551TIP3   OH256143   6.505   3.862  16.327  0.4150  0.3832 -0.1221
11551TIP3    H156144   6.583   3.874  16.272  0.6043 -0.1361  0.0255
11551TIP3    H256145   6.482   3.950  16.356  0.3569  0.6591 -0.9789
11552TIP3   OH256146   5.456   4.804   5.418  0.4932  0.1521  0.2814
11552TIP3    H156147   5.396   4.804   5.492  0.9241 -1.9754  0.6624
11552TIP3    H256148   5.543   4.790   5.456  0.9485  0.9076 -0.4551
11553TIP3   OH256149   4.243   1.853  16.954 -0.0196 -0.3818 -0.1964
11553TIP3    H156150   4.262   1.771  17.000 -1.9552 -1.4666 -1.2543
11553TIP3    H256151   4.325   1.902  16.956  1.2849 -2.5452  0.0889
11554TIP3   OH256152   0.927   6.624   1.269  0.0934 -0.0238 -0.1463
11554TIP3    H156153   0.898   6.573   1.193  0.5442  1.2008 -1.1559
11554TIP3    H256154   0.847   6.638   1.320 -0.3009 -0.4276 -0.6429
11555TIP3   OH256155   6.177   0.324  13.333  0.2440  0.3060 -0.2270
11555TIP3    H156156   6.197   0.246  13.384  0.3732  1.4089  1.4298
11555TIP3    H256157   6.087   0.311  13.303 -0.1257  0.0278  0.9751
11556TIP3   OH256158   3.808   5.278  16.262 -0.4257 -0.6075  1.4172
11556TIP3    H156159   3.810   5.355  16.205  1.3447  0.2865  2.6606
11556TIP3    H256160   3.829   5.204  16.204 -2.1947 -0.1886  0.2085
11557TIP3   OH256161   6.190   3.143   1.738 -0.1009  0.0078 -0.6297
11557TIP3    H156162   6.131   3.069   1.751  0.1251 -0.0851 -0.1298
11557TIP3    H256163   6.160   3.184   1.657 -0.8025 -0.0898 -0.4227
11558TIP3   OH256164   1.710   2.246   3.346 -0.8756  0.3549 -0.1307
11558TIP3    H156165   1.683   2.154   3.344 -0.3179  0.1986 -0.8214
11558TIP3    H256166   1.695   2.274   3.437  0.2878 -0.8287  0.4418
11559TIP3   OH256167   6.503   4.603   1.023 -0.2015  0.0617  0.2076
11559TIP3    H156168   6.438   4.549   0.978 -1.0861  0.8347  0.5363
11559TIP3    H256169   6.530   4.550   1.098  0.3372 -0.6994 -0.5165
11560TIP3   OH256170   0.387   1.145  12.414  0.2281 -0.7571 -0.5899
11560TIP3    H156171   0.296   1.143  12.442  0.7777  2.0791  1.7176
11560TIP3    H256172   0.431   1.080  12.469  0.5496  1.9217  2.5050
11561TIP3   OH256173   4.063   2.586  15.172  0.3087  0.0676  0.1921
11561TIP3    H156174   3.994   2.574  15.236  0.0974  1.5839  0.2602
11561TIP3    H256175   4.124   2.514  15.188 -0.5708 -0.4948  1.0093
11562TIP3   OH256176   5.003   0.104  13.694 -0.0076 -0.3388  0.1559
11562TIP3    H156177   5.091   0.143  13.690  0.3688 -1.0036  1.5974
11562TIP3    H256178   4.962   0.147  13.768 -0.4305 -0.9894  0.2971
11563TIP3   OH256179   0.783   3.484   5.899  0.4425  0.1696  0.1002
11563TIP3    H156180   0.724   3.409   5.899 -0.7275  1.0608  1.9375
11563TIP3    H256181   0.824   3.483   5.986  2.5198  0.0500 -0.8413
11564TIP3   OH256182   5.883   2.092  15.911 -0.1450 -0.2698 -0.5966
11564TIP3    H156183   5.826   2.115  15.985 -0.7271  2.5600 -1.8642
11564TIP3    H256184   5.825   2.088  15.836  0.8310 -0.7221 -1.3387
11565TIP3   OH256185   3.156   6.194  14.678 -0.2180  0.6976  0.1290
11565TIP3    H156186   3.076   6.192  14.626 -0.2442 -0.1365  0.1995
11565TIP3    H256187   3.212   6.127  14.639 -0.0577  0.3852  0.8962
11566TIP3   OH256188   2.874   0.550   5.716  0.1457  0.1089 -0.4877
11566TIP3    H156189   2.953   0.496   5.727  0.8105  0.8780 -1.3301
11566TIP3    H256190   2.877   0.612   5.788  1.2141  1.2004 -1.4423
11567TIP3   OH256191   0.666   2.043   2.354  0.3925  0.2344  0.4535
11567TIP3    H156192   0.707   1.961   2.327  2.2382  1.7282 -1.5614
11567TIP3    H256193   0.736   2.090   2.400  0.3318  1.9200 -1.1144
11568TIP3   OH256194   4.312   2.308   6.275 -0.4568  0.3585 -0.0543
11568TIP3    H156195   4.323   2.236   6.337 -1.3717  1.1308  1.0041
11568TIP3    H256196   4.392   2.360   6.285 -0.0150 -0.2324 -0.4688
11569TIP3   OH256197   4.791   2.688  16.182 -0.2992 -0.5819 -0.1716
11569TIP3    H156198   4.708   2.641  16.176 -0.3202 -0.5989  0.2994
11569TIP3    H256199   4.772   2.775  16.147  0.2438 -1.5668 -3.0943
11570TIP3   OH256200   4.995   3.206  14.805 -0.0269 -0.1416  0.1237
11570TIP3    H156201   5.055   3.274  14.834  2.7109 -2.3590 -0.1910
11570TIP3    H256202   5.002   3.137  14.871 -1.4936 -0.8414 -0.4152
11571TIP3   OH256203   3.681   2.869   2.569 -0.2569 -0.3039  0.6275
11571TIP3    H156204   3.600   2.898   2.527 -0.5486  2.3426  2.8674
11571TIP3    H256205   3.652   2.816   2.644  0.0576  0.2345  1.1406
11572TIP3   OH256206   5.572   3.511   2.230  0.3072  0.5706  0.2675
11572TIP3    H156207   5.587   3.602   2.256 -0.6035  0.5822  0.7636
11572TIP3    H256208   5.588   3.460   2.309  3.4607  0.0214 -0.6603
11573TIP3   OH256209   6.611   1.927  15.489  0.5317 -0.1970 -0.2790
11573TIP3    H156210   6.584   1.873  15.415  0.0914  0.4435 -0.5852
11573TIP3    H256211   6.638   2.010  15.450  1.7230 -0.3732  0.1383
11574TIP3   OH256212   5.492   6.200  15.219 -0.6241 -0.1082 -0.1797
11574TIP3    H156213   5.517   6.287  15.187  1.2242  0.1977  1.9663
11574TIP3    H256214   5.400   6.208  15.242 -0.7751  0.9494 -1.1594
11575TIP3   OH256215   0.963   4.676   0.700 -0.0072 -0.0514  0.0008
11575TIP3    H156216   0.987   4.768   0.682 -1.0140  0.2090 -0.0059
11575TIP3    H256217   0.876   4.666   0.664 -0.4602 -0.6333  1.2204
11576TIP3   OH256218   1.595   3.604  11.983  0.4962 -0.3533  0.6247
11576TIP3    H156219   1.611   3.510  11.975 -0.0509 -0.1836 -3.1686
11576TIP3    H256220   1.680   3.641  12.004  0.7400 -1.6304  2.0227
11577TIP3   OH256221   1.054   0.419  10.573  0.4255  0.5246 -0.1138
11577TIP3    H156222   1.112   0.495  10.569 -1.5960  2.3735  3.0184
11577TIP3    H256223   0.971   0.450  10.537  0.1708 -0.8629 -0.7608
11578TIP3   OH256224   3.877   1.950   3.611 -0.4559 -0.1844  0.4133
11578TIP3    H156225   3.919   1.903   3.682  1.1093  0.6784  0.0748
11578TIP3    H256226   3.805   1.997   3.653  1.5292  1.7286  1.7841
11579TIP3   OH256227   0.614   5.022   0.542 -0.1737  0.0186  0.4163
11579TIP3    H156228   0.569   5.103   0.565  0.5851  0.5392  0.0627
11579TIP3    H256229   0.546   4.965   0.506 -0.3646  1.1886 -1.1084
11580TIP3   OH256230   2.511   4.095  15.621 -0.0611  0.6220 -0.2541
11580TIP3    H156231   2.458   4.044  15.560 -0.5397  0.5336  0.2351
11580TIP3    H256232   2.493   4.056  15.707  0.7616  0.6193 -0.0850
11581TIP3   OH256233   0.605   3.191  10.990  0.5928 -0.0341  0.9364
11581TIP3    H156234   0.547   3.257  10.953  0.2881 -0.4894  0.6009
11581TIP3    H256235   0.693   3.224  10.971  0.4497 -0.4587 -0.5778
11582TIP3   OH256236   3.006   6.365  11.645 -0.8814  0.2186  0.4272
11582TIP3    H156237   3.013   6.277  11.681 -1.4036 -0.1622 -0.3887
11582TIP3    H256238   2.917   6.371  11.612 -0.5952  0.7566 -0.2770
11583TIP3   OH256239   6.808   5.110  12.035 -0.8653 -0.0553  0.2742
11583TIP3    H156240   6.852   5.081  11.955  0.4003  0.6228  0.7076
11583TIP3    H256241   6.806   5.032  12.090  2.1857  0.5226  1.2877
11584TIP3   OH256242   2.149   1.431   1.904  0.3595  0.1101 -0.4321
11584TIP3    H156243   2.160   1.479   1.822 -0.6488 -0.9653 -1.2166
11584TIP3    H256244   2.184   1.344   1.886  2.2217  0.5206  0.9905
11585TIP3   OH256245   2.875   6.167  14.172 -0.1620  0.8811 -0.3168
11585TIP3    H156246   2.891   6.073  14.181  0.4470  1.0592  0.5345
11585TIP3    H256247   2.931   6.193  14.099 -0.9051  0.4436 -1.0469
11586TIP3   OH256248   5.266   4.241   3.309  0.0900 -0.3131 -0.2337
11586TIP3    H156249   5.259   4.146   3.320  2.8309 -0.6453 -1.0151
11586TIP3    H256250   5.326   4.269   3.378  0.7373  0.5673 -1.1457
11587TIP3   OH256251   0.147   2.444  12.922  0.1707  0.0177  0.4043
11587TIP3    H156252   0.208   2.389  12.971  0.4653  1.0582  1.2341
11587TIP3    H256253   0.073   2.456  12.981 -0.4548 -0.5325 -0.2640
11588TIP3   OH256254   1.041   1.826  13.339  0.0964 -0.1749  0.6246
11588TIP3    H156255   1.046   1.910  13.293 -0.4290 -0.1138  0.6856
11588TIP3    H256256   1.129   1.815  13.377  0.4774 -0.1377 -0.2356
11589TIP3   OH256257   6.069   5.305  15.431  0.4496 -0.3568  0.0445
11589TIP3    H156258   6.117   5.224  15.412  0.2151 -0.3223 -0.7171
11589TIP3    H256259   6.092   5.326  15.522  0.1648 -1.5213  0.3966
11590TIP3   OH256260   4.162   2.843  11.098 -0.0795  0.1771 -0.1756
11590TIP3    H156261   4.252   2.859  11.070  0.0709  2.2213  1.2997
11590TIP3    H256262   4.112   2.917  11.063 -0.8955 -0.1681  0.2399
11591TIP3   OH256263   5.336   3.338   4.971  0.0636 -0.0693  0.3093
11591TIP3    H156264   5.358   3.431   4.961 -1.8464  0.1657 -2.5682
11591TIP3    H256265   5.410   3.301   5.019  2.3284  2.3635 -1.1341
11592TIP3   OH256266   0.909   1.638  12.645  0.0483  0.1443  0.0031
11592TIP3    H156267   0.946   1.655  12.558 -1.6796  1.5826 -0.4895
11592TIP3    H256268   0.827   1.591  12.626  0.7095 -1.4416  0.9825
11593TIP3   OH256269   6.123   1.056  14.362  0.6471  0.4161  0.3167
11593TIP3    H156270   6.164   0.976  14.329  0.8543  0.3724  0.6782
11593TIP3    H256271   6.083   1.096  14.284 -0.0706 -0.3996  0.2569
11594TIP3   OH256272   3.011   2.027   1.148  0.0128 -0.3769  0.0712
11594TIP3    H156273   3.054   2.094   1.200 -1.1046  0.5023 -0.1189
11594TIP3    H256274   2.928   2.010   1.194  0.5535 -2.0630  0.4559
11595TIP3   OH256275   0.356   3.933  12.547  0.2277 -0.7121  0.1103
11595TIP3    H156276   0.316   4.020  12.547  0.1076 -0.7387 -2.3782
11595TIP3    H256277   0.450   3.949  12.560  0.0425 -0.3199  0.9946
11596TIP3   OH256278   1.893   1.165   4.753  0.1675 -0.0722 -0.0862
11596TIP3    H156279   1.965   1.186   4.694 -1.2919  0.2317 -1.8103
11596TIP3    H256280   1.879   1.071   4.741 -0.6414  0.1419 -0.8032
11597TIP3   OH256281   5.391   3.059  12.568  0.1637 -0.1248  0.1076
11597TIP3    H156282   5.411   3.149  12.542  0.2705 -0.3452 -0.5756
11597TIP3    H256283   5.433   3.004  12.501 -1.8804 -0.6176 -0.8094
11598TIP3   OH256284   1.330   0.986  13.250 -0.3830  0.0789 -0.3030
11598TIP3    H156285   1.291   1.023  13.171  0.4884  0.6668 -0.4645
11598TIP3    H256286   1.420   1.017  13.249  0.9798 -3.5894 -1.4819
11599TIP3   OH256287   6.638   0.343   3.642 -0.0189  0.1712 -0.5830
11599TIP3    H156288   6.605   0.337   3.732  0.7450  0.3539 -0.2813
11599TIP3    H256289   6.591   0.276   3.594 -1.6741  1.1926 -0.4256
11600TIP3   OH256290   3.837   1.258  13.220 -0.9244 -0.1358  0.3773
11600TIP3    H156291   3.821   1.311  13.143 -0.8846 -2.1134 -1.0244
11600TIP3    H256292   3.789   1.301  13.290  0.6123  2.7759 -0.2894
11601TIP3   OH256293   6.084   6.299   2.084 -0.0684 -0.1175 -0.1538
11601TIP3    H156294   6.019   6.347   2.137 -0.2783  0.5476 -0.9870
11601TIP3    H256295   6.067   6.329   1.994  1.5866  0.2820 -0.3448
11602TIP3   OH256296   3.703   2.362   0.308  0.7724 -0.9383  0.4036
11602TIP3    H156297   3.685   2.436   0.252  0.1455 -0.1246  1.6674
11602TIP3    H256298   3.662   2.287   0.264 -1.8229  0.0969  0.9739
11603TIP3   OH256299   2.232   5.923  15.062 -0.0226  0.0214  0.0325
11603TIP3    H156300   2.271   5.903  15.147  0.4697 -1.1498 -0.4538
11603TIP3    H256301   2.176   5.848  15.043  0.5793 -0.1652 -1.0860
11604TIP3   OH256302   2.038   5.863   3.454  0.3543  0.3456  0.3630
11604TIP3    H156303   2.124   5.827   3.434  0.7117  1.0475  0.5968
11604TIP3    H256304   2.033   5.944   3.402 -0.5264 -0.1438 -0.3422
11605TIP3   OH256305   1.437   4.112  13.673 -0.4021 -0.1268 -0.6966
11605TIP3    H156306   1.483   4.042  13.628 -1.4131 -2.2151  1.4140
11605TIP3    H256307   1.346   4.082  13.677 -1.2533  2.1979 -1.4361
11606TIP3   OH256308   4.143   3.614   5.256 -0.5050  0.6126  0.4073
11606TIP3    H156309   4.199   3.660   5.318  0.2292  2.8218 -1.8030
11606TIP3    H256310   4.198   3.543   5.222 -1.1062 -0.9831  2.6338
11607TIP3   OH256311   1.148   0.702  14.126 -0.7587 -0.0761 -0.3063
11607TIP3    H156312   1.079   0.641  14.154 -0.8256 -0.4460 -1.2255
11607TIP3    H256313   1.202   0.651  14.065  0.1450  0.3066  0.1633
11608TIP3   OH256314   6.807   1.003   5.261 -0.1278 -0.1390 -0.4318
11608TIP3    H156315   6.719   1.031   5.237  0.3614  1.8151  0.0032
11608TIP3    H256316   6.841   0.963   5.181 -0.9948  0.0942 -0.9273
11609TIP3   OH256317   5.946   1.046  10.979 -0.5208  0.0875  0.3512
11609TIP3    H156318   5.880   0.979  10.959 -0.8052 -0.2826  2.3869
11609TIP3    H256319   5.989   1.013  11.058  0.9337  1.1863  0.0261
11610TIP3   OH256320   3.180   4.479   2.433  0.1187  0.2130  0.5228
11610TIP3    H156321   3.194   4.401   2.486  1.9502 -0.6281 -1.1546
11610TIP3    H256322   3.200   4.452   2.343 -2.3858  1.7534 -0.5779
11611TIP3   OH256323   6.587   2.841  16.930 -0.3089 -0.0240 -0.2713
11611TIP3    H156324   6.505   2.796  16.909 -0.4839  0.8617 -1.5260
11611TIP3    H256325   6.655   2.790  16.887 -0.0474 -1.4542  1.7712
11612TIP3   OH256326   4.709   0.550  13.254 -0.0321 -0.1173 -0.1117
11612TIP3    H156327   4.660   0.483  13.207 -3.2003  1.3915  0.9583
11612TIP3    H256328   4.719   0.515  13.342 -0.2040  0.1170 -0.0025
11613TIP3   OH256329   1.571   1.160   5.072  0.0843  0.1605 -0.0823
11613TIP3    H156330   1.553   1.210   4.992 -0.0882  0.1535 -0.0492
11613TIP3    H256331   1.574   1.069   5.043  1.6660  0.2937 -0.3543
11614TIP3   OH256332   4.041   5.421  14.318  0.1706  0.8334 -0.4751
11614TIP3    H156333   4.099   5.375  14.258  1.2173 -0.8714  1.7872
11614TIP3    H256334   4.079   5.508  14.327  1.3200  0.3292 -0.4591
11615TIP3   OH256335   1.500   6.782  12.961 -0.4233  0.5669 -0.8078
11615TIP3    H156336   1.414   6.809  12.992 -0.5423 -1.8901  1.0900
11615TIP3    H256337   1.561   6.843  13.004 -1.0773  1.2942 -0.8958
11616TIP3   OH256338   6.573   6.163  11.654  0.1311 -0.3403  0.0126
11616TIP3    H156339   6.586   6.111  11.733 -3.8498 -0.3354  0.7714
11616TIP3    H256340   6.557   6.099  11.585  0.8846 -0.2707 -0.2267
11617TIP3   OH256341   4.849   6.085   4.537 -0.0816 -0.2826  0.5681
11617TIP3    H156342   4.838   5.990   4.537 -0.0830 -0.3019  2.7491
11617TIP3    H256343   4.938   6.099   4.569  0.8173  0.4000 -2.1258
11618TIP3   OH256344   4.442   3.797   5.259  0.0506 -0.2267  0.7559
11618TIP3    H156345   4.351   3.819   5.281 -0.0380 -0.4014  0.5694
11618TIP3    H256346   4.443   3.701   5.258  0.2636 -0.2243  0.8708
11619TIP3   OH256347   5.370   4.232  14.461 -0.8737  0.4714 -0.0380
11619TIP3    H156348   5.295   4.281  14.428 -0.5316  0.8410 -0.2629
11619TIP3    H256349   5.351   4.219  14.554 -0.9462  1.0579  0.0307
11620TIP3   OH256350   3.980   4.740  11.704 -0.3776 -0.6092  0.3562
11620TIP3    H156351   4.021   4.812  11.752  0.9876 -0.0542 -1.5455
11620TIP3    H256352   3.903   4.779  11.664 -0.4857 -0.5997  0.5745
11621TIP3   OH256353   2.845   0.532   4.547  0.0702  0.0193 -0.3151
11621TIP3    H156354   2.863   0.528   4.641  1.3076 -1.7802 -0.5961
11621TIP3    H256355   2.894   0.608   4.517  2.3124 -1.2635 -0.0163
11622TIP3   OH256356   4.627   6.322   4.120  0.4389 -0.0698  0.4172
11622TIP3    H156357   4.615   6.238   4.164  1.1658 -0.9604 -1.0104
11622TIP3    H256358   4.721   6.328   4.106  0.4604  1.2867  1.0463
11623TIP3   OH256359   1.196   2.122  16.360 -0.2352  0.3313  0.1702
11623TIP3    H156360   1.233   2.188  16.301 -1.9509  0.3972 -0.8619
11623TIP3    H256361   1.269   2.097  16.417  1.4477  0.3255 -1.9327
11624TIP3   OH256362   3.136   2.914  10.937  0.7250 -0.1134  0.2078
11624TIP3    H156363   3.048   2.939  10.964  0.0116 -0.9019 -1.3031
11624TIP3    H256364   3.158   2.838  10.991  1.1159  1.0534  1.6920
11625TIP3   OH256365   6.459   2.254   3.454 -0.1294  0.5713  0.7805
11625TIP3    H156366   6.534   2.283   3.507 -0.1236 -0.4407  1.3315
11625TIP3    H256367   6.402   2.208   3.515 -0.7256  0.4717  0.1586
11626TIP3   OH256368   3.794   4.939  16.172  0.2601 -0.5239 -0.9355
11626TIP3    H156369   3.821   4.850  16.150 -2.3538 -1.5906  0.0323
11626TIP3    H256370   3.825   4.952  16.262 -2.2867 -1.7289  0.1578
11627TIP3   OH256371   4.843   5.798   1.027  0.6470  0.7341 -0.2638
11627TIP3    H156372   4.867   5.877   1.076  0.5440  2.2081 -2.4887
11627TIP3    H256373   4.749   5.808   1.011  0.6047  0.0906 -0.4341
11628TIP3   OH256374   0.557   5.966  10.711 -0.4764  0.4986 -0.0300
11628TIP3    H156375   0.462   5.951  10.707 -0.4047  0.0933 -0.1614
11628TIP3    H256376   0.596   5.885  10.679  0.0109 -0.8687  3.8611
11629TIP3   OH256377   1.123   4.487  11.908 -0.7880 -0.1549 -0.1245
11629TIP3    H156378   1.190   4.541  11.867 -0.5180  1.1583  1.9551
11629TIP3    H256379   1.172   4.425  11.962 -1.2116  1.1963  1.8726
11630TIP3   OH256380   2.380   4.583  14.198  0.3056  0.0385 -0.7219
11630TIP3    H156381   2.408   4.558  14.286  1.8580 -0.1596 -1.2513
11630TIP3    H256382   2.444   4.648  14.170 -3.5739  4.7356  0.5639
11631TIP3   OH256383   6.347   3.640   5.253  0.3005  0.0688  0.3942
11631TIP3    H156384   6.361   3.710   5.189  1.6789 -1.6484 -1.2589
11631TIP3    H256385   6.353   3.683   5.338 -1.2492  2.3591 -0.6098
11632TIP3   OH256386   0.226   1.463   5.556 -0.0026 -0.3668  0.3926
11632TIP3    H156387   0.222   1.368   5.544  0.6149 -0.1041 -2.2490
11632TIP3    H256388   0.212   1.499   5.468  1.9992  1.9036  0.9475
11633TIP3   OH256389   3.312   2.289   2.603  0.0106 -0.2407 -0.3890
11633TIP3    H156390   3.371   2.360   2.578 -0.0616  0.2711  0.8488
11633TIP3    H256391   3.363   2.209   2.590  1.1100  0.2210  0.9807
11634TIP3   OH256392   1.182   4.928  11.284  0.1483  0.1981 -0.0176
11634TIP3    H156393   1.254   4.879  11.244 -0.4909 -1.1028  0.3945
11634TIP3    H256394   1.161   4.878  11.363 -2.3981 -0.4330 -1.0633
11635TIP3   OH256395   5.840   2.976   0.757  0.2162  0.2838  0.0240
11635TIP3    H156396   5.785   2.899   0.773 -1.5241  1.3699 -0.5848
11635TIP3    H256397   5.854   2.976   0.663 -0.9792  1.4637 -0.1807
11636TIP3   OH256398   1.864   4.669  12.540  0.2741 -0.2736 -0.6845
11636TIP3    H156399   1.860   4.745  12.597  1.1661 -1.3927  0.8986
11636TIP3    H256400   1.876   4.595  12.599  1.3802 -1.4380 -2.3303
11637TIP3   OH256401   0.831   2.903   6.714  0.0008  0.2309  0.3073
11637TIP3    H156402   0.904   2.936   6.662  0.6805  0.1558  1.1913
11637TIP3    H256403   0.865   2.824   6.756 -1.1847 -0.8274 -0.7182
11638TIP3   OH256404   5.239   2.913  16.625 -0.4311  0.0223 -0.3846
11638TIP3    H156405   5.189   2.895  16.704 -0.4401 -0.6700 -0.5489
11638TIP3    H256406   5.200   2.856  16.558  1.3171 -1.3701 -0.2452
11639TIP3   OH256407   0.928   4.474  14.275 -0.3184 -0.3626 -0.5024
11639TIP3    H156408   0.922   4.526  14.356  1.6070 -0.4994 -0.2489
11639TIP3    H256409   0.941   4.539  14.206 -1.9217 -0.2496 -0.7387
11640TIP3   OH256410   4.139   0.287   6.526  0.3742  0.0028 -0.2457
11640TIP3    H156411   4.092   0.285   6.609 -0.8489 -1.4489 -0.9442
11640TIP3    H256412   4.147   0.380   6.505 -0.4909  0.3299  0.8417
11641TIP3   OH256413   5.922   4.572  16.168 -0.0490  0.0378 -0.0466
11641TIP3    H156414   5.920   4.481  16.139 -0.3525 -0.7982  2.4500
11641TIP3    H256415   5.836   4.607  16.146  0.5740  0.1973 -2.3547
11642TIP3   OH256416   4.388   3.876   6.160 -0.0006 -0.0159 -0.1285
11642TIP3    H156417   4.352   3.802   6.112 -1.0039 -0.3707  1.1451
11642TIP3    H256418   4.470   3.843   6.198  0.0978 -0.1461 -0.4551
11643TIP3   OH256419   6.355   5.769   4.525 -0.4650  0.4399  0.2184
11643TIP3    H156420   6.288   5.719   4.478  0.0822 -0.2556  0.1597
11643TIP3    H256421   6.390   5.830   4.460  0.9413 -1.1569 -0.5794
11644TIP3   OH256422   1.758   3.801  12.208  0.5378 -0.1052 -0.2765
11644TIP3    H156423   1.841   3.800  12.255 -0.1630  1.2963  1.0004
11644TIP3    H256424   1.707   3.870  12.250 -0.9832 -0.4267 -1.5613
11645TIP3   OH256425   6.525   4.031   6.052  0.2603 -0.2364 -0.0000
11645TIP3    H156426   6.553   4.062   6.138  0.6679 -3.0867  0.9392
11645TIP3    H256427   6.510   3.937   6.064 -0.7000 -0.4798 -2.7885
11646TIP3   OH256428   0.190   2.040  13.732  0.3222  0.1982  0.0166
11646TIP3    H156429   0.181   2.071  13.642 -0.1541  1.2558  0.4241
11646TIP3    H256430   0.273   1.992  13.732  0.5500  0.5725 -0.8677
11647TIP3   OH256431   0.445   4.763  13.926  0.3004 -0.2489  0.3692
11647TIP3    H156432   0.475   4.738  14.013 -1.7875 -0.0007  1.1906
11647TIP3    H256433   0.357   4.727  13.919 -0.5791  1.9873 -0.5937
11648TIP3   OH256434   5.591   1.077  16.271 -0.0347  0.0891 -0.4260
11648TIP3    H156435   5.525   1.038  16.213 -0.1403  1.1394 -1.0261
11648TIP3    H256436   5.648   1.126  16.211  1.2467 -0.7526  0.0931
11649TIP3   OH256437   2.543   5.433   2.570 -0.3775  0.1940 -0.1764
11649TIP3    H156438   2.467   5.481   2.537 -0.7113 -0.5413 -0.4911
11649TIP3    H256439   2.566   5.374   2.498  0.8311  0.8054 -0.2990
11650TIP3   OH256440   3.155   2.644  12.225 -0.4611  0.5877  0.0477
11650TIP3    H156441   3.162   2.548  12.219  0.3028  0.5750  0.9721
11650TIP3    H256442   3.110   2.670  12.144  0.4121 -0.4354 -0.7790
11651TIP3   OH256443   2.828   4.987   2.589 -0.6367 -0.0280 -0.4128
11651TIP3    H156444   2.825   4.923   2.660 -0.4902 -1.2318 -1.4595
11651TIP3    H256445   2.912   5.031   2.599 -0.9101  0.2830  0.5540
11652TIP3   OH256446   4.942   1.446   1.545  0.7468  0.0617 -0.3168
11652TIP3    H156447   5.000   1.445   1.469  1.4477 -1.8432  0.2166
11652TIP3    H256448   4.954   1.360   1.585 -2.7688 -0.5495 -0.4407
11653TIP3   OH256449   3.357   5.196   3.989  1.1115  0.2035  0.1446
11653TIP3    H156450   3.340   5.156   3.903 -1.4863  1.0312  0.2081
11653TIP3    H256451   3.398   5.126   4.040  1.0101 -0.8836 -1.2086
11654TIP3   OH256452   2.949   5.845  17.025 -0.8510  0.3521 -0.1806
11654TIP3    H156453   2.860   5.850  17.059 -0.3540 -2.0394  1.6160
11654TIP3    H256454   2.989   5.929  17.050 -2.3120  1.0983 -0.2754
11655TIP3   OH256455   4.298   5.302   5.304  0.0297 -0.1798  0.2378
11655TIP3    H156456   4.226   5.253   5.344  1.0241 -1.0898  0.9362
11655TIP3    H256457   4.366   5.237   5.288  0.4335  0.5360 -1.1085
11656TIP3   OH256458   1.867   0.016  16.106 -0.0605  0.0545 -0.0121
11656TIP3    H156459   1.895  -0.019  16.021 -0.5872  0.0600 -0.1847
11656TIP3    H256460   1.789   0.067  16.086  0.8302  1.5540  0.1912
11657TIP3   OH256461   5.241   1.965   3.970  0.3599 -0.2691 -0.5924
11657TIP3    H156462   5.155   1.925   3.982  0.9701 -1.8788 -1.3488
11657TIP3    H256463   5.278   1.969   4.058  0.3499 -1.5583 -0.5162
11658TIP3   OH256464   4.840   0.522   0.819 -0.3317 -0.3167 -0.2228
11658TIP3    H156465   4.887   0.543   0.738 -1.5603 -1.0680 -1.1370
11658TIP3    H256466   4.790   0.444   0.798  0.1622 -1.1420  1.6040
11659TIP3   OH256467   2.595   2.000   4.602 -0.0327 -0.3307  0.5135
11659TIP3    H156468   2.535   2.010   4.676  0.5962  2.2817  0.7422
11659TIP3    H256469   2.558   2.057   4.534  1.9849  1.1323  0.5775
11660TIP3   OH256470   1.169   3.442   2.966 -0.3471 -0.2388  0.2796
11660TIP3    H156471   1.146   3.532   2.943 -0.4049 -0.3040  0.0828
11660TIP3    H256472   1.188   3.399   2.883  1.1912  0.0029  0.4926
11661TIP3   OH256473   5.932   6.548  16.584 -0.1961  0.0264  0.0380
11661TIP3    H156474   6.019   6.538  16.623  0.3690  0.8390 -0.9839
11661TIP3    H256475   5.877   6.487  16.633  0.6066  0.6106  1.7147
11662TIP3   OH256476   1.955   3.204   0.827 -0.1314  0.0950  0.4608
11662TIP3    H156477   1.915   3.204   0.740  0.7471 -0.2695  0.0442
11662TIP3    H256478   2.043   3.240   0.812 -1.0396  2.9312  1.7132
11663TIP3   OH256479   0.255   4.287   1.710 -0.3755  0.0335  0.0325
11663TIP3    H156480   0.309   4.210   1.728 -1.1699 -0.8018 -1.0628
11663TIP3    H256481   0.194   4.291   1.783 -0.9623 -0.9556 -0.3918
11664TIP3   OH256482   6.261   6.126   0.326 -0.4021  0.2560  0.4310
11664TIP3    H156483   6.279   6.043   0.283  1.3651  0.5709  0.5536
11664TIP3    H256484   6.178   6.155   0.287 -0.6807 -1.2197 -0.1068
11665TIP3   OH256485   6.012   3.159   6.292  0.2071 -0.0286  0.2549
11665TIP3    H156486   6.081   3.093   6.288 -0.3017 -0.5435 -0.0017
11665TIP3    H256487   5.931   3.109   6.301 -0.1425  0.5723  0.4804
11666TIP3   OH256488   0.491   0.482   0.598 -0.2636 -0.4464  0.1054
11666TIP3    H156489   0.408   0.530   0.590 -0.3151 -0.8168 -1.9592
11666TIP3    H256490   0.556   0.541   0.560  0.1283 -0.8574  0.1431
11667TIP3   OH256491   2.450   5.409   1.937 -0.3015 -0.3590  0.1527
11667TIP3    H156492   2.453   5.313   1.927 -2.1395 -0.4148 -0.1824
11667TIP3    H256493   2.414   5.440   1.854  0.9038  0.6962  0.0081
11668TIP3   OH256494   2.292   2.922  16.179  0.0624 -0.7371 -0.2306
11668TIP3    H156495   2.259   2.835  16.159 -0.4367 -0.1131 -2.2912
11668TIP3    H256496   2.385   2.919  16.157 -0.2443 -0.3825 -1.6483
11669TIP3   OH256497   0.989   1.381   3.076 -0.3371  0.1111 -0.4501
11669TIP3    H156498   0.903   1.338   3.078 -0.8933  1.2244 -0.3906
11669TIP3    H256499   0.969   1.474   3.076  0.8848  0.3763 -0.0453
11670TIP3   OH256500   1.888   0.679  14.623 -0.2685  0.7061 -0.0271
11670TIP3    H156501   1.860   0.588  14.614 -3.7135  1.6334  0.5018
11670TIP3    H256502   1.939   0.681  14.705 -0.6813 -0.6335  0.2724
11671TIP3   OH256503   0.745   1.839   3.833  0.2415 -0.0409  0.4803
11671TIP3    H156504   0.685   1.891   3.886  0.1236 -0.0621  0.3692
11671TIP3    H256505   0.759   1.892   3.754  0.3155 -0.0665  0.4755
11672TIP3   OH256506   0.067   6.014   2.853  0.0892 -0.1598  0.0165
11672TIP3    H156507   0.084   6.095   2.901  1.4717 -0.8754  0.7965
11672TIP3    H256508   0.082   5.945   2.918  0.7129 -1.0982 -1.1038
11673TIP3   OH256509   4.946   4.037  16.158 -0.2240  0.3821  0.4393
11673TIP3    H156510   4.969   3.984  16.082  3.7869  3.0691 -0.4358
11673TIP3    H256511   5.026   4.038  16.212 -1.2378  2.8055  2.0279
11674TIP3   OH256512   6.408   6.115   2.067 -0.3472  0.1268  0.3646
11674TIP3    H156513   6.363   6.038   2.033 -0.9601  0.9620 -0.7317
11674TIP3    H256514   6.500   6.088   2.072 -0.3952 -0.3585 -1.0046
11675TIP3   OH256515   1.501   0.551   4.116 -0.2718  0.7328  0.7090
11675TIP3    H156516   1.425   0.501   4.147  0.9913 -0.8555  1.3057
11675TIP3    H256517   1.573   0.523   4.172  1.1139  1.0149 -0.8862
11676TIP3   OH256518   0.299   0.918   4.616  0.6941 -0.1830 -0.5593
11676TIP3    H156519   0.344   0.839   4.587  0.8719 -0.5512  0.6833
11676TIP3    H256520   0.365   0.987   4.607  0.5459 -0.1726 -1.6250
11677TIP3   OH256521   5.618   1.828  12.129 -0.4248 -0.2624  0.2207
11677TIP3    H156522   5.590   1.895  12.066  0.3806 -0.7422 -0.6394
11677TIP3    H256523   5.680   1.874  12.186  1.5904 -0.7367 -1.5266
11678TIP3   OH256524   5.107   1.962  13.348  0.4799 -0.1277  0.5281
11678TIP3    H156525   5.168   1.983  13.420  0.6602 -0.3429  0.4355
11678TIP3    H256526   5.123   2.031  13.283  0.0063  0.3268  0.8811
11679TIP3   OH256527   6.160   4.132  11.105  0.3169 -0.0191 -0.2258
11679TIP3    H156528   6.142   4.144  11.012 -3.1087 -1.4294  0.1867
11679TIP3    H256529   6.079   4.159  11.149  1.3826 -0.7031  2.2319
11680TIP3   OH256530   3.643   6.076   0.934 -0.1693 -0.5940 -0.2845
11680TIP3    H156531   3.615   5.989   0.904  0.5254 -1.1530  0.6540
11680TIP3    H256532   3.565   6.113   0.975 -0.2608 -1.1065  0.0183
11681TIP3   OH256533   6.607   4.420  12.264  0.6332  0.4024 -0.3118
11681TIP3    H156534   6.596   4.391  12.173 -0.0653  2.0841 -0.7760
11681TIP3    H256535   6.691   4.465  12.265  0.8918 -0.0801  0.0083
11682TIP3   OH256536   2.208   3.441  16.070 -0.4690  0.0305  0.4676
11682TIP3    H156537   2.169   3.466  16.154 -1.2058 -1.3591  0.5598
11682TIP3    H256538   2.289   3.396  16.093 -0.4053  0.1140  0.4078
11683TIP3   OH256539   3.905   2.442   2.829 -0.1006  0.2146  0.6443
11683TIP3    H156540   3.946   2.487   2.902  0.3946 -0.9698  1.1118
11683TIP3    H256541   3.951   2.475   2.752 -1.4736  2.4004  0.7339
11684TIP3   OH256542   0.760   1.961  10.690 -0.2267  1.1957  0.1192
11684TIP3    H156543   0.671   1.958  10.656  0.4847  0.4437 -1.7507
11684TIP3    H256544   0.753   1.922  10.777 -1.4312 -0.5362 -0.7171
11685TIP3   OH256545   0.161   5.061   3.412  0.0011  0.3334  0.4915
11685TIP3    H156546   0.240   5.032   3.367  0.0340 -0.7581  1.2360
11685TIP3    H256547   0.166   5.020   3.498 -0.9803  0.9112  0.8327
11686TIP3   OH256548   3.268   3.355  14.131  0.4433 -0.1266  0.1022
11686TIP3    H156549   3.274   3.451  14.140 -0.0093 -0.1062  0.2494
11686TIP3    H256550   3.358   3.325  14.129  0.5904  0.2361  0.9031
11687TIP3   OH256551   4.507   1.470  17.100 -0.6390 -0.6232 -0.2197
11687TIP3    H156552   4.590   1.436  17.068 -0.8092  0.8015 -2.3131
11687TIP3    H256553   4.523   1.493  17.192  1.5178  0.3411 -0.7995
11688TIP3   OH256554   5.198   4.485  11.078 -0.0768  0.8870  0.0125
11688TIP3    H156555   5.143   4.407  11.078  0.7349  0.3067  0.3858
11688TIP3    H256556   5.201   4.512  10.987 -0.6445  0.6779 -0.0685
11689TIP3   OH256557   2.673   2.835  15.882 -0.3711  0.2308 -0.4188
11689TIP3    H156558   2.652   2.774  15.812 -0.9637  0.8557 -0.7854
11689TIP3    H256559   2.756   2.803  15.917 -0.9146 -1.0720 -0.2809
11690TIP3   OH256560   1.080   4.909   2.294  0.0623  0.1140  0.0080
11690TIP3    H156561   1.121   4.823   2.282  1.4384  1.0774 -2.5578
11690TIP3    H256562   1.008   4.911   2.231 -0.0281  0.8129  0.1281
11691TIP3   OH256563   6.665   5.250   0.093  0.1567 -0.1372 -0.2217
11691TIP3    H156564   6.639   5.337   0.064 -0.3876 -0.2434 -0.0708
11691TIP3    H256565   6.620   5.190   0.034  1.7030 -0.2965 -1.2542
11692TIP3   OH256566   0.767   3.816   3.409  0.2724 -0.6817  0.2596
11692TIP3    H156567   0.798   3.892   3.360 -1.2845  0.6467  1.2849
11692TIP3    H256568   0.791   3.741   3.354  0.9218  0.6006 -1.2594
11693TIP3   OH256569   2.925   0.071   1.809 -0.7424 -0.0979  0.1552
11693TIP3    H156570   2.947  -0.010   1.857 -0.2487 -0.7029 -1.0673
11693TIP3    H256571   2.964   0.141   1.861  1.9355 -0.9549 -0.6194
11694TIP3   OH256572   1.875   1.343   4.428  0.3009 -0.3679 -0.1371
11694TIP3    H156573   1.781   1.355   4.443  0.2406 -0.9492 -0.0278
11694TIP3    H256574   1.908   1.431   4.410  0.4166  0.4549  3.6425
11695TIP3   OH256575   6.029   4.806   3.340 -0.3300 -0.4117 -0.3414
11695TIP3    H156576   6.117   4.817   3.376  0.0550 -0.6458 -1.1965
11695TIP3    H256577   6.013   4.712   3.344 -0.5894 -0.3551 -0.0672
11696TIP3   OH256578   0.090   2.368  14.409 -0.3967 -0.1731 -0.2224
11696TIP3    H156579   0.091   2.272  14.398  0.4082 -0.1299 -0.5419
11696TIP3    H256580   0.008   2.385  14.456 -1.1959 -0.8949 -1.3047
11697TIP3   OH256581   5.858   0.474   0.713 -0.3202  0.0948  0.3745
11697TIP3    H156582   5.908   0.462   0.632  0.1431 -0.2427  0.7080
11697TIP3    H256583   5.817   0.389   0.728 -0.7823  0.2913  0.2496
11698TIP3   OH256584   6.380   1.435  16.583  0.0390  0.4509 -0.2657
11698TIP3    H156585   6.350   1.355  16.626 -0.6232  0.2333 -1.1300
11698TIP3    H256586   6.473   1.419  16.567 -0.3017 -0.5562 -1.3274
11699TIP3   OH256587   2.503   5.916   0.242  0.4548 -0.1907 -0.5500
11699TIP3    H156588   2.444   5.843   0.224  0.6184 -0.2269 -0.9509
11699TIP3    H256589   2.555   5.925   0.162  0.4510  0.3521 -0.4960
11700TIP3   OH256590   5.306   4.852   3.726 -0.2790 -0.0262 -0.0696
11700TIP3    H156591   5.307   4.919   3.658  0.5845  1.5560  1.4789
11700TIP3    H256592   5.365   4.784   3.693  0.6178  1.0071 -0.6337
11701TIP3   OH256593   6.684   2.332  13.956 -0.0826 -0.5793  0.1089
11701TIP3    H156594   6.629   2.309  14.031  0.5669 -1.9727  0.1770
11701TIP3    H256595   6.745   2.397  13.991  0.5011 -1.5414  0.9423
11702TIP3   OH256596   0.154   0.158  15.299  0.1629  0.5532  0.0263
11702TIP3    H156597   0.068   0.180  15.262  0.6715  0.1255 -1.4396
11702TIP3    H256598   0.139   0.075  15.344 -0.5635  1.2941  1.1811
11703TIP3   OH256599   3.093   1.899   0.457 -0.1657 -1.1109 -0.2273
11703TIP3    H156600   3.182   1.872   0.435 -0.4791 -0.0262 -2.9887
11703TIP3    H256601   3.087   1.990   0.429 -0.9370  0.1333  3.6614
11704TIP3   OH256602   6.392   3.615   0.051  0.1976  0.1655 -0.6342
11704TIP3    H156603   6.427   3.677   0.115 -0.7181  0.4984 -0.4465
11704TIP3    H256604   6.298   3.614   0.067  0.3227 -2.2033  0.1824
11705TIP3   OH256605   1.045   0.817   4.924 -0.0068 -0.0258  0.2313
11705TIP3    H156606   0.975   0.813   4.990  0.7247 -3.5837  0.9377
11705TIP3    H256607   1.118   0.858   4.969  0.0293 -1.1409  1.2329
11706TIP3   OH256608   6.152   5.152  13.422 -0.4570 -0.0116  0.0854
11706TIP3    H156609   6.103   5.117  13.348  0.7512 -0.3186 -0.5803
11706TIP3    H256610   6.234   5.184  13.384 -0.3718  1.0333  1.0911
11707TIP3   OH256611   0.201   4.715   5.121 -0.3164 -0.0030 -0.1367
11707TIP3    H156612   0.177   4.623   5.115  1.1636 -0.4610  0.7277
11707TIP3    H256613   0.232   4.737   5.033  1.5800 -0.9992  0.2599
11708TIP3   OH256614   2.683   5.305   5.921  0.3290 -0.1764 -1.0890
11708TIP3    H156615   2.674   5.365   5.994  4.3261 -1.2261  0.4204
11708TIP3    H256616   2.656   5.220   5.956  1.1674 -0.4732 -1.1419
11709TIP3   OH256617   4.565   1.878   1.482  0.5755  0.3326  0.0973
11709TIP3    H156618   4.655   1.913   1.481  1.0070 -0.7420 -1.6807
11709TIP3    H256619   4.533   1.892   1.393 -0.3961 -0.8401  0.2446
11710TIP3   OH256620   2.793   5.558   4.883 -0.3791 -0.9298 -0.3530
11710TIP3    H156621   2.877   5.593   4.915 -0.5196 -0.2568 -0.7085
11710TIP3    H256622   2.784   5.474   4.927  0.0724 -0.6180  0.3494
11711TIP3   OH256623   3.022   2.286   4.253 -0.1706 -0.1218  0.2110
11711TIP3    H156624   3.030   2.195   4.224 -0.8345  0.1680 -0.8698
11711TIP3    H256625   3.040   2.282   4.347  0.2516 -1.3044  0.0916
11712TIP3   OH256626   6.427   5.377  12.605 -0.4334  0.3578 -0.3539
11712TIP3    H156627   6.494   5.332  12.656 -0.0911 -0.3066 -1.3692
11712TIP3    H256628   6.349   5.374  12.660  0.4675  1.5040  1.0124
11713TIP3   OH256629   6.533   4.717   5.470  0.2472 -0.4443  0.7400
11713TIP3    H156630   6.551   4.811   5.479 -2.9057  0.2542  0.5342
11713TIP3    H256631   6.522   4.704   5.376  0.2355 -0.9351  0.8122
11714TIP3   OH256632   4.733   5.483  12.843  0.3467  0.3295 -0.1653
11714TIP3    H156633   4.781   5.405  12.816 -0.2113  0.1199 -0.5700
11714TIP3    H256634   4.785   5.520  12.915  2.0862  1.1138 -1.7810
11715TIP3   OH256635   3.865   6.595   5.749 -0.2191  0.0453 -0.5290
11715TIP3    H156636   3.815   6.645   5.684 -0.2069  0.3547 -0.3017
11715TIP3    H256637   3.846   6.503   5.729 -3.8099  0.1878  1.8398
11716TIP3   OH256638   1.409   1.858   0.804 -0.0399 -0.5096  0.2079
11716TIP3    H156639   1.482   1.797   0.815  1.1242  0.4788 -1.7318
11716TIP3    H256640   1.447   1.944   0.820 -1.5162 -0.2146  2.2458
11717TIP3   OH256641   3.707   1.523   5.621 -0.1707  0.3010  0.0260
11717TIP3    H156642   3.658   1.575   5.559 -0.5379  0.0024  0.0618
11717TIP3    H256643   3.796   1.521   5.586 -0.0235  1.4125  0.3182
11718TIP3   OH256644   3.573   5.367   4.356 -0.5653  0.1520 -0.1551
11718TIP3    H156645   3.641   5.393   4.295 -1.1021 -1.3770 -1.4554
11718TIP3    H256646   3.611   5.294   4.405 -0.9827 -0.2194 -0.3722
11719TIP3   OH256647   2.672   1.934   3.530  0.2217 -0.0025  0.1736
11719TIP3    H156648   2.659   1.914   3.623  0.9883  0.8125  0.4689
11719TIP3    H256649   2.761   1.969   3.526 -0.0696  0.6312 -0.7674
11720TIP3   OH256650   2.990   1.963   2.994  0.1534 -0.1036  0.2298
11720TIP3    H156651   2.972   1.871   3.014 -0.4664 -0.4364 -1.7879
11720TIP3    H256652   3.085   1.970   2.997  0.1340 -0.4213  1.9957
11721TIP3   OH256653   2.681   5.265   0.285  0.0163  0.3030  0.3014
11721TIP3    H156654   2.755   5.205   0.290  1.5198  2.2233  1.4519
11721TIP3    H256655   2.645   5.250   0.197  0.7688 -1.7608  0.3072
11722TIP3   OH256656   1.544   1.336  12.517 -0.3344 -0.0091  0.1022
11722TIP3    H156657   1.478   1.287  12.467  1.5821 -3.3392  0.6937
11722TIP3    H256658   1.628   1.309  12.479  1.0307 -0.8353  3.5535
11723TIP3   OH256659   0.772   2.380   5.869 -0.5919 -0.0822 -0.2411
11723TIP3    H156660   0.821   2.371   5.951  1.3377  0.3360 -1.3015
11723TIP3    H256661   0.702   2.442   5.889 -0.1216  0.0371  1.0855
11724TIP3   OH256662   4.400   1.257  15.866  0.2861  0.3863  0.4453
11724TIP3    H156663   4.455   1.331  15.842  0.5760 -0.0195 -0.1436
11724TIP3    H256664   4.337   1.250  15.794  0.8334 -0.5121  0.0565
11725TIP3   OH256665   2.222   2.386   2.120  0.0101 -0.1947  0.1650
11725TIP3    H156666   2.135   2.426   2.123 -0.2792 -0.8719  3.7541
11725TIP3    H256667   2.246   2.386   2.027 -3.5903  0.4731 -0.8423
11726TIP3   OH256668   6.595   5.159  15.188 -0.6512  0.0290  0.2692
11726TIP3    H156669   6.612   5.236  15.134  0.0569 -0.4709 -0.2393
11726TIP3    H256670   6.635   5.087  15.140 -2.4800 -0.8866  0.0645
11727TIP3   OH256671   5.287   6.266  15.401  0.6955 -0.0835  0.3638
11727TIP3    H156672   5.305   6.229  15.487 -1.2476  0.2798  0.9516
11727TIP3    H256673   5.215   6.213  15.367 -2.0541  3.0145  1.1577
11728TIP3   OH256674   3.047   3.378   0.484 -0.5986 -0.2742  0.2342
11728TIP3    H156675   3.077   3.444   0.547 -0.9010  1.7800 -1.7051
11728TIP3    H256676   2.973   3.420   0.440 -1.5191 -2.3766 -0.2604
11729TIP3   OH256677   5.647   2.116  15.372  0.0172 -0.2298  0.1552
11729TIP3    H156678   5.614   2.206  15.381  0.8404  0.0734  0.1383
11729TIP3    H256679   5.587   2.075  15.310  1.1316  1.0623 -1.8171
11730TIP3   OH256680   4.591   1.068  14.561 -0.1463  0.5830  0.0803
11730TIP3    H156681   4.678   1.100  14.539  0.0576  0.7876  1.1565
11730TIP3    H256682   4.561   1.124  14.632 -0.2455 -0.8756  1.2085
11731TIP3   OH256683   4.938   0.328  14.237  0.0648  0.3825 -0.1353
11731TIP3    H156684   4.990   0.373  14.170 -0.2771 -1.4914 -1.7180
11731TIP3    H256685   4.853   0.373  14.236  0.6304  1.4745  0.2865
11732TIP3   OH256686   3.204   1.749   2.772 -0.1906 -0.1249 -0.1823
11732TIP3    H156687   3.281   1.729   2.825 -0.6047 -0.8795  0.1398
11732TIP3    H256688   3.229   1.724   2.683  0.3613  0.7642 -0.2796
11733TIP3   OH256689   5.077   3.015  10.430 -0.0105 -0.0795  0.4350
11733TIP3    H156690   4.992   3.048  10.400  0.0376  1.0448  1.4862
11733TIP3    H256691   5.099   2.945  10.368 -0.0052  2.0538 -2.0520
11734TIP3   OH256692   5.655   0.030   0.415  0.2011 -0.5570 -0.2696
11734TIP3    H156693   5.666   0.097   0.348 -2.3361 -0.6022 -0.7473
11734TIP3    H256694   5.652  -0.052   0.367  0.7622 -0.8152  0.1218
11735TIP3   OH256695   5.110   6.387  11.172  0.2750 -0.4622  0.1716
11735TIP3    H156696   5.098   6.292  11.160  0.4375 -0.2873 -1.4768
11735TIP3    H256697   5.022   6.421  11.187  0.2670 -0.9240  1.2379
11736TIP3   OH256698   0.050   2.888   0.565 -0.4341  0.2510 -0.1028
11736TIP3    H156699   0.107   2.841   0.505  0.4913 -1.5539  2.0981
11736TIP3    H256700   0.110   2.932   0.626 -1.3460  0.3860  0.7177
11737TIP3   OH256701   0.725   1.410   4.191  0.0117 -0.1651  0.6504
11737TIP3    H156702   0.740   1.467   4.115  1.5343 -0.1231  0.9515
11737TIP3    H256703   0.674   1.337   4.157 -1.0754  0.8675  0.0387
11738TIP3   OH256704   3.433   2.309   0.137 -0.2798  0.1210  0.4364
11738TIP3    H156705   3.473   2.285   0.053  1.2008  0.6855  0.9624
11738TIP3    H256706   3.416   2.403   0.130  0.2541  0.2579  0.9256
11739TIP3   OH256707   3.143   3.110  15.616  0.1524 -0.0365  0.0189
11739TIP3    H156708   3.135   3.205  15.601 -0.6527 -0.1856 -0.5692
11739TIP3    H256709   3.123   3.099  15.709  2.7121  0.6366  0.6747
11740TIP3   OH256710   2.601   5.287   3.385 -0.0905  0.0730  0.4469
11740TIP3    H156711   2.511   5.269   3.414 -0.5103  0.1827 -0.7921
11740TIP3    H256712   2.620   5.374   3.421 -0.5268  0.1165  0.5812
11741TIP3   OH256713   4.078   6.706  15.728  0.1311 -0.5080  0.1583
11741TIP3    H156714   4.109   6.645  15.795 -0.0985 -0.1760  0.5663
11741TIP3    H256715   4.157   6.753  15.700 -0.1232  0.8903  1.7641
11742TIP3   OH256716   1.854   6.236   3.072 -0.0620  0.4009 -0.3238
11742TIP3    H156717   1.937   6.202   3.038 -0.6510 -0.3290 -1.0502
11742TIP3    H256718   1.804   6.260   2.994 -0.8681  0.0358  0.0718
11743TIP3   OH256719   3.058   6.564  13.938  0.3257 -0.0706 -0.0400
11743TIP3    H156720   2.965   6.560  13.961 -0.0808  1.7550 -1.2466
11743TIP3    H256721   3.068   6.499  13.868 -0.8205  2.1073 -2.3003
11744TIP3   OH256722   0.994   1.620   5.228  0.1117 -0.2262  1.4465
11744TIP3    H156723   0.980   1.656   5.316  2.7511  2.2324  0.9531
11744TIP3    H256724   0.955   1.685   5.169  0.9735 -0.3505  0.7205
11745TIP3   OH256725   4.292   6.305   2.597  0.0548  0.0715  0.3676
11745TIP3    H156726   4.208   6.344   2.620  1.0729  1.8528  1.1773
11745TIP3    H256727   4.273   6.249   2.522 -1.1993  3.4776 -1.9874
11746TIP3   OH256728   0.878   3.866   1.476 -0.0879  0.1511  0.4324
11746TIP3    H156729   0.791   3.896   1.449 -0.2401  0.6364  1.4503
11746TIP3    H256730   0.934   3.943   1.469  0.6656 -0.5299 -1.8185
11747TIP3   OH256731   5.041   5.369  15.723 -0.1041  0.1389 -0.3135
11747TIP3    H156732   4.961   5.400  15.680  0.1147 -0.4030 -1.1330
11747TIP3    H256733   5.012   5.343  15.811 -1.0326 -0.9654 -0.9198
11748TIP3   OH256734   2.884   3.342   4.770 -0.3465 -0.1638  0.2055
11748TIP3    H156735   2.950   3.298   4.716 -0.9219 -0.2097 -0.4603
11748TIP3    H256736   2.935   3.385   4.839  0.3414 -0.6097 -0.0185
11749TIP3   OH256737   3.593   1.891   4.846  0.3967 -0.0082 -0.3240
11749TIP3    H156738   3.622   1.970   4.800 -0.0270 -0.4317 -1.3379
11749TIP3    H256739   3.571   1.829   4.776  1.4209 -1.2906  0.4416
11750TIP3   OH256740   6.154   0.189   1.381 -0.1776  0.0302 -0.2857
11750TIP3    H156741   6.121   0.140   1.457 -0.0012  0.4873  0.0888
11750TIP3    H256742   6.088   0.174   1.313  1.1291 -2.7745 -0.9848
11751TIP3   OH256743   3.677   6.661  14.297 -0.0715  0.2497 -0.4150
11751TIP3    H156744   3.743   6.592  14.294 -0.0722  0.1535  1.3055
11751TIP3    H256745   3.606   6.624  14.348 -1.0678  0.6988 -1.4571
11752TIP3   OH256746   3.365   1.997  10.621  0.1879 -0.0530 -0.0228
11752TIP3    H156747   3.294   2.060  10.635 -0.3391 -0.7245  0.3418
11752TIP3    H256748   3.407   2.026  10.540  0.1796  0.9844  0.3350
11753TIP3   OH256749   4.389   3.640  16.667 -0.1527 -0.3524  0.3669
11753TIP3    H156750   4.425   3.561  16.706  0.2883 -0.6911 -0.7267
11753TIP3    H256751   4.425   3.642  16.579 -1.1189  0.4301 -0.0136
11754TIP3   OH256752   4.731   1.282   0.422  0.1900 -0.9323 -0.3902
11754TIP3    H156753   4.721   1.187   0.419  0.9172 -1.0659  0.7915
11754TIP3    H256754   4.701   1.307   0.509  3.4735 -0.5557  0.7118
11755TIP3   OH256755   6.775   3.871  11.539 -0.1553  0.0170 -0.1920
11755TIP3    H156756   6.859   3.881  11.584  0.2071 -0.3101 -0.7895
11755TIP3    H256757   6.790   3.904  11.451  0.0394 -2.2603 -1.0452
11756TIP3   OH256758   2.635   4.376  12.046  0.5169  0.1631 -0.0588
11756TIP3    H156759   2.616   4.458  12.091 -1.7910 -1.2568  1.6756
11756TIP3    H256760   2.559   4.360  11.991  1.3364 -0.3937 -1.0466
11757TIP3   OH256761   5.477   4.120   1.731 -0.3983  0.4998 -0.3963
11757TIP3    H156762   5.478   4.214   1.715  0.8549  0.9154  1.8592
11757TIP3    H256763   5.569   4.093   1.720 -0.2804  0.0408  1.5049
11758TIP3   OH256764   0.872   3.478   3.393 -0.4982 -0.0312  0.4321
11758TIP3    H156765   0.964   3.497   3.411 -0.3577 -0.6391  0.3567
11758TIP3    H256766   0.873   3.392   3.351 -0.9906  0.5041 -0.6908
11759TIP3   OH256767   5.731   1.640  12.411  0.4235 -0.1403  0.0851
11759TIP3    H156768   5.649   1.591  12.404  0.7733 -0.4125 -3.1389
11759TIP3    H256769   5.731   1.675  12.500 -2.0268 -2.1442  0.9383
11760TIP3   OH256770   5.702   0.605   1.513 -0.2203  0.7558  0.4291
11760TIP3    H156771   5.645   0.636   1.443 -1.1181 -1.0598  0.3122
11760TIP3    H256772   5.671   0.649   1.592  0.9980  3.0534 -0.3328
11761TIP3   OH256773   1.319   6.773  15.130 -0.2290 -0.1463 -0.1167
11761TIP3    H156774   1.371   6.719  15.070 -1.4240 -2.3466  0.7406
11761TIP3    H256775   1.311   6.720  15.209 -3.2490  0.3360 -0.0126
11762TIP3   OH256776   3.516   2.887  11.646  0.5080 -0.5880  0.4640
11762TIP3    H156777   3.469   2.931  11.717 -1.0213  1.9787 -2.0453
11762TIP3    H256778   3.572   2.954  11.608 -1.1659 -0.9664 -2.8521
11763TIP3   OH256779   5.195   4.075   1.670  0.6659 -0.2509  0.1410
11763TIP3    H156780   5.284   4.111   1.673  0.8433 -0.7598  1.0972
11763TIP3    H256781   5.167   4.090   1.580  1.0638  1.4958  0.2808
11764TIP3   OH256782   1.334   6.074  13.479 -0.0087 -0.1647 -0.3143
11764TIP3    H156783   1.289   6.158  13.488 -1.7565 -1.0198 -0.6983
11764TIP3    H256784   1.398   6.088  13.409  0.9617  1.3265  0.8451
11765TIP3   OH256785   1.094   1.144   6.381 -0.1308  0.0580 -0.7726
11765TIP3    H156786   1.036   1.194   6.323  1.3494 -0.6637 -2.9781
11765TIP3    H256787   1.166   1.204   6.400 -0.4471  0.1767  0.0715
11766TIP3   OH256788   1.472   4.200   0.186  0.0931 -0.4484  0.7079
11766TIP3    H156789   1.398   4.146   0.213  1.1853 -1.3829  1.9002
11766TIP3    H256790   1.474   4.193   0.091 -0.6777 -1.3153  0.7538
11767TIP3   OH256791   3.582   4.290  12.488  0.3569 -0.4192  0.0674
11767TIP3    H156792   3.555   4.276  12.578 -0.4339  0.0904 -0.0886
11767TIP3    H256793   3.629   4.374  12.489 -0.8894  0.2899 -0.2494
11768TIP3   OH256794   6.020   3.612  15.103 -0.2493  0.1218 -0.1046
11768TIP3    H156795   6.011   3.526  15.062  0.8864  0.0619 -0.2449
11768TIP3    H256796   5.971   3.671  15.047  0.4164 -0.1396 -0.9689
11769TIP3   OH256797   0.322   2.184   3.217  0.1436 -0.1642 -1.0432
11769TIP3    H156798   0.286   2.271   3.197  1.2105  0.3194 -0.9042
11769TIP3    H256799   0.245   2.129   3.232 -0.5354  0.9732 -0.2518
11770TIP3   OH256800   5.884   2.500   6.160 -0.6155 -0.0657 -0.3869
11770TIP3    H156801   5.857   2.560   6.091 -0.5873  0.8425  0.3851
11770TIP3    H256802   5.802   2.466   6.196 -0.6567  0.2475 -0.1822
11771TIP3   OH256803   3.972   2.026  15.834 -0.3903  0.2093 -0.6551
11771TIP3    H156804   4.013   2.110  15.855  0.7733 -0.4292 -0.3036
11771TIP3    H256805   4.044   1.972  15.801 -1.2813 -0.3911 -1.6550
11772TIP3   OH256806   3.748   3.138  11.741  0.2633  0.7734 -0.4189
11772TIP3    H156807   3.739   3.150  11.647 -0.8202  0.3587 -0.3840
11772TIP3    H256808   3.834   3.173  11.763  0.8757  0.0743 -1.7010
11773TIP3   OH256809   4.340   6.384   3.219  0.4421  0.2530  0.3404
11773TIP3    H156810   4.293   6.418   3.295  0.6313  1.4754 -0.0891
11773TIP3    H256811   4.432   6.380   3.248  0.1242 -2.0367  1.1443
11774TIP3   OH256812   2.900   4.252  11.805 -0.2307 -0.4312  0.2003
11774TIP3    H156813   2.981   4.304  11.798 -0.7987  0.3419 -0.7670
11774TIP3    H256814   2.919   4.172  11.756 -0.3175  0.1028 -0.7249
11775TIP3   OH256815   3.677   3.077   4.321 -0.2708 -0.9686 -0.0241
11775TIP3    H156816   3.737   3.090   4.247 -0.6474 -0.1130 -0.1916
11775TIP3    H256817   3.608   3.020   4.286  1.1609 -3.1039  0.5778
11776TIP3   OH256818   5.806   0.186   0.791  0.6855 -0.3522 -0.4950
11776TIP3    H156819   5.895   0.211   0.816  0.7363 -0.3930 -0.6305
11776TIP3    H256820   5.770   0.141   0.867  0.2833  0.9126  0.0747
11777TIP3   OH256821   5.677   2.503   3.496 -0.2896 -0.5189 -0.1441
11777TIP3    H156822   5.659   2.589   3.456 -1.2577 -0.5237  0.2582
11777TIP3    H256823   5.772   2.494   3.491 -0.0251  1.2196  1.0769
11778TIP3   OH256824   6.569   3.880   5.693  0.0969  0.0912  0.1277
11778TIP3    H156825   6.583   3.886   5.788  1.1774  0.3957 -0.0459
11778TIP3    H256826   6.591   3.967   5.660  2.3271 -0.7447 -0.7171
11779TIP3   OH256827   5.114   2.203   0.162  1.3880 -0.0978 -0.2036
11779TIP3    H156828   5.176   2.200   0.089  1.5696  1.4312 -0.1296
11779TIP3    H256829   5.143   2.278   0.214 -0.9642  1.0895 -0.5527
11780TIP3   OH256830   3.481   2.726   5.738 -0.2562 -0.0298  0.1704
11780TIP3    H156831   3.478   2.813   5.700  2.0194  0.7215  1.6307
11780TIP3    H256832   3.565   2.689   5.708 -0.5300 -1.1518  0.7418
11781TIP3   OH256833   4.015   2.938   3.341 -0.2362  0.9478 -0.3981
11781TIP3    H156834   3.951   2.968   3.406 -1.6245  1.3744 -1.9360
11781TIP3    H256835   4.010   2.842   3.345  0.0720  0.9573  0.4721
11782TIP3   OH256836   0.736   3.121  13.228  0.1960 -0.1274  0.0753
11782TIP3    H156837   0.828   3.144  13.239 -0.2803  1.2221  1.3321
11782TIP3    H256838   0.697   3.197  13.184 -0.0189 -1.3094 -1.8283
11783TIP3   OH256839   4.346   0.605   0.101  0.2394 -1.0397  0.1574
11783TIP3    H156840   4.401   0.566   0.032  0.5277 -2.2924  1.0867
11783TIP3    H256841   4.270   0.641   0.053  0.0852 -2.5290 -0.7484
11784TIP3   OH256842   4.543   4.451  12.853 -0.2487 -0.0248 -0.2267
11784TIP3    H156843   4.611   4.495  12.904  0.2238  0.5244 -1.3165
11784TIP3    H256844   4.550   4.359  12.879 -1.5779  0.5722  2.4333
11785TIP3   OH256845   3.590   4.575  10.452  0.0878 -0.3981 -0.0227
11785TIP3    H156846   3.496   4.570  10.467  0.2345 -2.2540  0.4790
11785TIP3    H256847   3.629   4.581  10.539  0.5439 -2.6385 -0.0353
11786TIP3   OH256848   5.189   0.844   5.022 -0.3103 -0.1932 -0.3100
11786TIP3    H156849   5.182   0.929   4.978 -1.7891 -0.4193 -0.5400
11786TIP3    H256850   5.251   0.859   5.093  0.1444  0.8401 -0.9113
11787TIP3   OH256851   0.213   5.878   4.704 -0.2791  0.1458 -0.2752
11787TIP3    H156852   0.212   5.951   4.766  0.3405  0.1371 -0.2532
11787TIP3    H256853   0.123   5.846   4.703 -0.0139 -0.7709  1.7058
11788TIP3   OH256854   6.143   2.374  16.292  0.2744 -0.3851  0.1207
11788TIP3    H156855   6.216   2.360  16.232  1.6492 -0.5000  1.7720
11788TIP3    H256856   6.123   2.287  16.327 -1.6435 -0.5898 -1.4015
11789TIP3   OH256857   5.487   3.798   1.026  0.1744 -0.3442  0.0093
11789TIP3    H156858   5.400   3.796   1.067 -0.6799 -0.7734 -1.7757
11789TIP3    H256859   5.486   3.877   0.971  0.4322 -1.0476 -1.0218
11790TIP3   OH256860   1.095   1.225   3.278 -0.5001  0.7455 -0.3436
11790TIP3    H156861   1.049   1.280   3.215 -1.6393  0.0451 -0.1454
11790TIP3    H256862   1.159   1.283   3.318  0.7926  1.0064 -2.6961
11791TIP3   OH256863   2.188   3.838   1.553  0.5314  0.5834 -0.6556
11791TIP3    H156864   2.097   3.858   1.532 -0.3585 -2.8223 -0.3503
11791TIP3    H256865   2.226   3.812   1.469  0.6240 -0.0638 -0.4159
11792TIP3   OH256866   6.769   1.030   1.098  0.5120  0.3037 -0.0856
11792TIP3    H156867   6.774   0.985   1.182 -0.7416  0.7583  0.2347
11792TIP3    H256868   6.723   0.968   1.041  2.9420 -0.7572 -0.9553
11793TIP3   OH256869   4.050   4.784  10.598  0.2876  0.3980 -1.0124
11793TIP3    H156870   3.983   4.787  10.531 -0.1727  0.9380 -0.5342
11793TIP3    H256871   4.013   4.833  10.672  0.0762 -1.6170  0.2732
11794TIP3   OH256872   5.230   2.231  14.676  0.2242  0.1634  0.5748
11794TIP3    H156873   5.250   2.305  14.734  1.3910 -0.2345  0.7007
11794TIP3    H256874   5.234   2.267  14.588 -0.5721  0.5497  0.6893
11795TIP3   OH256875   5.475   0.132  12.913 -0.0438 -0.6382 -0.3113
11795TIP3    H156876   5.556   0.082  12.921 -0.3199 -1.0582 -0.0877
11795TIP3    H256877   5.442   0.137  13.003  0.9687  1.6276 -0.0388
11796TIP3   OH256878   5.043   6.296  16.928 -0.1570  0.4900  0.6098
11796TIP3    H156879   5.045   6.373  16.984 -0.0298  2.6540 -2.2550
11796TIP3    H256880   5.128   6.295  16.885 -0.2602 -1.1258  0.4166
11797TIP3   OH256881   4.562   3.689   1.766 -0.0564  0.0716 -0.6684
11797TIP3    H156882   4.626   3.626   1.799  1.3008  2.2803  1.0946
11797TIP3    H256883   4.502   3.637   1.713  2.3982 -2.2965 -1.2392
11798TIP3   OH256884   2.574   3.342   3.916 -0.3434  0.4989  0.3154
11798TIP3    H156885   2.503   3.333   3.853  0.3872  0.5095 -0.5160
11798TIP3    H256886   2.533   3.326   4.001 -1.3963  0.8070 -0.1330
11799TIP3   OH256887   1.859   6.001   6.434  0.0079 -0.5045  0.0983
11799TIP3    H156888   1.814   5.970   6.512  0.0602 -3.0569 -0.8431
11799TIP3    H256889   1.804   6.071   6.400 -2.7567 -2.8565 -0.4444
11800TIP3   OH256890   2.563   2.635   5.073 -0.1776 -0.3490 -0.8134
11800TIP3    H156891   2.497   2.595   5.130  1.0000  0.0514  0.8648
11800TIP3    H256892   2.513   2.672   5.001 -1.7111 -0.8033  0.0018
11801TIP3   OH256893   5.131   1.126  14.074 -0.2588  0.1758 -0.0502
11801TIP3    H156894   5.200   1.072  14.034 -1.3478  0.9062 -3.0394
11801TIP3    H256895   5.054   1.070  14.071 -0.8258  0.9975 -0.9183
11802TIP3   OH256896   0.409   1.539   1.826 -0.1168  0.3186  0.5346
11802TIP3    H156897   0.496   1.571   1.847  0.5972 -0.3243 -1.3413
11802TIP3    H256898   0.377   1.598   1.758  0.0640 -1.1756 -0.8876
11803TIP3   OH256899   5.544   0.146  11.777 -0.4387 -0.4345  1.0233
11803TIP3    H156900   5.568   0.086  11.707  1.9161  1.5969  0.0083
11803TIP3    H256901   5.572   0.103  11.857  1.2106 -0.7091  0.3125
11804TIP3   OH256902   1.122   0.476   3.008 -0.2325  0.7343 -0.1223
11804TIP3    H156903   1.106   0.395   3.057  0.0095  0.8570  0.1567
11804TIP3    H256904   1.081   0.544   3.061 -1.2126  0.6850 -0.7930
11805TIP3   OH256905   4.655   0.533   2.369  0.8236 -0.0211 -0.3756
11805TIP3    H156906   4.629   0.578   2.450  1.5172 -2.1992  1.1123
11805TIP3    H256907   4.747   0.512   2.382  1.1395  0.2593 -2.0686
11806TIP3   OH256908   5.141   4.913   5.347 -0.4353 -0.3928 -0.2928
11806TIP3    H156909   5.126   4.946   5.258 -1.4155 -0.5931 -0.2060
11806TIP3    H256910   5.160   4.991   5.398  3.7206 -0.6097 -1.3784
11807TIP3   OH256911   1.954   1.944   1.871 -0.3929  0.6334 -0.3533
11807TIP3    H156912   1.972   2.037   1.855  0.8483  0.2402 -1.3117
11807TIP3    H256913   2.021   1.918   1.935 -0.7176  0.3866 -0.1145
11808TIP3   OH256914   1.258   2.112   4.012  0.1884  0.4581  0.5251
11808TIP3    H156915   1.346   2.123   4.047  1.0778  0.3794 -1.6549
11808TIP3    H256916   1.221   2.200   4.009  1.4279  0.9046 -1.7463
11809TIP3   OH256917   2.339   1.836   3.063  0.4704  0.7398 -0.1285
11809TIP3    H156918   2.384   1.825   2.979  0.7113 -0.1845  0.1205
11809TIP3    H256919   2.390   1.903   3.109  1.9174 -0.6448  0.3578
11810TIP3   OH256920   5.129   1.664  15.948  0.2428 -0.3944 -0.7672
11810TIP3    H156921   5.167   1.586  15.908  1.9528  0.4994 -0.9318
11810TIP3    H256922   5.156   1.659  16.040  0.8166  0.2657 -0.8948
11811TIP3   OH256923   1.134   3.671  16.801 -0.3788  0.6018  0.6129
11811TIP3    H156924   1.206   3.628  16.755  1.1594  1.9284  1.7604
11811TIP3    H256925   1.073   3.599  16.823  0.0083 -0.3654 -1.3554
11812TIP3   OH256926   5.874   2.120   4.045  0.2842 -0.9487 -0.1945
11812TIP3    H156927   5.930   2.091   4.117 -0.9583 -2.4966  0.1919
11812TIP3    H256928   5.795   2.066   4.053 -1.4840  1.5536 -0.4073
11813TIP3   OH256929   6.552   6.726  14.293 -0.7628  0.2114  0.6155
11813TIP3    H156930   6.504   6.647  14.317 -0.4358 -0.2125 -0.0766
11813TIP3    H256931   6.494   6.773  14.233 -0.2031 -0.4658 -0.4820
11814TIP3   OH256932   0.369   4.912  16.027  0.3001 -0.4096 -0.0859
11814TIP3    H156933   0.378   4.907  16.123 -0.1241 -1.5908 -0.0978
11814TIP3    H256934   0.454   4.884  15.994  1.3428  2.5239 -0.0518
11815TIP3   OH256935   0.000   5.975  16.517  0.4495  0.0313  0.0255
11815TIP3    H156936   0.035   5.942  16.600 -1.1698  0.8613  1.0634
11815TIP3    H256937   0.069   6.032  16.483 -0.3932  2.8140  2.7654
11816TIP3   OH256938   2.374   4.737   5.897 -0.0305 -0.3508 -0.1310
11816TIP3    H156939   2.357   4.823   5.935 -0.2220  0.0732 -1.1555
11816TIP3    H256940   2.294   4.687   5.912 -0.6877  0.3268 -1.3618
11817TIP3   OH256941   5.708   0.618  16.571 -0.9560  0.2272 -0.5518
11817TIP3    H156942   5.761   0.557  16.621 -1.6265  0.4506  0.4654
11817TIP3    H256943   5.763   0.696  16.562 -1.2933  0.6740  0.9936
11818TIP3   OH256944   0.343   6.588   3.033 -0.0624  0.0045 -0.2895
11818TIP3    H156945   0.284   6.630   2.971  1.1562  1.0107 -0.7989
11818TIP3    H256946   0.430   6.596   2.993  0.4733 -1.1491  0.5935
11819TIP3   OH256947   6.070   6.723  14.441  0.5391 -0.3872 -0.1485
11819TIP3    H156948   6.016   6.734  14.519  0.5426 -2.2265  0.1194
11819TIP3    H256949   6.031   6.783  14.377  0.8061  1.4516  1.3818
11820TIP3   OH256950   1.084   6.675  16.505  0.2358  0.4172 -0.8663
11820TIP3    H156951   1.011   6.635  16.553  2.2054 -1.1080  0.9398
11820TIP3    H256952   1.067   6.769  16.509 -1.3017  0.1101  0.0503
11821TIP3   OH256953   3.824   4.062   2.923  0.1470 -0.0706 -0.1467
11821TIP3    H156954   3.767   4.006   2.977 -0.0700 -0.0863 -0.3930
11821TIP3    H256955   3.832   4.015   2.840 -0.6690  0.6476 -0.6361
11822TIP3   OH256956   3.702   6.687   3.119 -0.1654 -0.1399 -0.1111
11822TIP3    H156957   3.610   6.713   3.115 -0.0834 -0.0700 -2.1879
11822TIP3    H256958   3.719   6.645   3.035  1.2807 -1.6474  0.8843
11823TIP3   OH256959   6.101   5.974  12.814 -0.2343  0.2548 -0.4296
11823TIP3    H156960   6.052   5.915  12.757  0.3939 -0.5784 -0.1244
11823TIP3    H256961   6.098   6.058  12.769  0.6448 -0.4883 -1.9474
11824TIP3   OH256962   0.692   2.937  12.984  0.4179  0.3157 -0.4241
11824TIP3    H156963   0.629   3.005  12.962 -1.5073 -0.6380  1.8377
11824TIP3    H256964   0.708   2.949  13.078  1.5682 -1.1149 -0.4205
11825TIP3   OH256965   0.961   2.242  14.140  0.2814  0.5015  0.4434
11825TIP3    H156966   0.901   2.169  14.132 -0.6059  1.1383  1.2182
11825TIP3    H256967   0.962   2.282  14.053  0.2843 -0.0471  0.1938
11826TIP3   OH256968   1.864   2.432   3.756 -0.1865 -0.0938 -0.1859
11826TIP3    H156969   1.840   2.340   3.753 -0.4250 -0.0379 -0.0479
11826TIP3    H256970   1.810   2.474   3.689 -0.7856  0.0990  0.4099
11827TIP3   OH256971   0.128   6.628   0.544 -0.2654  0.1542 -0.2012
11827TIP3    H156972   0.210   6.594   0.508  0.3236 -0.4299  1.6018
11827TIP3    H256973   0.118   6.715   0.506  1.8294  0.7229  0.5131
11828TIP3   OH256974   4.754   1.311  17.043 -0.1796 -1.1312  0.3057
11828TIP3    H156975   4.812   1.383  17.019 -0.7116 -0.9079 -0.3209
11828TIP3    H256976   4.805   1.259  17.106  0.0103  0.0743  1.1659
11829TIP3   OH256977   6.573   6.673  12.092 -1.0222 -0.4156  0.3302
11829TIP3    H156978   6.657   6.628  12.104 -0.3419  1.1997  1.8640
11829TIP3    H256979   6.511   6.602  12.074  0.3584 -1.8029  0.8732
11830TIP3   OH256980   5.471   4.081  10.713 -0.5808  0.0343  0.0311
11830TIP3    H156981   5.537   4.046  10.652 -0.5743  1.4118 -0.7785
11830TIP3    H256982   5.498   4.172  10.726 -1.1153  0.0037  1.3891
11831TIP3   OH256983   4.316   3.863   3.529 -0.1192 -0.1114 -0.1630
11831TIP3    H156984   4.276   3.951   3.526 -1.2172 -0.5465  1.0814
11831TIP3    H256985   4.262   3.811   3.469 -1.3755 -0.6625  1.4048
11832TIP3   OH256986   1.426   4.354  12.635  0.2049 -0.7655  0.3514
11832TIP3    H156987   1.470   4.437  12.653  1.2396 -0.8002 -1.7882
11832TIP3    H256988   1.337   4.379  12.608  0.4641 -0.3399 -0.1355
11833TIP3   OH256989   1.455   2.104  16.501  0.5095  0.0424 -0.2424
11833TIP3    H156990   1.471   2.153  16.582  0.8281  1.2971 -1.0485
11833TIP3    H256991   1.412   2.024  16.530  1.8044 -0.1309  1.2884
11834TIP3   OH256992   2.744   3.159   0.672 -0.6520  0.3796 -0.1601
11834TIP3    H156993   2.727   3.248   0.640 -1.6600 -0.0907 -0.9577
11834TIP3    H256994   2.821   3.168   0.728 -1.9114  2.0969  1.3406
11835TIP3   OH256995   6.024   5.841  14.922  0.1626 -0.5214  0.1327
11835TIP3    H156996   6.072   5.759  14.911  2.5084  0.4089  2.8209
11835TIP3    H256997   6.070   5.904  14.866 -0.0755 -0.4346  0.0339
11836TIP3   OH256998   6.685   1.570   6.415  0.7042  0.3088 -0.7543
11836TIP3    H156999   6.608   1.584   6.360  1.6120  0.1513 -2.0865
11836TIP3    H257000   6.703   1.476   6.407  1.6775  0.5346 -1.3350
11837TIP3   OH257001   0.606   0.103  11.194  0.3152 -0.0748  0.4744
11837TIP3    H157002   0.610   0.009  11.208 -4.1829 -0.2898  1.0736
11837TIP3    H257003   0.612   0.141  11.282 -0.2319  0.0617  0.4543
11838TIP3   OH257004   5.011   6.546   6.377 -0.1466  0.0552 -1.0664
11838TIP3    H157005   5.002   6.602   6.455  2.6232 -1.2902  0.2587
11838TIP3    H257006   4.963   6.466   6.399 -0.5254  0.2070 -1.3191
11839TIP3   OH257007   3.683   4.580  16.790  0.0339  0.4328  0.2434
11839TIP3    H157008   3.723   4.631  16.720  0.2074  0.8242  0.6251
11839TIP3    H257009   3.756   4.551  16.844 -0.1781  1.0071  0.8488
11840TIP3   OH257010   1.562   2.610  12.749 -0.1643  0.2406  0.3279
11840TIP3    H157011   1.602   2.657  12.676  1.1298 -1.3093  0.0023
11840TIP3    H257012   1.490   2.666  12.778  1.0118  2.1343 -0.3856
11841TIP3   OH257013   0.892   1.028   6.642 -0.1083 -0.0644  0.1910
11841TIP3    H157014   0.967   1.077   6.608 -1.1039 -0.5524 -2.8311
11841TIP3    H257015   0.817   1.087   6.628 -0.9789 -1.4996 -1.3592
11842TIP3   OH257016   0.549   6.058  15.618  0.1421  0.5439  0.0959
11842TIP3    H157017   0.474   6.019  15.663 -1.2630  1.1180 -1.6936
11842TIP3    H257018   0.601   5.982  15.589 -1.4917  0.0117 -1.5370
11843TIP3   OH257019   5.513   5.198   2.353 -0.0749 -0.0716 -0.4796
11843TIP3    H157020   5.497   5.245   2.271 -1.5949 -0.8995 -0.6732
11843TIP3    H257021   5.521   5.267   2.419 -1.0058  0.5050 -0.9647
11844TIP3   OH257022   6.191   5.043   3.349 -0.3685  0.8983 -0.0314
11844TIP3    H157023   6.259   5.030   3.416 -0.2326  0.9448 -0.1615
11844TIP3    H257024   6.113   5.065   3.400 -0.6940 -0.7529  0.2213
11845TIP3   OH257025   0.024   2.749  15.364 -0.2972  1.0922 -0.5678
11845TIP3    H157026   0.045   2.732  15.272 -1.3467  0.3599 -0.6738
11845TIP3    H257027  -0.024   2.832  15.363  0.3730  1.4920 -0.5818
11846TIP3   OH257028   5.248   6.230   0.752 -0.4672 -0.3772  0.6438
11846TIP3    H157029   5.317   6.295   0.762  0.1735 -0.9815  0.2620
11846TIP3    H257030   5.200   6.232   0.835 -1.5978  1.8398 -0.0156
11847TIP3   OH257031   3.221   2.925  16.614  0.1512 -0.2794 -0.3310
11847TIP3    H157032   3.313   2.898  16.615  0.3221  0.2978  0.2901
11847TIP3    H257033   3.174   2.854  16.658  0.5318  0.1910  0.8651
11848TIP3   OH257034   5.152   3.578  12.170 -0.6392 -0.0752  0.0763
11848TIP3    H157035   5.215   3.620  12.112 -1.7912  1.4590 -0.1030
11848TIP3    H257036   5.203   3.550  12.246  0.1528  1.6780  0.2046
11849TIP3   OH257037   0.323   2.308  15.121  0.0931  0.0980 -0.3168
11849TIP3    H157038   0.299   2.234  15.066  0.0715  0.1905 -0.4293
11849TIP3    H257039   0.418   2.314  15.112  0.2578 -0.7289  0.7054
11850TIP3   OH257040   0.784   0.831   6.784  0.0476  0.1233 -0.2169
11850TIP3    H157041   0.831   0.912   6.766  0.0044  0.4827  1.2076
11850TIP3    H257042   0.853   0.763   6.786  0.4967  0.5992  1.5578
11851TIP3   OH257043   4.982   3.459   3.347  0.4867 -0.2710 -0.1272
11851TIP3    H157044   4.947   3.505   3.271  1.8860  2.1703  0.6370
11851TIP3    H257045   4.906   3.443   3.404 -0.0051  1.2958 -0.3264
11852TIP3   OH257046   2.945   1.856  14.295  0.0176  0.7930 -0.2002
11852TIP3    H157047   2.937   1.766  14.327 -2.3832  0.9312 -0.2902
11852TIP3    H257048   3.034   1.861  14.260 -0.0944 -1.8417 -1.0152
11853TIP3   OH257049   6.412   2.068   2.748 -0.4867  0.0276 -0.0995
11853TIP3    H157050   6.337   2.107   2.791 -1.2453 -1.4512 -0.0375
11853TIP3    H257051   6.475   2.139   2.739 -1.0024  0.7640  1.8780
11854TIP3   OH257052   3.157   1.992   0.149  0.1545 -0.0004  0.4291
11854TIP3    H157053   3.100   1.917   0.167 -0.0678 -0.1956 -1.0019
11854TIP3    H257054   3.157   2.043   0.230  0.1350 -1.4346  1.3405
11855TIP3   OH257055   2.941   6.210   1.599 -0.5511 -0.5169 -0.1453
11855TIP3    H157056   3.030   6.234   1.574 -0.4978  0.1696  0.6977
11855TIP3    H257057   2.949   6.177   1.688 -1.0519 -1.0317 -0.2875
11856TIP3   OH257058   5.161   3.500  15.420  0.4143  0.4033 -0.6729
11856TIP3    H157059   5.154   3.538  15.333 -1.6277 -1.6425 -1.4409
11856TIP3    H257060   5.071   3.488  15.449  1.0558  0.6138  1.5411
11857TIP3   OH257061   0.304   6.813   4.851 -0.0009  0.2279  0.1991
11857TIP3    H157062   0.210   6.794   4.848 -0.0576  0.3577  1.0598
11857TIP3    H257063   0.341   6.743   4.904  0.2364  0.7621  0.7449
11858TIP3   OH257064   5.224   0.404  12.379  0.1735  0.0955  0.4392
11858TIP3    H157065   5.277   0.413  12.459  0.0025  1.2064  0.4391
11858TIP3    H257066   5.287   0.385  12.310  0.6178  1.6760  0.3922
11859TIP3   OH257067   0.191   6.000  12.425 -0.2945 -0.1257  0.4114
11859TIP3    H157068   0.253   6.032  12.359  1.1250  0.0287  1.7830
11859TIP3    H257069   0.116   6.059  12.417  1.2153  1.9861  1.1198
11860TIP3   OH257070   2.953   1.317   0.350 -0.1856  0.0814 -0.1980
11860TIP3    H157071   3.006   1.275   0.418 -0.5817 -1.9042 -1.0875
11860TIP3    H257072   2.874   1.346   0.396 -0.1031 -0.5480  0.3516
11861TIP3   OH257073   4.941   6.721   0.656  0.1722 -0.4771  0.1354
11861TIP3    H157074   5.023   6.672   0.665  1.7946  2.5930  3.3173
11861TIP3    H257075   4.880   6.675   0.715  0.0367 -1.8134 -1.0148
11862TIP3   OH257076   6.063   4.191  12.150  0.6043 -0.2441 -0.2784
11862TIP3    H157077   6.133   4.163  12.209 -2.0922 -0.8745  2.7309
11862TIP3    H257078   5.992   4.129  12.165 -0.8646  0.7350 -2.8406
11863TIP3   OH257079   4.265   6.206  16.345 -0.5101  0.0896 -0.4651
11863TIP3    H157080   4.341   6.181  16.291 -1.0344  0.5852 -1.4507
11863TIP3    H257081   4.284   6.296  16.372  0.1410 -0.4421  0.8843
11864TIP3   OH257082   6.732   0.616   5.173  0.8342 -0.8683 -0.2113
11864TIP3    H157083   6.825   0.596   5.173  0.7239 -1.3895  0.6059
11864TIP3    H257084   6.718   0.664   5.092  2.1046  0.5406  0.3692
11865TIP3   OH257085   3.457   5.413  16.764 -0.6691  0.2740  0.0322
11865TIP3    H157086   3.400   5.458  16.826 -2.1613 -1.3992 -0.0745
11865TIP3    H257087   3.405   5.337  16.735  0.9341 -0.2906 -1.4203
11866TIP3   OH257088   5.817   2.651  14.404 -0.2005 -0.1554 -0.1275
11866TIP3    H157089   5.778   2.721  14.456  0.1042 -0.6887  0.8356
11866TIP3    H257090   5.908   2.677  14.391 -0.4830  0.3661 -1.0890
11867TIP3   OH257091   3.871   1.342  14.942  0.1160  0.3772  0.1995
11867TIP3    H157092   3.882   1.437  14.934 -1.2274  0.4961 -0.3682
11867TIP3    H257093   3.920   1.319  15.021  1.6661  1.3178 -0.4675
11868TIP3   OH257094   0.228   6.698   3.898 -0.6413  0.3786  0.3071
11868TIP3    H157095   0.239   6.701   3.803  0.5321  0.6736  0.4484
11868TIP3    H257096   0.195   6.610   3.916 -3.1912  1.0825 -0.6045
11869TIP3   OH257097   4.957   3.673   5.539 -0.1462  0.7771 -0.8629
11869TIP3    H157098   4.954   3.583   5.508 -1.3711  0.6571 -0.4160
11869TIP3    H257099   4.903   3.722   5.476 -2.0956  0.6430  0.6584
11870TIP3   OH257100   3.708   1.388   0.143 -0.3329 -0.6530  0.2575
11870TIP3    H157101   3.705   1.379   0.239  0.8182 -1.0706  0.2582
11870TIP3    H257102   3.674   1.476   0.127  1.0426  0.0604  1.1639
11871TIP3   OH257103   6.294   5.329  14.786  0.7551 -0.1828 -0.0085
11871TIP3    H157104   6.349   5.359  14.714  2.1421  0.5192  1.3209
11871TIP3    H257105   6.350   5.270  14.837  0.3586  0.6721  1.4596
11872TIP3   OH257106   0.772   2.663  12.957 -0.1877  0.4706  0.3939
11872TIP3    H157107   0.683   2.637  12.980 -1.2325  3.0465 -0.5807
11872TIP3    H257108   0.771   2.759  12.959  1.9219  0.5926 -1.8785
11873TIP3   OH257109   5.073   1.823   5.860  0.0536  0.9389  0.3855
11873TIP3    H157110   5.082   1.861   5.947  0.6553  0.4970  0.5190
11873TIP3    H257111   5.098   1.893   5.800  0.3079  1.0249  0.5928
11874TIP3   OH257112   4.658   0.573   5.549  0.3181 -0.4275 -0.0391
11874TIP3    H157113   4.734   0.580   5.606 -0.0507 -1.5967  0.6208
11874TIP3    H257114   4.680   0.501   5.489  0.3259  0.1846 -0.7812
11875TIP3   OH257115   2.391   5.934   1.871 -0.2775  0.6512  0.1980
11875TIP3    H157116   2.473   5.944   1.918  0.6763  0.3906 -1.3581
11875TIP3    H257117   2.338   6.008   1.900  0.1940  0.3581  1.8287
11876TIP3   OH257118   4.087   3.775  12.489 -0.0251 -0.2670  0.6722
11876TIP3    H157119   4.006   3.732  12.463  0.0154 -0.7975  1.3795
11876TIP3    H257120   4.142   3.703  12.521  0.8593  0.0451 -0.1594
11877TIP3   OH257121   0.353   6.116   6.840  0.3466  0.7911  0.2408
11877TIP3    H157122   0.384   6.168   6.914 -1.4673  1.9159  0.2294
11877TIP3    H257123   0.260   6.135   6.834  0.5288  1.0174 -2.5812
11878TIP3   OH257124   3.121   4.401   5.953  0.2446 -0.1650 -0.7964
11878TIP3    H157125   3.210   4.395   5.919  0.8666  2.1854  0.2914
11878TIP3    H257126   3.110   4.321   6.005  2.3030  0.2447  0.3310
11879TIP3   OH257127   5.550   6.244   2.522 -0.2865 -0.2486  0.7929
11879TIP3    H157128   5.475   6.189   2.548 -0.4391  0.3035  1.5458
11879TIP3    H257129   5.616   6.181   2.493 -0.0878 -0.9083  2.5865
11880TIP3   OH257130   3.501   5.575  13.210 -0.5169 -0.5278  0.3978
11880TIP3    H157131   3.423   5.557  13.263 -2.8788  0.0496 -2.7723
11880TIP3    H257132   3.544   5.490  13.202 -1.8440 -1.2424  0.6009
11881TIP3   OH257133   2.001   0.330  14.905  0.5749 -0.3772 -0.1589
11881TIP3    H157134   1.995   0.268  14.832  0.2869  0.9211 -1.2578
11881TIP3    H257135   2.069   0.293  14.962  0.0037 -1.9889 -0.5064
11882TIP3   OH257136   4.575   6.382   0.246 -0.4484  0.7151 -0.1402
11882TIP3    H157137   4.555   6.431   0.166 -2.2453 -0.9086 -0.7259
11882TIP3    H257138   4.620   6.303   0.215 -2.3417 -0.5723  0.2950
11883TIP3   OH257139   2.480   4.840  12.390 -0.4118  0.1512  0.4073
11883TIP3    H157140   2.566   4.850  12.349 -1.8553 -0.0870 -2.8794
11883TIP3    H257141   2.449   4.929  12.403 -0.4530  0.2253 -0.1780
11884TIP3   OH257142   5.073   2.362   2.137  0.0593 -0.2138  0.5554
11884TIP3    H157143   4.978   2.376   2.135 -0.1716 -1.7339 -0.9000
11884TIP3    H257144   5.105   2.401   2.056  0.1818 -2.6909 -0.6373
11885TIP3   OH257145   6.454   2.184  11.748 -0.1271 -0.2156 -0.5875
11885TIP3    H157146   6.516   2.169  11.677  0.4834 -1.9513  0.2842
11885TIP3    H257147   6.371   2.148  11.715 -0.6113  1.7506 -1.5963
11886TIP3   OH257148   3.381   1.621  14.375  0.3646 -0.0267 -0.4485
11886TIP3    H157149   3.385   1.638  14.280  0.4256 -3.9765 -1.2471
11886TIP3    H257150   3.342   1.700  14.412 -2.1991  0.5509 -4.1005
11887TIP3   OH257151   5.783   0.634   4.884 -0.0543  0.7287 -0.5906
11887TIP3    H157152   5.745   0.546   4.878 -0.6863  0.9696 -0.1631
11887TIP3    H257153   5.711   0.692   4.859  0.0779  1.1834  0.0879
11888TIP3   OH257154   4.060   4.395   3.956 -0.0753 -0.0565  0.2911
11888TIP3    H157155   4.133   4.333   3.952  0.4307  0.5659 -0.0081
11888TIP3    H257156   4.030   4.389   4.047 -1.6075 -2.5455 -0.3008
11889TIP3   OH257157   0.954   2.544  16.625  0.2814  0.2555 -0.2071
11889TIP3    H157158   0.972   2.606  16.695 -0.7564  1.1342 -0.7026
11889TIP3    H257159   0.869   2.506  16.648  0.1117  0.2709 -0.7977
11890TIP3   OH257160   4.745   5.612  14.146 -0.5956  0.0546 -0.5137
11890TIP3    H157161   4.690   5.691  14.138 -0.2810  0.1465 -1.9106
11890TIP3    H257162   4.742   5.590  14.239 -0.2822  2.0168 -0.0204
11891TIP3   OH257163   0.065   1.065  16.498  0.1783  0.1092  0.3031
11891TIP3    H157164  -0.006   1.126  16.515  1.8624  1.9670  0.8827
11891TIP3    H257165   0.109   1.101  16.420  1.3601 -0.1990  0.8184
11892TIP3   OH257166   0.963   6.620  13.261 -0.7255  0.1040 -0.3031
11892TIP3    H157167   1.031   6.653  13.201 -0.1609 -1.2553 -0.4288
11892TIP3    H257168   0.918   6.553  13.211  0.7750 -2.1678  1.3002
11893TIP3   OH257169   2.366   1.474  15.953  0.1296  0.3344  0.2365
11893TIP3    H157170   2.338   1.418  15.881  0.7327 -1.6770  1.5296
11893TIP3    H257171   2.436   1.528  15.916  0.5960 -0.8437 -0.6125
11894TIP3   OH257172   5.525   4.774  14.136 -0.4566 -0.5572 -0.7843
11894TIP3    H157173   5.487   4.705  14.190 -2.4975  1.5189  0.5471
11894TIP3    H257174   5.458   4.793  14.070 -1.6220  2.7270  1.2172
11895TIP3   OH257175   6.600   2.919   4.462 -0.3693  0.3727  1.0796
11895TIP3    H157176   6.633   2.983   4.398  0.5306 -0.1300  1.0369
11895TIP3    H257177   6.512   2.951   4.484 -0.2711  1.1403  0.3969
11896TIP3   OH257178   4.663   4.585   2.783 -0.8794  0.2096  0.6964
11896TIP3    H157179   4.722   4.626   2.719  1.7371  0.7744  3.3886
11896TIP3    H257180   4.590   4.646   2.790 -0.9655  0.3837 -1.3651
11897TIP3   OH257181   3.284   2.550   3.420  0.0667 -0.2221 -0.8336
11897TIP3    H157182   3.220   2.479   3.409  0.0298 -0.3116 -0.0837
11897TIP3    H257183   3.231   2.630   3.421 -0.1080 -0.3319  0.3214
11898TIP3   OH257184   0.626   1.315   1.772 -0.2333  0.0577  0.2298
11898TIP3    H157185   0.671   1.362   1.842  0.5484  0.1150 -0.3099
11898TIP3    H257186   0.534   1.342   1.781  0.2527  1.9891 -0.2855
11899TIP3   OH257187   1.616   0.655   1.215  0.2929  0.9311  0.3348
11899TIP3    H157188   1.545   0.622   1.159 -0.7876  1.4455  1.3926
11899TIP3    H257189   1.695   0.634   1.166 -0.5595  0.0259 -0.7063
11900TIP3   OH257190   0.776   3.245   1.345 -0.4800  0.6652 -0.3489
11900TIP3    H157191   0.774   3.279   1.255  0.7950 -1.0166 -1.0344
11900TIP3    H257192   0.869   3.237   1.365 -0.7611 -0.0431  0.7175
11901TIP3   OH257193   4.674   4.291  13.288 -0.6324  0.9255 -0.8773
11901TIP3    H157194   4.715   4.213  13.250  0.4343  0.8644  0.3799
11901TIP3    H257195   4.631   4.334  13.213 -0.0760 -0.1346 -1.8228
11902TIP3   OH257196   1.530   0.342  12.039 -0.1344  0.3941 -0.9532
11902TIP3    H157197   1.494   0.410  11.983  1.4034  1.1139 -1.1024
11902TIP3    H257198   1.590   0.388  12.097  0.4047 -0.7408 -0.5915
11903TIP3   OH257199   3.170   3.827  15.302 -0.2286  0.6556  0.0490
11903TIP3    H157200   3.167   3.909  15.254 -1.9010 -0.0393 -1.0655
11903TIP3    H257201   3.230   3.772  15.252  0.0245  0.8089  0.1814
11904TIP3   OH257202   0.886   3.403   3.065 -0.7694  0.6905 -0.6958
11904TIP3    H157203   0.841   3.390   2.982  0.2618  1.1122 -1.3232
11904TIP3    H257204   0.965   3.453   3.043 -0.3529  0.5774  0.4882
11905TIP3   OH257205   4.422   5.404  14.597 -0.0218 -0.0771  0.2255
11905TIP3    H157206   4.376   5.326  14.630 -2.3915  0.3799 -1.8587
11905TIP3    H257207   4.418   5.466  14.670 -1.7033 -0.4969  0.5214
11906TIP3   OH257208   1.001   4.245  16.940 -0.1499 -0.7657  0.3148
11906TIP3    H157209   0.908   4.233  16.925 -0.2580 -0.5030  0.7930
11906TIP3    H257210   1.016   4.339  16.925  0.1026 -0.8766 -0.1300
11907TIP3   OH257211   4.425   3.522   4.057  0.1859  0.0461 -0.0033
11907TIP3    H157212   4.430   3.460   3.984 -0.9518  0.2215 -0.2332
11907TIP3    H257213   4.462   3.474   4.132  0.7058 -0.3785 -0.5321
11908TIP3   OH257214   1.834   4.393  16.751  0.0386  0.2727 -0.5839
11908TIP3    H157215   1.890   4.389  16.828 -0.5687 -2.7815 -0.2719
11908TIP3    H257216   1.877   4.336  16.687  0.3532  2.4867 -2.4255
11909TIP3   OH257217   1.833   5.903   1.403  0.6133 -0.1205 -0.4146
11909TIP3    H157218   1.737   5.899   1.404  0.5357  1.3946  1.3893
11909TIP3    H257219   1.859   5.838   1.338 -1.7200  0.8391 -2.3952
11910TIP3   OH257220   5.180   1.310  14.587  0.4444 -0.1784 -0.0026
11910TIP3    H157221   5.174   1.343  14.498  0.6156  1.2534  0.5054
11910TIP3    H257222   5.258   1.255  14.588  0.7615  0.2620 -0.5922
11911TIP3   OH257223   4.103   5.543  12.684 -0.2734 -0.2275 -0.2291
11911TIP3    H157224   4.188   5.572  12.650  0.6002 -1.5934  0.7311
11911TIP3    H257225   4.050   5.528  12.607  0.3552  0.6862 -0.8454
11912TIP3   OH257226   5.459   0.502   2.039 -0.2878 -0.4392 -0.4839
11912TIP3    H157227   5.458   0.450   2.118 -1.1412 -0.2478 -0.3687
11912TIP3    H257228   5.552   0.518   2.022 -0.1070 -0.3736  0.5429
11913TIP3   OH257229   0.182   5.905   5.228 -0.1396 -0.0211  0.0293
11913TIP3    H157230   0.234   5.829   5.253  1.5251  1.1591  0.2428
11913TIP3    H257231   0.154   5.886   5.138  0.5792 -0.7226 -0.0509
11914TIP3   OH257232   2.757   2.549  17.280  0.4179  0.1704 -0.2740
11914TIP3    H157233   2.742   2.473  17.337  0.0719  0.1039 -0.4575
11914TIP3    H257234   2.812   2.607  17.333 -0.0075  0.1640  0.1803
11915TIP3   OH257235   1.690   3.053   3.847  0.1839  0.0044 -0.1698
11915TIP3    H157236   1.725   3.033   3.934 -0.0063  0.1000 -0.0705
11915TIP3    H257237   1.696   2.971   3.799  1.7070  0.3166 -0.5562
11916TIP3   OH257238   5.232   4.379  14.766  0.0537 -0.4625  0.5155
11916TIP3    H157239   5.266   4.296  14.734 -0.5649 -1.2789  1.9727
11916TIP3    H257240   5.138   4.364  14.779 -0.0888  0.4968  0.6767
11917TIP3   OH257241   4.160   4.267   5.265  0.0988  0.1430 -0.1898
11917TIP3    H157242   4.117   4.335   5.213  2.2772  1.1255 -0.7532
11917TIP3    H257243   4.206   4.315   5.334 -0.9644 -1.0032  1.3510
11918TIP3   OH257244   4.320   5.285  11.088 -0.3223 -0.3197  0.0324
11918TIP3    H157245   4.353   5.366  11.047  0.5952 -0.0589  1.2436
11918TIP3    H257246   4.233   5.273  11.051 -0.1176  0.7528 -0.8282
11919TIP3   OH257247   3.583   1.657   5.391 -0.3906  0.0869 -0.3605
11919TIP3    H157248   3.509   1.714   5.374 -0.0099  0.4064 -0.9226
11919TIP3    H257249   3.576   1.588   5.325 -0.7507 -0.4287  0.2054
11920TIP3   OH257250   6.072   3.808   3.137 -0.0355 -0.0282 -0.1166
11920TIP3    H157251   5.988   3.774   3.109 -0.7259  0.6451  1.1015
11920TIP3    H257252   6.120   3.732   3.168 -0.4998 -0.2957 -0.0556
11921TIP3   OH257253   6.352   2.883  13.501 -0.8143  0.5622 -0.6366
11921TIP3    H157254   6.416   2.866  13.432  0.1275  2.2031 -0.1862
11921TIP3    H257255   6.391   2.952  13.554 -1.7342 -0.3774  1.2944
11922TIP3   OH257256   6.219   1.384  10.927  0.4037  0.8910  0.3132
11922TIP3    H157257   6.258   1.427  11.003 -1.2290  1.4360  0.8617
11922TIP3    H257258   6.269   1.302  10.918  0.8214  0.9673  1.7719
11923TIP3   OH257259   3.289   2.827  13.420 -0.2966  0.3342 -0.2567
11923TIP3    H157260   3.216   2.765  13.427  0.9763 -1.1164  0.2532
11923TIP3    H257261   3.325   2.812  13.332 -0.9084  1.4000 -0.6995
11924TIP3   OH257262   2.339   2.438  10.838  0.3219 -0.6032  0.1486
11924TIP3    H157263   2.390   2.442  10.919 -0.1263 -0.8087  0.4437
11924TIP3    H257264   2.264   2.495  10.854  0.7230  0.1136 -0.4798
11925TIP3   OH257265   4.412   3.266   4.997 -0.0033  0.0094 -0.3997
11925TIP3    H157266   4.437   3.187   4.950 -0.0589 -0.4305  0.3152
11925TIP3    H257267   4.337   3.300   4.948  0.5221  0.0573 -1.1723
11926TIP3   OH257268   5.376   5.031  16.173  0.1898  0.0848 -0.0615
11926TIP3    H157269   5.316   5.086  16.123 -1.4727 -1.2334  0.4128
11926TIP3    H257270   5.375   4.947  16.128  1.5024 -0.0257  0.1026
11927TIP3   OH257271   6.654   1.447  15.011  0.0916 -0.4442  0.4143
11927TIP3    H157272   6.638   1.363  14.967 -1.4598 -0.7156  1.4384
11927TIP3    H257273   6.745   1.443  15.038 -0.3591 -2.4952  1.7960
11928TIP3   OH257274   6.467   2.602  12.219 -1.1982  0.8054  0.0272
11928TIP3    H157275   6.415   2.571  12.145 -0.4227  0.9194 -0.5748
11928TIP3    H257276   6.419   2.679  12.251 -0.4001  2.0745 -1.7414
11929TIP3   OH257277   4.389   0.986  15.015 -0.5649  0.2443  0.3414
11929TIP3    H157278   4.391   0.897  14.980  1.4896  0.2426  0.3965
11929TIP3    H257279   4.371   1.042  14.939 -0.1897 -0.0833  0.0097
11930TIP3   OH257280   0.444   3.978   2.515  0.3340  0.1915 -0.3117
11930TIP3    H157281   0.498   4.001   2.439  0.9656  1.2652  0.4421
11930TIP3    H257282   0.500   3.920   2.567 -0.3642 -1.1278 -1.0111
11931TIP3   OH257283   6.626   4.512   3.676  0.7584  0.1076 -0.0243
11931TIP3    H157284   6.686   4.549   3.612  0.3914  1.1732  0.2428
11931TIP3    H257285   6.621   4.578   3.745  1.7511 -1.3533  1.4844
11932TIP3   OH257286   1.544   6.141   2.796  0.0503 -0.3055 -0.6970
11932TIP3    H157287   1.504   6.202   2.734  2.0382 -0.7744 -2.4801
11932TIP3    H257288   1.490   6.062   2.790 -2.0382  0.9170  1.0200
11933TIP3   OH257289   5.352   0.128   4.412 -0.3255  0.9255 -0.6537
11933TIP3    H157290   5.274   0.182   4.427 -0.2611  1.4168 -2.0374
11933TIP3    H257291   5.382   0.153   4.325  1.3976  0.7536 -0.1271
11934TIP3   OH257292   5.990   1.176   2.291 -0.6071 -0.7132  0.6313
11934TIP3    H157293   6.085   1.171   2.286 -0.4452  0.9911  1.4913
11934TIP3    H257294   5.966   1.235   2.219 -1.0263 -1.1606  0.4013
11935TIP3   OH257295   5.790   3.563   0.784 -0.4706 -1.0003 -0.0079
11935TIP3    H157296   5.807   3.559   0.690 -0.6835 -0.6554 -0.0604
11935TIP3    H257297   5.803   3.655   0.807 -2.5758 -0.6612 -0.1022
11936TIP3   OH257298   1.044   0.849   6.153 -0.5508  0.1596  0.1005
11936TIP3    H157299   0.987   0.772   6.148 -0.9834  0.2593  2.6969
11936TIP3    H257300   0.984   0.923   6.154 -0.2877  0.3616  0.9259
11937TIP3   OH257301   6.403   0.242  12.683 -0.1935 -0.4355  0.2467
11937TIP3    H157302   6.345   0.195  12.624 -0.5951 -2.6834  2.3622
11937TIP3    H257303   6.370   0.332  12.683 -0.5061 -0.4950 -2.4694
11938TIP3   OH257304   4.336   1.005  13.010  0.0611 -0.0210  0.0747
11938TIP3    H157305   4.309   0.921  13.048 -1.4859 -0.0034 -0.9693
11938TIP3    H257306   4.256   1.044  12.977  1.0616  0.9907 -1.2212
11939TIP3   OH257307   4.762   0.344  16.529  0.1026 -0.2648  0.3913
11939TIP3    H157308   4.734   0.348  16.620  2.5507 -0.1911  1.1717
11939TIP3    H257309   4.755   0.251  16.506  0.9783 -0.5123  1.1344
11940TIP3   OH257310   1.607   2.257  16.336 -0.6909 -0.4966  0.0924
11940TIP3    H157311   1.574   2.184  16.389  1.1771 -1.6580 -0.2675
11940TIP3    H257312   1.609   2.331  16.396 -3.9435 -0.3713  0.0856
11941TIP3   OH257313   2.406   4.775  11.519  0.3744  0.1873  0.3268
11941TIP3    H157314   2.432   4.782  11.427  2.5448  2.1878  1.0539
11941TIP3    H257315   2.357   4.856  11.536 -0.9744 -0.6841  0.6574
11942TIP3   OH257316   1.160   6.599   0.091 -0.2207 -0.1290 -0.2041
11942TIP3    H157317   1.225   6.545   0.045 -1.1974 -2.2391  0.8101
11942TIP3    H257318   1.154   6.559   0.178  0.8066  3.1282  1.4385
11943TIP3   OH257319   5.415   4.453  13.711 -0.2885 -0.6204  0.4713
11943TIP3    H157320   5.351   4.511  13.671 -0.5327 -0.7357  0.6932
11943TIP3    H257321   5.487   4.510  13.737  1.4045 -0.9855 -3.2340
11944TIP3   OH257322   1.545   4.920  12.026  0.3590  0.2553  1.0061
11944TIP3    H157323   1.522   4.949  12.114 -1.5781  0.0512  0.5815
11944TIP3    H257324   1.568   5.000  11.980  1.9668  0.3077  1.8272
11945TIP3   OH257325   3.141   4.173   5.282 -0.1595 -0.8001  0.2695
11945TIP3    H157326   3.157   4.081   5.303 -1.0768 -1.1237 -0.3706
11945TIP3    H257327   3.167   4.181   5.190 -0.5075 -0.5417  0.1911
11946TIP3   OH257328   5.758   2.696  13.354  0.1719 -0.3815  0.1769
11946TIP3    H157329   5.670   2.703  13.390 -0.1086  0.8530 -0.6994
11946TIP3    H257330   5.813   2.746  13.415  0.0755 -0.1790  0.0973
11947TIP3   OH257331   2.046   6.340   4.486  0.1490  0.3181  0.3642
11947TIP3    H157332   2.011   6.333   4.397 -0.3642 -1.4404  0.6699
11947TIP3    H257333   1.971   6.369   4.539 -0.6413 -2.4285  0.8426
11948TIP3   OH257334   1.533   2.688   3.878  0.0753 -0.9426 -0.3363
11948TIP3    H157335   1.603   2.752   3.864 -1.9611  1.7345  1.1317
11948TIP3    H257336   1.487   2.684   3.795 -0.1513 -0.0212 -0.2601
11949TIP3   OH257337   6.255   0.946   1.624  0.0274 -0.0459 -0.4879
11949TIP3    H157338   6.323   0.931   1.689  0.6710 -0.9461 -1.3452
11949TIP3    H257339   6.262   1.039   1.603  0.2761  0.0967  0.2219
11950TIP3   OH257340   0.199   4.614  13.988  0.4819  0.0676  0.1777
11950TIP3    H157341   0.150   4.631  13.908 -2.6635 -0.1399  1.9555
11950TIP3    H257342   0.212   4.519  13.988  0.5629  0.0792 -0.1336
11951TIP3   OH257343   1.237   5.154   5.474  0.1827 -0.1025 -0.2066
11951TIP3    H157344   1.184   5.187   5.401  0.1106 -0.2019 -0.1993
11951TIP3    H257345   1.181   5.088   5.516  0.1009  0.1769  0.1294
11952TIP3   OH257346   2.232   2.350  13.632 -0.2757 -0.3984 -0.5971
11952TIP3    H157347   2.149   2.395  13.618 -0.0475 -0.0573 -0.8732
11952TIP3    H257348   2.209   2.271  13.682 -0.5995  0.3503  0.4569
11953TIP3   OH257349   4.205   0.791  13.153  0.5271 -0.0366 -0.8361
11953TIP3    H157350   4.233   0.759  13.068  1.4745  0.7685 -0.8359
11953TIP3    H257351   4.119   0.750  13.168  1.0276 -1.3347 -1.5068
11954TIP3   OH257352   3.274   0.406   1.616  0.0991  1.3091  0.1451
11954TIP3    H157353   3.347   0.374   1.668  0.4528  0.3490 -0.9265
11954TIP3    H257354   3.314   0.446   1.539 -0.5217 -1.6040 -1.7910
11955TIP3   OH257355   3.603   2.975   1.810  0.2166 -0.5237 -0.2292
11955TIP3    H157356   3.589   2.926   1.891 -1.0095 -1.9283 -1.2543
11955TIP3    H257357   3.623   3.064   1.839  0.4406 -1.1507  1.6198
11956TIP3   OH257358   3.117   1.177  14.208  0.5836  0.3539  0.3920
11956TIP3    H157359   3.192   1.236  14.217  0.9129 -0.3108  2.2052
11956TIP3    H257360   3.137   1.125  14.131  1.3345  1.1038  0.0661
11957TIP3   OH257361   3.525   0.889   0.487  0.3724  0.1027 -0.9470
11957TIP3    H157362   3.584   0.871   0.560 -2.1694 -1.4910  0.7769
11957TIP3    H257363   3.498   0.980   0.500 -2.2514 -1.0099  1.7686
11958TIP3   OH257364   2.049   3.928   2.524  0.1057 -0.3249  0.7414
11958TIP3    H157365   1.965   3.885   2.511  0.1323 -0.4660  1.0387
11958TIP3    H257366   2.038   4.014   2.484 -0.7518  0.3095  2.3118
11959TIP3   OH257367   0.575   0.583  12.750  0.0129 -0.1689 -0.0055
11959TIP3    H157368   0.613   0.550  12.832 -0.3946 -0.7341 -0.0380
11959TIP3    H257369   0.521   0.657  12.777 -1.1364 -1.1341  0.4149
11960TIP3   OH257370   1.462   0.929  13.886  0.6087 -0.1124  0.1603
11960TIP3    H157371   1.414   0.999  13.930 -0.3615 -0.1789 -0.7958
11960TIP3    H257372   1.540   0.916  13.941  0.2324  0.9312  0.9578
11961TIP3   OH257373   1.237   5.909   6.873 -0.0808  0.2558  0.0017
11961TIP3    H157374   1.243   5.958   6.791  0.2464 -0.7998 -0.6238
11961TIP3    H257375   1.177   5.837   6.853 -2.1332  1.4845  1.4806
11962TIP3   OH257376   6.145   2.466  14.501 -0.1387 -0.6060 -0.0437
11962TIP3    H157377   6.132   2.457  14.406 -0.6858  2.5746 -0.3144
11962TIP3    H257378   6.062   2.437  14.539 -0.3703 -0.7088 -0.6239
11963TIP3   OH257379   2.706   5.642   5.226 -0.4809 -0.0744 -0.2429
11963TIP3    H157380   2.722   5.549   5.211 -2.2928 -0.4216 -0.0931
11963TIP3    H257381   2.639   5.644   5.294  0.1172  1.3643  0.3346
11964TIP3   OH257382   0.660   4.228   5.995 -0.1929  0.0882 -0.0731
11964TIP3    H157383   0.721   4.274   5.936  1.8063 -0.0958  1.7900
11964TIP3    H257384   0.613   4.298   6.039 -0.2697  0.2595 -0.4194
11965TIP3   OH257385   2.888   3.533   0.338 -0.3525 -0.1370 -0.1113
11965TIP3    H157386   2.867   3.520   0.245  2.5669 -0.3567 -0.7595
11965TIP3    H257387   2.857   3.622   0.357 -0.5254  0.0884 -1.4100
11966TIP3   OH257388   0.456   5.192  14.801  0.3827 -0.4027  0.1900
11966TIP3    H157389   0.439   5.285  14.814  0.1752 -0.5938  1.3202
11966TIP3    H257390   0.546   5.179  14.831 -0.3932 -1.0135  2.2905
11967TIP3   OH257391   2.454   0.201   1.495 -0.3904  0.1064  0.2363
11967TIP3    H157392   2.514   0.155   1.554 -0.2813 -1.3418 -0.9437
11967TIP3    H257393   2.469   0.159   1.410  0.6451  3.2413 -1.1905
11968TIP3   OH257394   6.187   3.693   1.026  0.1597  0.6888  0.0233
11968TIP3    H157395   6.233   3.655   0.951  0.9301  2.0204 -0.2076
11968TIP3    H257396   6.111   3.736   0.988 -0.2174  0.1491  0.1721
11969TIP3   OH257397   1.620   4.259  15.328 -0.4767  0.3218  0.5539
11969TIP3    H157398   1.534   4.270  15.368 -2.2245 -0.3609 -2.8022
11969TIP3    H257399   1.628   4.334  15.268  1.2976  0.3834  0.8349
11970TIP3   OH257400   2.969   1.221   2.069  0.0506 -0.1520  0.7373
11970TIP3    H157401   3.062   1.227   2.088  0.1025 -1.8945  1.0495
11970TIP3    H257402   2.965   1.204   1.975  0.0068  1.1053  0.5069
11971TIP3   OH257403   5.104   3.050  11.377 -0.1834 -0.0277  0.3059
11971TIP3    H157404   5.127   2.958  11.361 -1.4652 -0.3476  0.1764
11971TIP3    H257405   5.031   3.066  11.317  0.9985  1.5256 -0.7407
11972TIP3   OH257406   6.480   0.629   3.909 -0.4764  0.5257  0.6353
11972TIP3    H157407   6.537   0.683   3.855 -1.6414 -0.0476 -1.1896
11972TIP3    H257408   6.471   0.679   3.990  0.7884  1.6806  0.0928
11973TIP3   OH257409   5.716   0.108  13.100  0.5772  0.3102 -0.7734
11973TIP3    H157410   5.810   0.090  13.097  0.7523  0.9640  0.2940
11973TIP3    H257411   5.707   0.195  13.063  0.2043 -0.3387 -2.2402
11974TIP3   OH257412   3.977   0.659  12.493  0.2490  0.0927 -0.1043
11974TIP3    H157413   4.046   0.669  12.428 -1.0638 -0.4237 -1.6130
11974TIP3    H257414   3.982   0.567  12.519  1.2002  0.4555  1.0326
11975TIP3   OH257415   5.990   0.748   0.259 -0.1578 -0.0927  0.0309
11975TIP3    H157416   6.044   0.736   0.337 -0.8397  1.4205  0.7523
11975TIP3    H257417   6.053   0.749   0.186  0.6181 -0.0983  0.6971
11976TIP3   OH257418   3.028   1.016  15.421 -0.4664  0.1213 -0.7201
11976TIP3    H157419   3.113   0.978  15.444 -1.1987 -0.7722  0.5612
11976TIP3    H257420   3.022   1.095  15.474 -0.7288 -0.1832 -0.2925
11977TIP3   OH257421   5.352   5.060   0.803  0.4788 -0.2299  0.5304
11977TIP3    H157422   5.315   5.018   0.880 -0.8621 -0.4922 -0.2364
11977TIP3    H257423   5.418   5.121   0.837 -1.0202  0.6110  1.9799
11978TIP3   OH257424   6.586   2.191  14.189  0.0337 -0.7833  0.4939
11978TIP3    H157425   6.529   2.252  14.235  0.1895 -0.9065  0.8486
11978TIP3    H257426   6.532   2.112  14.179 -0.3609 -0.4078 -0.4495
11979TIP3   OH257427   4.523   1.516   0.072  1.0715  0.2769  0.4332
11979TIP3    H157428   4.440   1.496   0.116 -1.4352 -2.1773 -5.0122
11979TIP3    H257429   4.573   1.435   0.076 -0.5523 -1.0654 -3.7911
11980TIP3   OH257430   2.224   4.178   1.473  0.3687  0.1838  0.5486
11980TIP3    H157431   2.184   4.134   1.549 -0.4076  1.2492  0.7682
11980TIP3    H257432   2.253   4.106   1.417  0.3401 -0.6172  1.5385
11981TIP3   OH257433   1.470   1.523  13.824 -0.6952 -0.2584  0.0749
11981TIP3    H157434   1.475   1.494  13.733  0.9316  0.9324 -0.2413
11981TIP3    H257435   1.536   1.592  13.831  1.0981 -2.1672  2.8606
11982TIP3   OH257436   3.479   2.361  10.916  0.2032  0.3540 -0.3830
11982TIP3    H157437   3.505   2.442  10.874  0.2301  0.9439  0.7458
11982TIP3    H257438   3.389   2.377  10.946  0.8771  0.6942  1.5648
11983TIP3   OH257439   4.219   3.456   1.758  0.1962 -0.4898  0.2193
11983TIP3    H157440   4.135   3.435   1.718 -0.3705  0.6496  0.7711
11983TIP3    H257441   4.269   3.499   1.689  0.0965 -0.6398  0.0561
11984TIP3   OH257442   6.298   1.672  12.262 -0.4105 -0.1048 -0.4692
11984TIP3    H157443   6.313   1.595  12.207  0.2873 -0.5203  0.3002
11984TIP3    H257444   6.385   1.707  12.280 -0.7695  1.3317 -1.4544
11985TIP3   OH257445   2.928   6.160  15.094  0.0926  0.4939 -0.4732
11985TIP3    H157446   2.989   6.220  15.137 -1.3995  1.0926  0.8480
11985TIP3    H257447   2.842   6.188  15.124 -0.7045 -1.6564 -0.6639
11986TIP3   OH257448   4.603   6.515   0.014  0.0928  0.3435 -0.0829
11986TIP3    H157449   4.656   6.588  -0.017 -1.0232  0.4516 -1.8055
11986TIP3    H257450   4.514   6.550   0.019 -0.1765 -0.4262  0.7313
11987TIP3   OH257451   6.567   6.059   1.482  0.7053  0.2919 -0.4585
11987TIP3    H157452   6.579   5.965   1.474 -2.5122 -0.2100  0.0360
11987TIP3    H257453   6.587   6.079   1.573  0.4003 -0.1014 -0.3046
11988TIP3   OH257454   0.566   6.066  14.944 -0.3571  0.2923  0.2418
11988TIP3    H157455   0.562   5.970  14.943 -0.7150  0.3090 -0.2768
11988TIP3    H257456   0.659   6.086  14.944 -0.2506 -0.0602  2.6203
11989TIP3   OH257457   6.704   3.392   0.157 -0.8479 -0.1491  0.0545
11989TIP3    H157458   6.772   3.331   0.184  0.7444  1.3415 -0.5333
11989TIP3    H257459   6.738   3.478   0.180 -0.7269  0.9479 -3.8147
11990TIP3   OH257460   2.919   1.434   3.251  0.1624 -0.9105 -0.1491
11990TIP3    H157461   2.902   1.506   3.190 -2.9089 -0.0253  1.6473
11990TIP3    H257462   2.889   1.356   3.204 -2.7379 -0.1644  0.3585
11991TIP3   OH257463   0.693   3.607  11.402 -0.3270 -0.0756 -0.3035
11991TIP3    H157464   0.704   3.699  11.377 -1.6612  0.6101  1.5516
11991TIP3    H257465   0.770   3.588  11.456 -1.9247  1.0878  2.4461
11992TIP3   OH257466   6.387   2.040   3.190 -0.2277 -0.2999 -0.2358
11992TIP3    H157467   6.412   2.132   3.198  2.3060 -1.0106  0.6001
11992TIP3    H257468   6.315   2.029   3.253  0.3328  0.8153  0.6180
11993TIP3   OH257469   2.484   0.771   3.869  0.3466  0.0812  0.1524
11993TIP3    H157470   2.512   0.764   3.960 -1.9247 -0.1879  0.8597
11993TIP3    H257471   2.483   0.866   3.852  0.7389  0.1341  0.4077
11994TIP3   OH257472   5.021   2.893  12.194  0.0533 -0.4668  0.3582
11994TIP3    H157473   4.948   2.868  12.137 -0.5215  0.1749  0.8053
11994TIP3    H257474   5.066   2.962  12.145  1.2702 -1.9194 -0.5964
11995TIP3   OH257475   5.669   2.324  10.500  0.0823  0.1840 -0.1008
11995TIP3    H157476   5.591   2.347  10.449 -0.0348 -0.7872 -0.3628
11995TIP3    H257477   5.645   2.244  10.546  1.4909 -1.0329 -1.4657
11996TIP3   OH257478   5.856   1.345  12.534  0.5375 -0.3310  0.3579
11996TIP3    H157479   5.794   1.309  12.470  1.4142 -1.2375 -0.0147
11996TIP3    H257480   5.926   1.381  12.480  2.1710 -2.7155  0.7819
11997TIP3   OH257481   3.394   1.747  13.488 -0.1924  0.3228  0.0270
11997TIP3    H157482   3.428   1.794  13.411  0.0193  3.2871  1.8324
11997TIP3    H257483   3.450   1.777  13.560 -2.0938 -0.2977  1.7922
11998TIP3   OH257484   0.757   3.883  13.609 -0.3800  0.0698  0.5414
11998TIP3    H157485   0.786   3.845  13.692 -1.6792 -0.6630  0.6773
11998TIP3    H257486   0.826   3.862  13.547 -1.0669 -2.5844  0.6032
11999TIP3   OH257487   1.361   5.037   4.763 -0.2373  0.0585 -0.1122
11999TIP3    H157488   1.366   4.992   4.848  2.6699  0.5811  0.0227
11999TIP3    H257489   1.269   5.028   4.737 -0.8939 -1.2118  2.4862
12000TIP3   OH257490   5.712   4.308   1.999  0.2344 -0.1351 -0.8326
12000TIP3    H157491   5.718   4.359   1.918 -0.2168  1.0357 -0.1360
12000TIP3    H257492   5.626   4.266   1.996  0.5851 -0.8278 -1.3806
12001TIP3   OH257493   1.194   3.287   4.280 -0.5826  0.3127  0.0457
12001TIP3    H157494   1.123   3.352   4.282  0.5647  1.5881  0.1816
12001TIP3    H257495   1.165   3.219   4.341 -1.3684  1.1672  0.6441
12002TIP3   OH257496   2.174   4.188  14.120  0.6530  0.2373 -0.2129
12002TIP3    H157497   2.154   4.096  14.104 -0.6109  0.8876 -2.7662
12002TIP3    H257498   2.090   4.233  14.108  1.1999  1.6972  1.2848
12003TIP3   OH257499   5.492   3.386  16.360 -0.1195 -0.1397  0.2676
12003TIP3    H157500   5.561   3.321  16.364 -2.8549 -3.1300  0.5906
12003TIP3    H257501   5.492   3.427  16.446 -0.4428 -1.9360  1.1352
12004TIP3   OH257502   0.898   1.882  15.067  0.5532 -0.8214  0.1193
12004TIP3    H157503   0.835   1.941  15.026  0.9373  0.5340  1.4012
12004TIP3    H257504   0.853   1.798  15.073 -0.3652 -0.4029 -0.8685
12005TIP3   OH257505   6.495   1.855   4.316  0.4295 -0.1329  0.1343
12005TIP3    H157506   6.488   1.765   4.284 -3.5518 -0.3357  1.2992
12005TIP3    H257507   6.558   1.850   4.388 -0.2280 -2.1621  0.5973
12006TIP3   OH257508   0.138   1.702   1.183 -0.6883  0.0133 -0.2039
12006TIP3    H157509   0.175   1.717   1.097  1.7140  2.2203  1.1441
12006TIP3    H257510   0.057   1.753   1.185  1.3509  3.4085  0.1958
12007TIP3   OH257511   4.223   2.899   4.379 -0.2615 -0.0589 -0.8179
12007TIP3    H157512   4.293   2.867   4.436 -1.4045  0.1857  0.7658
12007TIP3    H257513   4.189   2.821   4.337 -1.5900 -0.6909  1.3721
12008TIP3   OH257514   5.071   5.359  13.196  0.5810 -0.4473 -0.2439
12008TIP3    H157515   5.016   5.307  13.254  1.2571 -0.5036  0.3441
12008TIP3    H257516   5.144   5.302  13.174  0.1556 -0.5578 -1.4398
12009TIP3   OH257517   2.867   1.586  13.824  0.5376  0.5456 -0.0631
12009TIP3    H157518   2.870   1.629  13.910 -0.2140 -1.1860  0.8601
12009TIP3    H257519   2.959   1.572  13.801  0.7373  0.2555  0.8753
12010TIP3   OH257520   3.642   2.831   4.485  0.1672  0.3700  0.0390
12010TIP3    H157521   3.642   2.924   4.462  2.6157  0.3266 -0.2687
12010TIP3    H257522   3.678   2.828   4.574  1.3202 -0.3680 -0.4398
12011TIP3   OH257523   4.562   1.501   2.829 -0.9065  0.5290  0.1322
12011TIP3    H157524   4.648   1.540   2.814 -0.8204  0.5206  0.5960
12011TIP3    H257525   4.534   1.535   2.914 -1.3659  0.5387 -0.0183
12012TIP3   OH257526   2.822   2.801   4.844 -0.6765  0.6692 -0.6663
12012TIP3    H157527   2.824   2.890   4.882  2.0911  0.5141 -0.3288
12012TIP3    H257528   2.857   2.745   4.914 -2.3184 -0.6895 -0.9143
12013TIP3   OH257529   1.003   6.553   2.609  0.1877  0.1385 -0.2442
12013TIP3    H157530   1.046   6.563   2.693  2.2837  0.3388 -1.2930
12013TIP3    H257531   0.958   6.468   2.614 -0.9155  0.8289  1.5698
12014TIP3   OH257532   5.194   3.142   1.958  0.3336  0.5775 -0.5110
12014TIP3    H157533   5.143   3.124   1.879  0.0936  1.1061 -0.4805
12014TIP3    H257534   5.132   3.130   2.030  1.2272 -2.5388 -0.2105
12015TIP3   OH257535   5.978   4.115   0.143  0.1280  1.3460  0.2787
12015TIP3    H157536   5.957   4.102   0.236  0.2710  1.2766  0.3015
12015TIP3    H257537   5.920   4.187   0.116 -0.2715  1.0306  0.2904
12016TIP3   OH257538   5.073   5.038  15.515  0.2687 -0.1088  0.1149
12016TIP3    H157539   5.070   5.060  15.422  1.4270  1.0300  0.3350
12016TIP3    H257540   5.005   4.971  15.526 -0.7871  0.7116 -1.2871
12017TIP3   OH257541   5.428   2.456  14.057  0.7833 -0.3475  0.3150
12017TIP3    H157542   5.517   2.464  14.091  1.2018  1.9380 -1.1838
12017TIP3    H257543   5.375   2.510  14.115  0.6290 -0.5333  0.3487
12018TIP3   OH257544   3.565   1.927  14.773  0.2365 -0.0694 -0.2582
12018TIP3    H157545   3.543   1.844  14.730  0.5502 -0.8490  1.0551
12018TIP3    H257546   3.558   1.907  14.866  0.0447  1.4676  0.0579
12019TIP3   OH257547   0.665   2.169  12.575  0.1302 -0.0993  0.6238
12019TIP3    H157548   0.736   2.132  12.627  0.3165 -0.2777  0.2393
12019TIP3    H257549   0.589   2.114  12.595 -0.4597  1.3804  2.7140
12020TIP3   OH257550   3.097   4.624  11.145  0.5299 -0.1145 -0.3082
12020TIP3    H157551   3.192   4.612  11.152  0.8407  0.5043 -2.8721
12020TIP3    H257552   3.081   4.709  11.186  1.0501 -0.3198  0.3359
12021TIP3   OH257553   2.572   1.596  11.516 -0.0837 -0.2400 -0.1020
12021TIP3    H157554   2.537   1.507  11.506  0.4108 -0.4365 -0.1102
12021TIP3    H257555   2.559   1.637  11.431 -0.0547 -0.4010 -0.1837
12022TIP3   OH257556   5.858   2.294   1.348  0.0342  0.0409 -0.1279
12022TIP3    H157557   5.942   2.251   1.361  0.5530  1.4035  1.0320
12022TIP3    H257558   5.877   2.387   1.348 -1.3428  0.3447 -0.8178
12023TIP3   OH257559   0.400   4.976   3.328 -0.1428  0.5709 -0.9364
12023TIP3    H157560   0.477   4.948   3.377 -0.6231 -1.5581 -1.3306
12023TIP3    H257561   0.406   4.929   3.245 -2.3046 -0.3140 -0.6229
12024TIP3   OH257562   5.660   5.301   4.318  0.0961 -0.1443 -0.5370
12024TIP3    H157563   5.671   5.220   4.366 -1.0937 -0.0260 -0.0373
12024TIP3    H257564   5.575   5.334   4.346  0.9618  1.7361 -0.0467
12025TIP3   OH257565   5.414   2.925  11.960  0.1147  0.1778 -0.1182
12025TIP3    H157566   5.371   3.008  11.980  1.5067  0.8321  0.2586
12025TIP3    H257567   5.507   2.947  11.954  0.3047 -0.9958 -2.0397
12026TIP3   OH257568   2.486   2.137   2.528 -0.3520 -0.4260 -0.4024
12026TIP3    H157569   2.408   2.126   2.473 -0.0121 -1.4828 -0.6923
12026TIP3    H257570   2.540   2.202   2.482 -0.7716 -0.1642 -0.5239
12027TIP3   OH257571   1.912   1.744   4.513  0.0326  0.3309 -0.1569
12027TIP3    H157572   1.886   1.696   4.592 -1.3419 -1.0160 -1.3956
12027TIP3    H257573   1.848   1.815   4.506 -0.0289  0.2702 -0.2149
12028TIP3   OH257574   3.337   6.459   0.663  0.4123  0.2715  0.2358
12028TIP3    H157575   3.280   6.467   0.586  0.3071 -0.0568  0.2793
12028TIP3    H257576   3.278   6.469   0.737  0.4589  0.2412  0.2769
12029TIP3   OH257577   5.571   5.286   5.407  0.5255  0.3723 -0.2415
12029TIP3    H157578   5.529   5.206   5.377 -0.2704  0.3613  0.8819
12029TIP3    H257579   5.531   5.356   5.355 -1.2523  0.4190  1.1361
12030TIP3   OH257580   5.708   2.012  16.827 -0.2570  0.3915 -0.1042
12030TIP3    H157581   5.614   2.002  16.838 -0.2076 -0.8318 -0.7871
12030TIP3    H257582   5.735   1.937  16.774  0.7436  1.9378 -1.8429
12031TIP3   OH257583   6.232   1.124  13.824 -0.6489  0.1488 -0.0338
12031TIP3    H157584   6.183   1.194  13.781 -0.7214  0.4976  0.6217
12031TIP3    H257585   6.167   1.058  13.845 -0.3935 -0.6935 -1.8007
12032TIP3   OH257586   3.301   3.974  11.820 -0.0304 -0.2264 -0.0315
12032TIP3    H157587   3.326   3.994  11.910  0.5081 -0.6919 -0.0721
12032TIP3    H257588   3.299   4.059  11.775  0.1424 -0.0467  0.3044
12033TIP3   OH257589   2.418   3.009  14.200  0.0749 -0.4962  0.4214
12033TIP3    H157590   2.418   3.037  14.109  0.4779  0.7950  0.8086
12033TIP3    H257591   2.371   3.078  14.246  1.4257 -0.2470  1.4531
12034TIP3   OH257592   5.454   4.612   4.266 -0.2362  0.4346 -0.1782
12034TIP3    H157593   5.417   4.686   4.217 -0.3746 -0.0921 -0.8762
12034TIP3    H257594   5.548   4.626   4.262 -0.3232  1.5340  1.2170
12035TIP3   OH257595   4.192   4.273  16.358  0.5089 -0.7468 -0.7920
12035TIP3    H157596   4.173   4.181  16.338  0.4739 -0.7239 -0.8676
12035TIP3    H257597   4.191   4.278  16.454  0.0336 -0.7260 -0.7995
12036TIP3   OH257598   4.617   1.495   3.751 -0.2571  0.0218  0.1968
12036TIP3    H157599   4.629   1.540   3.668  1.5646  0.2246  0.5591
12036TIP3    H257600   4.601   1.565   3.814 -0.7056 -0.0646  0.1776
12037TIP3   OH257601   5.676   2.246   7.124  0.2202  0.0041 -0.2592
12037TIP3    H157602   5.729   2.313   7.080  0.3705  0.2391  0.2717
12037TIP3    H257603   5.697   2.165   7.078  2.6134 -0.2741  1.2197
12038TIP3   OH257604   2.933   6.301  10.584  0.4970  0.5637  0.4181
12038TIP3    H157605   3.028   6.288  10.579  0.6452  1.5962  0.3754
12038TIP3    H257606   2.923   6.392  10.614 -0.4663 -0.0862  2.0983
12039TIP3   OH257607   6.400   1.580   0.645  0.4803 -0.2298 -0.2170
12039TIP3    H157608   6.325   1.567   0.587  1.4987  0.0269 -1.6138
12039TIP3    H257609   6.383   1.522   0.720 -0.7991 -0.6348 -0.8026
12040TIP3   OH257610   6.762   0.597   2.960 -0.0266  0.0212 -0.4128
12040TIP3    H157611   6.833   0.593   2.895  1.0365  1.5327  0.6155
12040TIP3    H257612   6.718   0.680   2.944 -0.9627 -0.4732 -0.4257
12041TIP3   OH257613   3.088   4.884  14.502  0.3177  0.2184  0.2760
12041TIP3    H157614   3.039   4.807  14.475 -0.0750  0.8525 -0.8506
12041TIP3    H257615   3.179   4.864  14.482  0.5041 -0.8446  2.0929
12042TIP3   OH257616   2.295   0.335  16.213 -0.2727 -0.0451  0.5412
12042TIP3    H157617   2.280   0.400  16.281 -1.1418  0.1533  0.1748
12042TIP3    H257618   2.226   0.352  16.148 -0.8912 -1.7023  0.7211
12043TIP3   OH257619   5.511   5.964  15.024 -0.2483  0.4242  0.0024
12043TIP3    H157620   5.506   6.058  15.041 -1.5767  0.3113  0.2787
12043TIP3    H257621   5.602   5.949  14.999  0.2136  1.6165  0.9300
12044TIP3   OH257622   5.901   0.023   1.847 -0.1075  0.1592  0.1431
12044TIP3    H157623   5.859  -0.062   1.842 -0.9379  0.5906 -0.3944
12044TIP3    H257624   5.875   0.058   1.932 -0.0783  0.0324  0.2033
12045TIP3   OH257625   6.803   3.035  16.578 -0.0690 -0.0269  0.0092
12045TIP3    H157626   6.890   3.073  16.590  0.7491 -0.9824 -2.4528
12045TIP3    H257627   6.754   3.060  16.656  2.1340  1.3167  0.9963
12046TIP3   OH257628   3.107   1.202  15.161  0.0948 -0.5745 -0.1226
12046TIP3    H157629   3.154   1.144  15.101 -0.5941  0.1257 -1.3617
12046TIP3    H257630   3.042   1.146  15.203  1.0642 -1.2293  0.5155
12047TIP3   OH257631   0.324   0.646  15.156 -0.0365 -0.4616  0.1837
12047TIP3    H157632   0.253   0.599  15.199 -0.1641  1.2683  1.9174
12047TIP3    H257633   0.314   0.737  15.186  0.2817  0.6851 -2.9419
12048TIP3   OH257634   5.414   6.444  13.129 -0.6935 -0.0721 -0.2733
12048TIP3    H157635   5.475   6.473  13.061 -0.4023  1.6417  0.6850
12048TIP3    H257636   5.453   6.364  13.163  0.7510  0.7050 -0.0561
12049TIP3   OH257637   1.552   6.656  15.738  0.1302 -0.2186  0.0324
12049TIP3    H157638   1.485   6.623  15.679  2.5778 -2.0365 -1.8448
12049TIP3    H257639   1.601   6.720  15.685  1.4071 -0.7574  0.5367
12050TIP3   OH257640   1.691   5.858   2.712  0.4389 -0.0448  0.0680
12050TIP3    H157641   1.714   5.931   2.655 -1.0510  0.3679 -0.0296
12050TIP3    H257642   1.758   5.792   2.696  1.2325  0.9103 -0.5833
12051TIP3   OH257643   4.891   4.207  12.685  0.0587  0.3787 -0.2304
12051TIP3    H157644   4.984   4.211  12.663  0.0919  0.8995 -0.0098
12051TIP3    H257645   4.870   4.114  12.685  0.7584  0.2187  0.4368
12052TIP3   OH257646   3.900   6.131  11.356 -0.3223  0.1257 -0.3002
12052TIP3    H157647   3.879   6.213  11.311 -1.1654  0.2759  0.3457
12052TIP3    H257648   3.936   6.075  11.288 -0.9700  0.5787 -1.0218
12053TIP3   OH257649   3.101   4.467  12.139  0.3111  0.7435 -0.3418
12053TIP3    H157650   3.180   4.522  12.141  0.5792  0.3585 -0.2836
12053TIP3    H257651   3.071   4.466  12.230  0.4255  0.6249 -0.3045
12054TIP3   OH257652   3.482   0.958  15.405  0.0762  0.4918 -0.6680
12054TIP3    H157653   3.493   0.986  15.314 -0.6614 -0.9970 -1.2271
12054TIP3    H257654   3.480   0.862  15.401 -0.3493  0.4208  0.8680
12055TIP3   OH257655   3.624   4.098  13.103  0.3379  0.2904  0.1302
12055TIP3    H157656   3.695   4.148  13.062  0.8530 -0.0531  0.6092
12055TIP3    H257657   3.603   4.146  13.183 -0.1494  0.5372 -0.1425
12056TIP3   OH257658   5.115   1.176   3.332  0.1168 -0.1708  0.3775
12056TIP3    H157659   5.128   1.089   3.294  0.8198 -0.8051  2.0191
12056TIP3    H257660   5.048   1.217   3.277 -0.4964 -1.8976 -0.1818
12057TIP3   OH257661   0.103   4.312   1.945 -0.5712 -0.4383 -0.3674
12057TIP3    H157662   0.023   4.260   1.945 -1.6110  1.1092 -0.7531
12057TIP3    H257663   0.073   4.402   1.930  1.1249  0.3370  0.7185
12058TIP3   OH257664   5.199   6.005   5.110  0.0051 -0.1911 -0.9432
12058TIP3    H157665   5.202   5.968   5.022 -2.1841  0.4386 -1.3197
12058TIP3    H257666   5.123   6.062   5.109 -0.6802 -0.9812  1.6784
12059TIP3   OH257667   1.038   5.896  16.801 -0.0145 -0.6035 -0.5573
12059TIP3    H157668   1.041   5.825  16.865  0.0388 -1.3605 -1.3872
12059TIP3    H257669   1.120   5.943  16.814 -1.1968  0.9093  1.7753
12060TIP3   OH257670   1.812   4.425  13.603 -0.0750  0.2951 -0.4410
12060TIP3    H157671   1.843   4.515  13.597 -2.6660  1.1760 -1.1520
12060TIP3    H257672   1.887   4.372  13.576  1.9482  2.1402  1.3843
12061TIP3   OH257673   6.226   6.396   6.287 -0.4389 -0.2475 -0.1376
12061TIP3    H157674   6.144   6.441   6.267 -1.3063 -1.6282  0.2448
12061TIP3    H257675   6.223   6.381   6.381  0.7381  0.6272  0.0399
12062TIP3   OH257676   1.305   0.445   4.343  0.2231 -0.1864 -0.1159
12062TIP3    H157677   1.308   0.366   4.397  1.1926  0.6932  1.1382
12062TIP3    H257678   1.216   0.447   4.308 -0.8205 -0.1016  2.4635
12063TIP3   OH257679   4.389   5.489   2.546  0.2830 -0.6938  0.2971
12063TIP3    H157680   4.480   5.460   2.543  0.7077  0.2685  2.6164
12063TIP3    H257681   4.382   5.557   2.479  0.9884 -1.4938 -0.6015
12064TIP3   OH257682   3.108   6.676   1.567 -0.0650  0.4953 -0.1191
12064TIP3    H157683   3.033   6.702   1.512  0.1820 -0.2821 -0.8253
12064TIP3    H257684   3.080   6.596   1.610  0.1408  0.5282  0.0762
12065TIP3   OH257685   5.646   1.277   5.948 -0.1835  0.1520  0.5101
12065TIP3    H157686   5.632   1.288   6.042 -0.4452  1.0301  0.3688
12065TIP3    H257687   5.572   1.224   5.919  1.7998 -3.3369  1.4354
12066TIP3   OH257688   4.599   2.783  16.436  0.3115 -0.4451 -0.4034
12066TIP3    H157689   4.624   2.846  16.369  0.0692  1.3463  1.1652
12066TIP3    H257690   4.669   2.786  16.500 -0.7074 -0.2219  0.7236
12067TIP3   OH257691   0.020   1.520   1.860  0.0016  0.3312  0.1851
12067TIP3    H157692   0.114   1.535   1.864  0.2387 -0.7928 -0.6846
12067TIP3    H257693  -0.019   1.607   1.861  0.9623  0.7784  2.1708
12068TIP3   OH257694   4.645   5.971   2.174 -0.2770 -0.0691  1.2288
12068TIP3    H157695   4.657   6.003   2.263 -1.3361 -1.4886  1.8897
12068TIP3    H257696   4.598   5.888   2.183  1.1125 -1.1083 -0.5382
12069TIP3   OH257697   0.425   1.935   2.973  0.0271 -0.4581  0.2071
12069TIP3    H157698   0.442   1.883   3.051  0.6034 -2.0666 -0.9525
12069TIP3    H257699   0.484   2.010   2.980  1.4781 -1.5911  0.3884
12070TIP3   OH257700   3.636   2.190   4.938  0.1780 -0.1492 -0.1218
12070TIP3    H157701   3.713   2.190   4.994  0.5259  3.6401 -0.4483
12070TIP3    H257702   3.670   2.188   4.849 -0.0864  1.2979 -0.2653
12071TIP3   OH257703   1.429   4.778   4.679 -0.0699 -0.0228 -0.2857
12071TIP3    H157704   1.520   4.760   4.702  0.0505  0.3312 -0.4700
12071TIP3    H257705   1.417   4.870   4.702  0.0069  0.2931 -1.4883
12072TIP3   OH257706   0.456   1.322  16.839 -0.1243 -0.1586  0.3736
12072TIP3    H157707   0.467   1.244  16.892  0.0352 -0.0466  0.5068
12072TIP3    H257708   0.363   1.324  16.817 -0.1297 -0.3779  0.3791
12073TIP3   OH257709   0.464   5.937  16.459  0.6376 -0.0089  0.4950
12073TIP3    H157710   0.508   5.860  16.494 -0.6376 -1.3060 -0.7201
12073TIP3    H257711   0.422   5.907  16.378  0.2648  1.9918 -0.0973
12074TIP3   OH257712   2.459   3.042   3.822  0.3882 -1.0453  0.7252
12074TIP3    H157713   2.430   2.956   3.793  0.9801 -0.7451 -0.7981
12074TIP3    H257714   2.494   3.028   3.910 -1.7624 -1.9046  1.4652
12075TIP3   OH257715   4.760   6.164   0.242 -0.2696  0.3175  0.0462
12075TIP3    H157716   4.813   6.143   0.165  1.5751 -0.8239  1.5809
12075TIP3    H257717   4.820   6.154   0.316 -1.3914  3.6167  1.4894
12076TIP3   OH257718   4.950   3.533   5.134  0.5156 -0.0301  0.2834
12076TIP3    H157719   5.018   3.581   5.181 -0.1645  1.3327 -0.1009
12076TIP3    H257720   4.986   3.520   5.047  0.6231 -0.0521  0.3309
12077TIP3   OH257721   5.808   6.564   1.511  0.9474  0.3069 -0.1273
12077TIP3    H157722   5.776   6.580   1.600  0.5159  0.1455 -0.2509
12077TIP3    H257723   5.899   6.591   1.513  0.9096  0.4064  0.3384
12078TIP3   OH257724   3.502   4.087   0.408  0.1085 -0.5452  0.2146
12078TIP3    H157725   3.555   4.166   0.401 -0.1407 -0.4299 -0.3520
12078TIP3    H257726   3.438   4.108   0.477 -0.1775 -0.1239 -0.1732
12079TIP3   OH257727   6.323   3.194  13.906 -0.1089 -0.4624 -0.8034
12079TIP3    H157728   6.270   3.268  13.935  1.0690  0.6716 -1.4909
12079TIP3    H257729   6.329   3.137  13.983  0.6679  1.1446  0.3549
12080TIP3   OH257730   2.084   6.733   4.845  0.2591  0.1828 -0.3816
12080TIP3    H157731   2.088   6.668   4.775  0.5424 -0.2794  0.0543
12080TIP3    H257732   2.070   6.681   4.925  1.0319  0.6136  0.0376
12081TIP3   OH257733   2.426   5.818   4.085 -0.0939 -0.8153 -0.2656
12081TIP3    H157734   2.474   5.883   4.034 -0.1006  0.0657  0.8310
12081TIP3    H257735   2.367   5.777   4.022  0.6526 -0.4917 -1.1900
12082TIP3   OH257736   0.895   4.411   1.606  0.1401 -0.7228 -0.0470
12082TIP3    H157737   0.869   4.354   1.533  1.1891 -2.6534  1.0495
12082TIP3    H257738   0.833   4.390   1.676 -0.6749  0.9072 -0.2594
12083TIP3   OH257739   3.360   1.729  11.433  0.3664  0.0128 -0.4482
12083TIP3    H157740   3.452   1.726  11.407 -0.1078  0.2820 -2.2488
12083TIP3    H257741   3.330   1.638  11.426  1.3161 -0.6940  3.4360
12084TIP3   OH257742   6.323   4.354  15.749  0.0284  0.3416 -0.1870
12084TIP3    H157743   6.270   4.276  15.733  0.4054  0.0774 -0.1824
12084TIP3    H257744   6.380   4.330  15.822  1.9708 -0.3234 -1.8472
12085TIP3   OH257745   6.713   2.020   0.157 -0.0471  0.6100 -0.2970
12085TIP3    H157746   6.676   2.104   0.185  0.4871  0.7657 -0.0393
12085TIP3    H257747   6.638   1.962   0.150 -0.2429  0.6688  1.1326
12086TIP3   OH257748   5.147   2.841   1.776 -0.3817  0.0798 -0.2478
12086TIP3    H157749   5.058   2.814   1.798  0.1746 -1.5978 -0.0058
12086TIP3    H257750   5.144   2.861   1.682 -1.2932  1.2908  0.0188
12087TIP3   OH257751   6.046   5.625  16.282 -0.1827  0.3142 -0.0548
12087TIP3    H157752   6.016   5.649  16.369 -2.1403  0.2471 -0.6925
12087TIP3    H257753   6.087   5.539  16.294  0.3869  0.7187  0.9490
12088TIP3   OH257754   2.641   2.310  15.025 -0.3542 -0.0196 -0.3070
12088TIP3    H157755   2.691   2.294  14.946  1.1941  0.1204  0.6232
12088TIP3    H257756   2.598   2.394  15.010 -1.0427 -0.5705 -1.4737
12089TIP3   OH257757   0.433   1.445  17.265  0.5513  0.0349  0.4917
12089TIP3    H157758   0.339   1.431  17.273  0.8240 -2.1222  0.4459
12089TIP3    H257759   0.443   1.514  17.199 -0.9992  0.6665  0.9148
12090TIP3   OH257760   3.332   0.744  10.740  0.1342 -0.4403 -0.1324
12090TIP3    H157761   3.279   0.822  10.723 -0.3584 -0.7535 -0.0201
12090TIP3    H257762   3.355   0.711  10.653 -3.0933 -2.5300 -0.2685
12091TIP3   OH257763   5.585   1.136   2.637 -0.2344 -0.3411 -0.6717
12091TIP3    H157764   5.509   1.081   2.617  0.9508 -2.1634 -0.2612
12091TIP3    H257765   5.581   1.148   2.732  0.5064 -1.2488 -0.5147
12092TIP3   OH257766   5.861   1.154  14.626  0.5785  0.5096 -0.4310
12092TIP3    H157767   5.794   1.093  14.658  0.8977 -0.7068 -2.0389
12092TIP3    H257768   5.942   1.104  14.627  0.9084  1.0059 -1.4323
12093TIP3   OH257769   2.688   1.265  16.792 -0.7561  0.3906 -0.4604
12093TIP3    H157770   2.640   1.316  16.859  0.3546  0.4938  0.2674
12093TIP3    H257771   2.652   1.177  16.799 -1.2222  0.5923 -0.2820
12094TIP3   OH257772   6.085   2.723  14.459  0.4896  0.5051 -0.6945
12094TIP3    H157773   6.123   2.779  14.526 -1.0006 -0.4778  1.0229
12094TIP3    H257774   6.110   2.634  14.485  1.8073  0.2447 -2.7138
12095TIP3   OH257775   3.675   4.648  14.016 -0.0644 -0.2625  0.0005
12095TIP3    H157776   3.749   4.675  13.962  0.7228 -1.3645  0.5212
12095TIP3    H257777   3.679   4.706  14.093 -1.7093  1.9152 -1.4738
12096TIP3   OH257778   1.987   3.629  12.728 -0.1168 -0.2355 -0.0096
12096TIP3    H157779   2.041   3.649  12.804  1.1275  0.7816 -1.1400
12096TIP3    H257780   1.899   3.656  12.753  0.4301  0.8469  0.7667
12097TIP3   OH257781   2.540   5.976  16.420  0.1816  0.5859  0.7523
12097TIP3    H157782   2.635   5.962  16.415 -0.0616 -1.0368  0.1130
12097TIP3    H257783   2.524   6.051  16.364  0.6956 -1.3867 -2.1864
12098TIP3   OH257784   2.651   6.277  15.061 -0.1654  0.2892  0.0026
12098TIP3    H157785   2.593   6.235  14.999 -1.0124 -1.3334  1.8380
12098TIP3    H257786   2.627   6.370  15.057 -0.0456  0.2490 -2.2060
12099TIP3   OH257787   3.663   1.333  13.408 -0.1708 -0.5259 -0.0893
12099TIP3    H157788   3.585   1.308  13.458  1.2404 -2.4518  1.2212
12099TIP3    H257789   3.712   1.391  13.467 -0.4901  0.5029 -0.8248
12100TIP3   OH257790   0.514   6.511   3.930  0.2018  0.5632 -0.6770
12100TIP3    H157791   0.422   6.490   3.916 -0.0789  2.0890 -1.1512
12100TIP3    H257792   0.540   6.560   3.852  2.0259 -1.7429 -1.5767
12101TIP3   OH257793   0.639   6.759   1.103 -0.3041 -0.1424 -0.1878
12101TIP3    H157794   0.556   6.741   1.146 -0.5565  0.1197 -0.5589
12101TIP3    H257795   0.647   6.691   1.036  0.3402 -0.8638  0.6189
12102TIP3   OH257796   4.815   3.525  11.685  0.3497 -0.1440 -0.1658
12102TIP3    H157797   4.824   3.430  11.693 -3.1296 -0.4070  1.3200
12102TIP3    H257798   4.859   3.560  11.762  0.0362 -0.6662  0.2524
12103TIP3   OH257799   6.690   1.878   4.509  0.0011  0.2254  0.3622
12103TIP3    H157800   6.696   1.960   4.461 -1.6530  0.1121 -0.0643
12103TIP3    H257801   6.696   1.903   4.601  1.3688  0.6285  0.1688
12104TIP3   OH257802   4.404   4.811   4.637 -0.0648  0.6573 -0.5183
12104TIP3    H157803   4.426   4.741   4.698 -1.4751 -0.1080 -0.8751
12104TIP3    H257804   4.487   4.837   4.599  1.0109  1.8000  2.4170
12105TIP3   OH257805   5.990   1.897  15.742 -0.8973  0.2335  0.6194
12105TIP3    H157806   5.975   1.803  15.754  1.2138 -0.1933  0.0428
12105TIP3    H257807   5.973   1.935  15.828 -0.0069 -0.9256  1.3283
12106TIP3   OH257808   3.538   0.601  15.098 -0.3035  0.0577 -0.1963
12106TIP3    H157809   3.462   0.554  15.065 -0.8170  0.7960 -0.0930
12106TIP3    H257810   3.586   0.628  15.020  0.4063 -1.2927 -0.2372
12107TIP3   OH257811   3.708   6.644   1.915 -0.0189 -0.4771  0.2511
12107TIP3    H157812   3.739   6.685   1.834  0.3384 -0.2569  0.4992
12107TIP3    H257813   3.624   6.604   1.891  0.1881 -0.5944 -0.2799
12108TIP3   OH257814   4.398   1.358  12.201 -0.0243 -0.5424 -0.0730
12108TIP3    H157815   4.424   1.415  12.274  0.4635 -0.3371 -0.4063
12108TIP3    H257816   4.303   1.371  12.193 -0.3384 -1.6740  1.4754
12109TIP3   OH257817   4.479   5.990  10.924  0.1703 -0.1133  0.5238
12109TIP3    H157818   4.414   5.958  10.862 -1.8105  1.5913  1.6556
12109TIP3    H257819   4.563   5.957  10.890 -1.2471 -2.3942 -0.9234
12110TIP3   OH257820   4.591   6.598   4.571 -0.3383 -0.3382 -0.1919
12110TIP3    H157821   4.631   6.512   4.571 -1.4050 -0.8438 -1.0790
12110TIP3    H257822   4.579   6.620   4.664  1.1147 -0.5742  0.0565
12111TIP3   OH257823   3.820   5.598  11.084  0.2269 -0.0985  0.3554
12111TIP3    H157824   3.779   5.640  11.008  1.6371 -0.6229 -0.7223
12111TIP3    H257825   3.837   5.669  11.145  1.4175  0.7259 -0.9064
12112TIP3   OH257826   5.759   5.956  13.933 -0.5138 -0.0297  0.6207
12112TIP3    H157827   5.842   5.914  13.911  0.5290  3.0868 -1.8566
12112TIP3    H257828   5.724   5.905  14.007  2.9400 -2.1730  0.8637
12113TIP3   OH257829   5.886   2.687   1.134 -0.0867  0.2909 -0.1472
12113TIP3    H157830   5.949   2.723   1.197  0.8852  1.2223 -1.6140
12113TIP3    H257831   5.867   2.760   1.074 -0.4776 -0.7487 -1.3231
12114TIP3   OH257832   4.761   0.852   3.591 -0.2498 -0.4668  0.4785
12114TIP3    H157833   4.671   0.854   3.558 -0.1170 -0.0156  0.1477
12114TIP3    H257834   4.752   0.869   3.685 -0.7626 -3.2281  0.9754
12115TIP3   OH257835   1.020   4.103   1.474 -0.6591 -0.1258  0.2601
12115TIP3    H157836   1.084   4.160   1.517 -1.9959  1.0444  0.7370
12115TIP3    H257837   1.063   4.076   1.393  0.8705 -0.2621  1.0966
12116TIP3   OH257838   3.345   0.764  12.320 -0.1027  0.1466  0.3317
12116TIP3    H157839   3.291   0.792  12.246  1.0526  0.6748 -0.3300
12116TIP3    H257840   3.339   0.835  12.383  0.2468  0.4530  0.0230
12117TIP3   OH257841   5.073   0.240   4.821  0.4037 -0.2593  0.0007
12117TIP3    H157842   5.117   0.316   4.783 -0.6334 -0.6527 -2.0230
12117TIP3    H257843   4.988   0.236   4.777  0.5386 -2.7330 -0.0820
12118TIP3   OH257844   5.864   3.641   4.073  0.2011 -0.6511  0.1181
12118TIP3    H157845   5.790   3.681   4.120  1.6099 -0.1095  1.9349
12118TIP3    H257846   5.823   3.576   4.016 -1.7893  0.5279  0.1430
12119TIP3   OH257847   1.785   5.614   0.537 -0.0899  0.0970 -0.5948
12119TIP3    H157848   1.703   5.640   0.579  0.4346  1.5916 -0.4586
12119TIP3    H257849   1.758   5.579   0.452 -1.1255 -2.5369  0.7685
12120TIP3   OH257850   3.279   2.576   0.759  0.2281 -0.1476  0.1995
12120TIP3    H157851   3.369   2.559   0.787  0.3281  0.9191  0.5561
12120TIP3    H257852   3.286   2.600   0.667  0.1341 -1.5655 -0.1841
12121TIP3   OH257853   5.618   4.126   4.486 -0.3632  0.2433  0.1652
12121TIP3    H157854   5.597   4.219   4.480  1.0245  0.5647  0.1778
12121TIP3    H257855   5.653   4.102   4.400 -1.7306 -0.5374 -0.1912
12122TIP3   OH257856   1.614   4.150  12.067  0.5300 -0.3102  0.1278
12122TIP3    H157857   1.565   4.140  11.985 -1.7376  1.2790  1.2339
12122TIP3    H257858   1.571   4.089  12.128  1.4467 -0.6280  0.4588
12123TIP3   OH257859   0.172   1.752   5.064  0.1195  0.2587  0.3763
12123TIP3    H157860   0.193   1.813   5.136  0.7927 -0.4110  0.7562
12123TIP3    H257861   0.093   1.789   5.024 -0.4069  0.5146  1.6153
12124TIP3   OH257862   2.273   0.509   3.009  0.3644  0.1039  0.1169
12124TIP3    H157863   2.242   0.539   3.094  1.8081  2.2896 -0.0768
12124TIP3    H257864   2.349   0.454   3.029 -2.2020 -3.5092  0.4641
12125TIP3   OH257865   4.255   5.176   0.113 -0.3659 -0.3612  0.4447
12125TIP3    H157866   4.333   5.230   0.114 -0.4276 -0.2679  0.2393
12125TIP3    H257867   4.250   5.138   0.201  0.8700 -1.7445 -0.0587
12126TIP3   OH257868   2.162   5.942  13.779  0.0678 -0.2063 -0.6198
12126TIP3    H157869   2.256   5.937  13.759  0.2075  0.0862 -0.0516
12126TIP3    H257870   2.155   6.016  13.840 -0.1959 -1.8824  1.4082
12127TIP3   OH257871   6.384   0.546  16.264 -0.0821  0.5012  0.0533
12127TIP3    H157872   6.469   0.507  16.242 -0.0274 -0.2235  1.5008
12127TIP3    H257873   6.323   0.472  16.263 -0.6466  0.9686 -0.6877
12128TIP3   OH257874   0.242   1.952   3.695 -0.0316 -0.0230 -0.1687
12128TIP3    H157875   0.228   1.902   3.615 -0.6959 -1.9783  1.1046
12128TIP3    H257876   0.165   2.008   3.702 -0.1747 -0.1544 -0.6863
12129TIP3   OH257877   4.945   5.171   1.846  0.0770  0.2455  0.2098
12129TIP3    H157878   4.882   5.241   1.826 -0.8184 -0.7035 -0.3500
12129TIP3    H257879   4.907   5.093   1.805  1.8403 -0.2481 -0.4960
12130TIP3   OH257880   0.824   2.733  14.781 -0.0672 -0.6940  0.2973
12130TIP3    H157881   0.775   2.801  14.734 -1.4627 -1.0563  1.1813
12130TIP3    H257882   0.879   2.693  14.714 -1.2560 -0.5103 -0.8194
12131TIP3   OH257883   3.149   6.348  13.477 -0.2595 -0.3513 -0.6983
12131TIP3    H157884   3.213   6.278  13.472 -0.5409 -0.7204  0.7479
12131TIP3    H257885   3.095   6.337  13.398 -0.5880 -2.0424 -0.2541
12132TIP3   OH257886   2.815   5.893   2.271  0.0833  0.0384  0.2722
12132TIP3    H157887   2.721   5.905   2.278 -0.0238 -0.2009 -0.7938
12132TIP3    H257888   2.826   5.802   2.241  0.6227  0.2983 -0.3269
12133TIP3   OH257889   0.746   5.367   3.068 -0.2984  0.0737 -0.1022
12133TIP3    H157890   0.757   5.382   3.162 -0.0442 -0.3839 -0.0566
12133TIP3    H257891   0.652   5.373   3.054 -0.5794 -2.2117  0.6016
12134TIP3   OH257892   4.066   3.158   4.491  0.3787 -0.0331  0.1877
12134TIP3    H157893   3.983   3.203   4.476 -0.2923 -1.0216  0.9244
12134TIP3    H257894   4.106   3.152   4.403  1.6544  4.1503  0.3391
12135TIP3   OH257895   2.567   3.019  15.100 -0.3861 -0.4350  0.5136
12135TIP3    H157896   2.557   3.092  15.161  0.5057 -0.5298  0.7754
12135TIP3    H257897   2.623   2.956  15.146  1.6704  0.2025 -1.0211
12136TIP3   OH257898   2.270   1.372  12.622  0.8107  0.0143  0.5098
12136TIP3    H157899   2.321   1.427  12.562 -0.0314 -1.2565 -1.4131
12136TIP3    H257900   2.216   1.435  12.671 -0.3745  0.9331 -1.8698
12137TIP3   OH257901   2.356   0.545  14.218  0.5130  0.5331 -0.0175
12137TIP3    H157902   2.271   0.518  14.184  0.1753  1.7081 -0.1449
12137TIP3    H257903   2.382   0.475  14.278 -2.5360  2.0757  3.3584
12138TIP3   OH257904   5.203   6.741   5.960  0.5411  0.2405 -0.3680
12138TIP3    H157905   5.146   6.686   6.014  0.5898  0.4922 -0.0597
12138TIP3    H257906   5.150   6.818   5.941  0.8289  0.5372  0.0353
12139TIP3   OH257907   0.374   5.716   5.252 -0.2888 -0.4914  0.4214
12139TIP3    H157908   0.426   5.757   5.183 -0.8926  0.0297  0.2711
12139TIP3    H257909   0.431   5.648   5.288  1.1240  1.1305  1.3490
12140TIP3   OH257910   1.287   6.284   2.834  0.2628 -0.7723 -0.5816
12140TIP3    H157911   1.322   6.281   2.923 -0.4955 -0.7329 -0.2816
12140TIP3    H257912   1.343   6.347   2.789  0.4401 -0.5434 -0.0475
12141TIP3   OH257913   0.005   5.977  11.728 -0.4164  0.4507  0.6171
12141TIP3    H157914   0.046   6.060  11.748  1.4145 -0.3046  0.1048
12141TIP3    H257915   0.030   5.919  11.800 -0.0808 -0.1695  0.0203
12142TIP3   OH257916   2.093   4.162   2.336 -0.6549  0.2566 -0.2760
12142TIP3    H157917   2.025   4.119   2.286 -1.7698  0.2532  1.1969
12142TIP3    H257918   2.175   4.128   2.301 -1.3303  1.4745 -3.1748
12143TIP3   OH257919   1.244   3.685   5.188  0.5506 -0.1212 -0.0209
12143TIP3    H157920   1.232   3.719   5.100 -1.2210  2.6927  1.2299
12143TIP3    H257921   1.327   3.722   5.218 -0.0997  1.0053  0.4004
12144TIP3   OH257922   3.923   5.588  16.863  0.2010  0.0013 -0.4733
12144TIP3    H157923   3.919   5.538  16.944  0.5107 -1.3714 -1.2795
12144TIP3    H257924   3.924   5.521  16.794  0.8748  1.1119 -1.5604
12145TIP3   OH257925   0.073   4.380  11.136 -0.8816  0.1951  0.1745
12145TIP3    H157926   0.135   4.437  11.090 -2.2249  1.7990  0.3071
12145TIP3    H257927   0.126   4.307  11.166  0.1540 -0.5921 -3.3945
12146TIP3   OH257928   5.231   5.472  14.886 -0.1385  0.4135 -0.2827
12146TIP3    H157929   5.198   5.389  14.851 -1.0722  0.6218  0.0860
12146TIP3    H257930   5.311   5.489  14.837 -0.4366 -0.2498 -1.0056
12147TIP3   OH257931   5.370   1.657   3.633 -0.0223 -0.1186  0.7060
12147TIP3    H157932   5.291   1.709   3.650  0.6559  1.3321 -0.4301
12147TIP3    H257933   5.441   1.711   3.668  0.7585  0.0165 -1.0587
12148TIP3   OH257934   3.251   3.907   3.926  0.3364 -0.0262  0.4339
12148TIP3    H157935   3.267   3.816   3.951 -3.2199 -0.4852  1.3697
12148TIP3    H257936   3.188   3.939   3.990 -1.5361  1.8325 -2.1991
12149TIP3   OH257937   2.652   0.654   3.031  0.0784 -0.5824 -0.9271
12149TIP3    H157938   2.608   0.699   2.959  1.0233 -1.8539 -2.3228
12149TIP3    H257939   2.688   0.724   3.085  0.3358  0.3739 -2.3112
12150TIP3   OH257940   5.388   2.596   6.376  0.2012  0.6519 -0.8158
12150TIP3    H157941   5.439   2.521   6.406  1.1404  1.6841  0.2094
12150TIP3    H257942   5.449   2.669   6.378 -1.9211  2.4811  2.9526
12151TIP3   OH257943   0.118   1.706   2.261 -0.2295 -0.0016  0.2153
12151TIP3    H157944   0.038   1.757   2.278 -0.7031 -0.6015 -0.1901
12151TIP3    H257945   0.168   1.712   2.342 -0.3855  0.9346  0.2473
12152TIP3   OH257946   6.303   6.140   5.308  0.5052  0.2375 -0.1472
12152TIP3    H157947   6.217   6.181   5.305 -0.0110 -0.9831 -3.3737
12152TIP3    H257948   6.363   6.206   5.274  0.3485 -0.0717 -1.0275
12153TIP3   OH257949   0.856   1.764  11.299  0.2945  0.3188  0.1139
12153TIP3    H157950   0.837   1.858  11.303  2.4786  0.8368 -0.7807
12153TIP3    H257951   0.808   1.733  11.222  0.2835  0.9033 -0.1217
12154TIP3   OH257952   2.941   0.815  10.978 -0.6839 -0.1601  0.6941
12154TIP3    H157953   2.936   0.841  10.886  1.2030  3.3032  1.4778
12154TIP3    H257954   2.914   0.723  10.979 -1.5216 -0.0224 -3.1854
12155TIP3   OH257955   2.656   5.229   1.399 -0.2909  0.0341  0.3642
12155TIP3    H157956   2.689   5.288   1.331 -3.0493  0.7497 -0.4250
12155TIP3    H257957   2.619   5.288   1.465  0.4471 -0.7337  1.4921
12156TIP3   OH257958   5.868   4.655   5.809  0.1699 -0.7007  0.2993
12156TIP3    H157959   5.799   4.632   5.871 -0.0879  1.2212  0.7657
12156TIP3    H257960   5.854   4.748   5.791  2.0126 -0.5300 -0.3791
12157TIP3   OH257961   4.577   3.486  12.562 -0.2329 -0.4304  0.1375
12157TIP3    H157962   4.492   3.499  12.519  0.6671  0.9554 -1.2500
12157TIP3    H257963   4.609   3.574  12.578  0.8416 -0.9574  0.9087
12158TIP3   OH257964   3.350   3.545  10.237  0.4640  0.0476  0.3772
12158TIP3    H157965   3.387   3.633  10.235  2.5681 -0.8301 -1.1182
12158TIP3    H257966   3.375   3.510  10.323 -1.7874  1.4544  1.6456
12159TIP3   OH257967   0.708   6.404  12.993 -0.3071  0.0112  0.6065
12159TIP3    H157968   0.701   6.343  12.920 -0.0352 -1.0857  1.4993
12159TIP3    H257969   0.802   6.422  12.999 -0.4131  0.7538  0.1656
12160TIP3   OH257970   6.521   6.773   0.789  0.5308  0.2104  0.2317
12160TIP3    H157971   6.486   6.701   0.736  0.0139  0.0788  0.7364
12160TIP3    H257972   6.596   6.805   0.740 -0.1024  0.2735 -0.7107
12161TIP3   OH257973   1.084   5.219   1.398  0.0004 -0.3750  0.6117
12161TIP3    H157974   1.128   5.214   1.313 -2.1579  3.2514 -0.8135
12161TIP3    H257975   1.090   5.129   1.432  3.1069 -1.3718 -2.1687
12162TIP3   OH257976   2.587   6.144   2.503 -0.1103  0.0216 -0.1034
12162TIP3    H157977   2.525   6.213   2.528 -0.6866 -0.4775 -0.1322
12162TIP3    H257978   2.533   6.079   2.458  0.5430 -0.1346 -0.6812
12163TIP3   OH257979   6.709   0.838  14.921 -0.3672  0.0456 -0.1140
12163TIP3    H157980   6.667   0.752  14.915 -0.4840  0.2076 -1.9750
12163TIP3    H257981   6.643   0.895  14.958 -0.9919 -0.2232 -0.8066
12164TIP3   OH257982   0.960   2.542   4.956 -0.5344 -0.4172  0.4069
12164TIP3    H157983   0.883   2.561   5.008 -1.8759  0.4503 -1.8427
12164TIP3    H257984   0.963   2.446   4.951 -0.8119 -0.4822  1.4106
12165TIP3   OH257985   0.902   0.571   6.721  0.0161  0.2250  0.5159
12165TIP3    H157986   0.982   0.611   6.689 -0.5915  1.0920  0.0437
12165TIP3    H257987   0.898   0.485   6.678 -0.1664  0.8735 -0.7878
12166TIP3   OH257988   3.945   4.956   0.965  0.2604 -0.5282  0.5999
12166TIP3    H157989   3.994   4.917   0.892 -0.6774  0.6031 -0.6617
12166TIP3    H257990   3.861   4.910   0.965  0.4058 -0.7955  1.2176
12167TIP3   OH257991   6.721   4.554   2.088  0.4780  0.2918  0.1538
12167TIP3    H157992   6.694   4.462   2.090  3.0715 -0.5995 -2.3442
12167TIP3    H257993   6.726   4.576   1.995 -1.5291  3.4490  0.7258
12168TIP3   OH257994   3.665   0.930   5.332 -0.3052 -0.3062  0.3132
12168TIP3    H157995   3.632   0.842   5.352  2.1866 -0.7956  2.5058
12168TIP3    H257996   3.738   0.915   5.272 -0.9545  0.4087 -0.6615
12169TIP3   OH257997   0.824   4.536  10.955 -0.4290  0.6598 -0.1317
12169TIP3    H157998   0.831   4.517  10.861  1.5290  0.8353 -0.0487
12169TIP3    H257999   0.915   4.541  10.985 -1.0369 -0.3479  1.9784
12170TIP3   OH258000   5.577   3.905  16.933  0.5289 -0.4812  0.3704
12170TIP3    H158001   5.645   3.969  16.910  0.8604 -0.9415  0.0688
12170TIP3    H258002   5.553   3.927  17.023 -2.3092  2.7398 -1.0424
12171TIP3   OH258003   2.802   2.127   4.358  0.2835  0.0025  0.1298
12171TIP3    H158004   2.863   2.069   4.313 -0.4889  1.1480 -2.4674
12171TIP3    H258005   2.733   2.069   4.392 -0.0301 -0.6953 -1.6729
12172TIP3   OH258006   3.580   5.082   0.821  0.3445 -0.0093 -0.4055
12172TIP3    H158007   3.621   5.123   0.897 -3.7449 -0.8494  2.4077
12172TIP3    H258008   3.621   4.996   0.814  0.8690  0.1450  0.7669
12173TIP3   OH258009   2.147   5.234   3.238 -0.0038  0.0343 -0.5819
12173TIP3    H158010   2.085   5.189   3.295  0.4913  1.5069  1.1568
12173TIP3    H258011   2.093   5.287   3.180 -0.4055  0.4867  0.2142
12174TIP3   OH258012   4.209   2.415  10.287 -0.4022 -0.2015  0.6662
12174TIP3    H158013   4.182   2.323  10.288  1.4353 -0.8249 -1.3060
12174TIP3    H258014   4.134   2.462  10.252 -0.4779 -1.3244 -0.7466
12175TIP3   OH258015   1.767   2.012  14.227 -0.2526  0.0159 -0.1711
12175TIP3    H158016   1.758   2.000  14.321  0.6930  1.8188  0.1767
12175TIP3    H258017   1.854   2.052  14.216 -0.4954  0.1564 -1.7682
12176TIP3   OH258018   3.521   0.271   4.100 -0.1092  0.0042 -0.1582
12176TIP3    H158019   3.454   0.339   4.094 -1.8764 -1.5968  0.9500
12176TIP3    H258020   3.499   0.209   4.030  0.5570 -0.2240 -0.1691
12177TIP3   OH258021   2.247   1.998   0.007  0.2115  0.4529 -0.1351
12177TIP3    H158022   2.279   1.911   0.030 -0.6620 -0.0802 -0.8855
12177TIP3    H258023   2.157   2.000   0.039 -0.3537  0.4269 -1.6787
12178TIP3   OH258024   2.770   0.520  13.375 -0.0431  0.3330  0.0147
12178TIP3    H158025   2.774   0.616  13.384 -1.8289  0.3379  0.8893
12178TIP3    H258026   2.859   0.495  13.348  0.2103  2.3299 -1.1166
12179TIP3   OH258027   5.658   6.512  16.122  0.5453  0.0452 -0.0921
12179TIP3    H158028   5.699   6.457  16.189 -1.6167 -2.6388 -0.8748
12179TIP3    H258029   5.675   6.467  16.040 -1.6386  0.2843 -0.7162
12180TIP3   OH258030   5.982   3.631  11.012  0.1582  0.2795 -0.1136
12180TIP3    H158031   5.942   3.666  10.933  1.9761  0.8062 -0.8349
12180TIP3    H258032   6.059   3.583  10.981 -0.9207 -2.3265  1.0716
12181TIP3   OH258033   5.043   1.344  15.079 -0.2209  0.3028 -0.7998
12181TIP3    H158034   4.962   1.374  15.038 -0.4231 -0.3519 -0.8957
12181TIP3    H258035   5.016   1.269  15.133  0.2639  0.2993 -0.5605
12182TIP3   OH258036   0.094   4.224   0.630 -0.3746  0.3650 -0.8928
12182TIP3    H158037   0.066   4.289   0.694 -1.4325 -0.7995 -0.1399
12182TIP3    H258038   0.165   4.177   0.674 -1.0219 -0.3570 -0.6098
12183TIP3   OH258039   4.220   0.282   1.152 -0.0606 -0.0420 -0.3652
12183TIP3    H158040   4.219   0.186   1.157  0.5785 -0.1059 -1.4681
12183TIP3    H258041   4.294   0.302   1.095  0.3585  1.1445  0.5840
12184TIP3   OH258042   3.368   6.046  17.108 -0.2755  0.1083 -0.1032
12184TIP3    H158043   3.443   6.093  17.071 -0.3166  1.3535  1.3676
12184TIP3    H258044   3.293   6.079  17.059  0.0741 -0.8800 -1.3341
12185TIP3   OH258045   4.491   3.092  15.843 -0.5218  0.4391  0.7368
12185TIP3    H158046   4.515   3.177  15.879  0.0435  0.6164 -0.0329
12185TIP3    H258047   4.491   3.106  15.748 -1.3686 -0.1703  0.6456
12186TIP3   OH258048   0.140   1.700  10.553 -0.0192  0.3405  0.1830
12186TIP3    H158049   0.104   1.612  10.550 -0.1969  0.4413 -0.8935
12186TIP3    H258050   0.143   1.721  10.646  0.5823 -1.0205  0.4798
12187TIP3   OH258051   2.153   1.294  13.135  0.2446 -0.1867 -0.2013
12187TIP3    H158052   2.196   1.326  13.214  1.6740 -0.1901 -0.9579
12187TIP3    H258053   2.111   1.371  13.097  1.3975  0.2628 -0.5876
12188TIP3   OH258054   6.151   6.211  11.823  0.9278 -0.3871  0.3549
12188TIP3    H158055   6.104   6.268  11.883  0.9756  0.5437 -0.4891
12188TIP3    H258056   6.105   6.127  11.828 -0.6689  0.4316 -0.2749
12189TIP3   OH258057   5.431   2.452   5.470  0.4747  0.5091  0.0944
12189TIP3    H158058   5.341   2.482   5.480 -0.3414 -0.6884 -3.1221
12189TIP3    H258059   5.483   2.532   5.466 -0.7289  1.2731 -0.3847
12190TIP3   OH258060   3.067   1.917  15.679 -0.0858  0.4750  0.1322
12190TIP3    H158061   3.030   1.913  15.767  2.8547 -1.4939  1.3731
12190TIP3    H258062   3.105   1.830  15.666  1.1828  1.3639 -2.3461
12191TIP3   OH258063   1.170   1.697  12.662 -0.2546  0.4174 -0.0688
12191TIP3    H158064   1.081   1.673  12.687 -0.0812  1.7730  1.9671
12191TIP3    H258065   1.164   1.789  12.636  0.1697 -0.1010 -2.0700
12192TIP3   OH258066   3.583   4.715   4.365  0.4531  0.0271 -0.2398
12192TIP3    H158067   3.615   4.627   4.384 -0.2310 -0.1097  0.2630
12192TIP3    H258068   3.610   4.768   4.440 -0.6921 -0.1376  0.2955
12193TIP3   OH258069   0.680   3.983   4.351  0.0235  0.4586  0.3028
12193TIP3    H158070   0.588   4.001   4.367 -0.0123  1.4771 -0.9632
12193TIP3    H258071   0.719   4.069   4.334  1.1110 -0.0065  0.4059
12194TIP3   OH258072   1.362   6.617   5.503 -0.4076 -0.2074 -0.6383
12194TIP3    H158073   1.452   6.610   5.535 -0.0854 -2.6889 -2.0520
12194TIP3    H258074   1.320   6.675   5.567  1.8613  0.0441  0.7112
12195TIP3   OH258075   5.907   6.358  10.763  0.1336 -0.3633 -0.2017
12195TIP3    H158076   5.945   6.286  10.712  1.9156  0.5838 -0.2469
12195TIP3    H258077   5.980   6.416  10.780 -0.8464  0.3327  1.7630
12196TIP3   OH258078   6.311   6.323   2.239  0.0259  0.4085 -1.0067
12196TIP3    H158079   6.369   6.251   2.213 -0.1750 -0.2759  0.3667
12196TIP3    H258080   6.242   6.325   2.173  0.4606 -0.1465 -1.4779
12197TIP3   OH258081   5.602   0.520  15.547  0.1624  0.5215  0.0330
12197TIP3    H158082   5.555   0.560  15.620 -0.0339  0.5440 -0.1055
12197TIP3    H258083   5.669   0.465  15.589 -2.2290 -2.2768  0.2764
12198TIP3   OH258084   2.840   1.182  16.082  1.0570  0.1809 -0.3429
12198TIP3    H158085   2.841   1.277  16.095  1.1330 -0.1274  2.1123
12198TIP3    H258086   2.915   1.150  16.131  1.8353 -1.0645 -2.2676
12199TIP3   OH258087   5.691   0.689  15.869  0.9355 -0.4154 -0.4505
12199TIP3    H158088   5.745   0.761  15.902  1.5887 -0.2933 -1.7607
12199TIP3    H258089   5.704   0.618  15.932  0.3695  0.5667  0.7991
12200TIP3   OH258090   2.545   6.759  14.617 -0.2010  0.1218  0.1591
12200TIP3    H158091   2.489   6.718  14.683  0.6121 -0.6407  0.3899
12200TIP3    H258092   2.581   6.685  14.568  0.2387  0.6239 -0.2832
12201TIP3   OH258093   3.797   4.636   5.503 -0.5802 -0.1975 -0.1976
12201TIP3    H158094   3.785   4.692   5.580 -0.4258  1.0286 -1.0476
12201TIP3    H258095   3.872   4.674   5.457  0.8700 -2.3634  0.3011
12202TIP3   OH258096   4.976   5.371   5.960 -0.3680 -0.0645 -0.4118
12202TIP3    H158097   5.033   5.448   5.961  3.8327 -3.0018  0.2163
12202TIP3    H258098   4.947   5.362   6.051  1.2523 -0.6474  0.0664
12203TIP3   OH258099   3.133   2.875   2.052 -0.3997 -0.4635 -0.7343
12203TIP3    H158100   3.078   2.807   2.091 -2.2100  1.1232 -0.4798
12203TIP3    H258101   3.185   2.909   2.125  0.1216 -1.1938 -0.7602
12204TIP3   OH258102   5.542   0.053  14.488  0.7807 -0.1334 -0.1703
12204TIP3    H158103   5.565  -0.039  14.482 -2.6080 -1.0681  0.0435
12204TIP3    H258104   5.533   0.070  14.582  1.4888  0.4336 -0.2022
12205TIP3   OH258105   5.936   5.691   5.508 -0.5533 -0.0198  0.2671
12205TIP3    H158106   6.010   5.685   5.446 -0.4977 -0.0499  0.3355
12205TIP3    H258107   5.861   5.716   5.454 -1.1606 -2.9858 -0.3106
12206TIP3   OH258108   5.645   1.226   0.265 -0.2894 -0.3901 -0.1401
12206TIP3    H158109   5.683   1.226   0.353  0.3108 -0.0896 -0.4039
12206TIP3    H258110   5.712   1.187   0.210 -0.7578 -0.7956 -0.4315
12207TIP3   OH258111   1.356   4.168  16.482 -0.0543  0.1007  0.0928
12207TIP3    H158112   1.272   4.214  16.478  0.5616  1.2984  0.9309
12207TIP3    H258113   1.415   4.220  16.428  0.8934  0.8372  1.8125
12208TIP3   OH258114   4.746   4.060  13.159  0.2731  0.2560 -0.0916
12208TIP3    H158115   4.789   4.001  13.097  0.3260  0.0921  0.0998
12208TIP3    H258116   4.702   4.001  13.221 -1.2631  0.4018 -1.0038
12209TIP3   OH258117   1.984   5.244   2.046  0.2935 -0.1373  0.2334
12209TIP3    H158118   1.932   5.244   1.966  2.3137 -0.1260 -1.1162
12209TIP3    H258119   2.055   5.307   2.029  0.4767  0.2311  2.2128
12210TIP3   OH258120   1.147   4.728   6.535  0.0119  0.3703 -0.1167
12210TIP3    H158121   1.184   4.696   6.453  1.0974  4.1778 -1.2316
12210TIP3    H258122   1.219   4.774   6.577 -1.8061  2.6832  0.5953
12211TIP3   OH258123   3.236   4.155   5.020 -0.0692 -0.5827  0.3624
12211TIP3    H158124   3.267   4.079   5.070 -0.9663 -0.7352  0.7015
12211TIP3    H258125   3.166   4.120   4.965 -0.5116 -0.0011  0.5480
12212TIP3   OH258126   0.497   5.739   4.270 -0.3404 -0.9465  0.2326
12212TIP3    H158127   0.583   5.720   4.309  0.1868  1.2643  0.2006
12212TIP3    H258128   0.435   5.723   4.340  0.2651 -0.7958  0.8075
12213TIP3   OH258129   5.421   3.369   4.199 -0.0276  0.4993 -0.0071
12213TIP3    H158130   5.450   3.335   4.284  2.2582  0.4751 -0.7475
12213TIP3    H258131   5.421   3.464   4.210  0.7290  0.5168 -0.0925
12214TIP3   OH258132   4.997   5.305   4.672 -0.1018  0.0501 -0.2471
12214TIP3    H158133   5.019   5.317   4.580  0.8044 -1.4224 -0.2447
12214TIP3    H258134   4.901   5.304   4.674 -0.1323  0.5185 -1.1112
12215TIP3   OH258135   2.455   0.275  14.466 -0.1163 -0.5384 -0.3595
12215TIP3    H158136   2.495   0.203  14.515 -0.6491 -0.1892  0.6111
12215TIP3    H258137   2.371   0.239  14.436  0.2159 -0.7566 -1.0370
12216TIP3   OH258138   1.333   2.434  17.283  0.3815 -0.0214  0.1403
12216TIP3    H158139   1.382   2.513  17.260  0.3924 -0.4049 -1.1982
12216TIP3    H258140   1.399   2.375  17.321  1.2270 -0.9448 -2.6337
12217TIP3   OH258141   2.336   1.299  14.484  0.0335 -0.5189  0.3062
12217TIP3    H158142   2.256   1.311  14.536 -0.4078 -0.6731 -0.3346
12217TIP3    H258143   2.314   1.331  14.397  1.1513  0.8420  0.5080
12218TIP3   OH258144   1.262   3.261  11.309 -0.1984 -0.1645  0.4523
12218TIP3    H158145   1.219   3.200  11.369 -1.3852  0.6441  0.4422
12218TIP3    H258146   1.269   3.343  11.358 -0.3957  0.2505 -0.2041
12219TIP3   OH258147   2.135   0.002  14.056  0.1315 -1.0417 -0.1621
12219TIP3    H158148   2.131   0.067  14.126 -0.4792 -0.8249 -0.3916
12219TIP3    H258149   2.070  -0.064  14.080 -0.7714 -0.4661 -1.0165
12220TIP3   OH258150   0.680   5.113   4.935  0.1870 -0.3935  0.4948
12220TIP3    H158151   0.618   5.054   4.977 -0.2934  0.8981  1.6559
12220TIP3    H258152   0.659   5.109   4.842  0.3559 -2.2543  0.5168
12221TIP3   OH258153   3.193   1.882  11.619  0.0785  0.0445 -0.1245
12221TIP3    H158154   3.129   1.816  11.646 -2.0636  1.5678 -1.3112
12221TIP3    H258155   3.256   1.835  11.565 -1.0756 -1.1286 -0.4602
12222TIP3   OH258156   2.288   0.832   6.418  0.0953  0.7946 -0.3272
12222TIP3    H158157   2.291   0.858   6.510 -0.3683 -0.4279  0.0506
12222TIP3    H258158   2.212   0.877   6.383  0.0654  0.9863 -0.0201
12223TIP3   OH258159   0.829   6.037   1.712  0.0459  0.2787  0.7254
12223TIP3    H158160   0.916   6.063   1.683 -0.4743 -0.7606 -1.8499
12223TIP3    H258161   0.835   5.943   1.726 -1.1196 -0.1409 -1.3247
12224TIP3   OH258162   1.400   2.987  10.740  0.1331  0.1511  0.1758
12224TIP3    H158163   1.319   2.936  10.739  0.1066  0.2069 -0.4652
12224TIP3    H258164   1.401   3.033  10.656 -0.0420  1.5148  0.9040
12225TIP3   OH258165   1.104   5.862  13.195 -0.1095  0.2132 -0.2739
12225TIP3    H158166   1.010   5.849  13.193 -0.1477  0.0051  1.7727
12225TIP3    H258167   1.118   5.924  13.267  1.1524  1.8094 -1.8240
12226TIP3   OH258168   3.052   0.558  13.579 -0.4946 -0.3777  0.3768
12226TIP3    H158169   3.065   0.649  13.552 -1.2970 -0.7972 -1.5359
12226TIP3    H258170   3.094   0.507  13.510 -0.6638 -1.4738  1.0772
12227TIP3   OH258171   6.680   5.409   4.427  0.2588  0.4023  0.6732
12227TIP3    H158172   6.603   5.460   4.454  0.4690  1.1469 -0.1239
12227TIP3    H258173   6.648   5.320   4.416 -0.7217  0.9314 -0.7439
12228TIP3   OH258174   2.045   3.873   3.758  0.6590  0.0926 -0.2299
12228TIP3    H158175   2.014   3.932   3.690 -0.5362 -0.0077  0.2100
12228TIP3    H258176   2.019   3.915   3.840  2.9344  0.6867  0.2091
12229TIP3   OH258177   1.413   6.548   4.325  0.5318 -0.0231 -0.5941
12229TIP3    H158178   1.466   6.551   4.245  3.1462  2.5840  1.1346
12229TIP3    H258179   1.474   6.569   4.395 -1.9714 -1.0606  1.9896
12230TIP3   OH258180   1.624   4.245   3.607 -0.0495 -0.2882 -0.1362
12230TIP3    H158181   1.637   4.150   3.614 -2.3244 -0.7618 -1.9034
12230TIP3    H258182   1.653   4.266   3.518 -0.0480  0.5791  0.0734
12231TIP3   OH258183   1.447   6.068  15.083  0.1261 -0.2119  0.3204
12231TIP3    H158184   1.374   6.085  15.142  0.4461 -1.5840  1.1270
12231TIP3    H258185   1.413   6.002  15.022  0.2202  0.2463 -0.2388
12232TIP3   OH258186   3.624   0.611  14.189 -0.4022  1.0780 -0.5161
12232TIP3    H158187   3.648   0.529  14.147 -0.7910  0.6375  0.1088
12232TIP3    H258188   3.531   0.600  14.211  0.4293  0.2584  2.8229
12233TIP3   OH258189   0.227   6.095  16.393 -0.4040  0.9681 -0.2124
12233TIP3    H158190   0.211   6.069  16.302 -2.5869  0.1445  0.3917
12233TIP3    H258191   0.318   6.070  16.409 -0.4275 -0.1348 -1.7355
12234TIP3   OH258192   5.836   3.955  16.580  0.4873  0.1191  0.4811
12234TIP3    H158193   5.873   3.932  16.665 -1.1065 -0.4684  1.0396
12234TIP3    H258194   5.891   4.026  16.548  1.4841 -0.0871  1.7191
12235TIP3   OH258195   3.002   2.656   2.106 -0.3956 -0.3352 -0.2034
12235TIP3    H158196   2.921   2.639   2.154  0.3456  2.8930  2.3700
12235TIP3    H258197   3.067   2.600   2.148 -0.3956  0.2270  0.5508
12236TIP3   OH258198   6.355   2.061   4.873  0.3839  0.7914  0.4033
12236TIP3    H158199   6.375   2.151   4.901  0.4451  0.6050  0.9664
12236TIP3    H258200   6.331   2.016   4.954  1.0883  0.0986  0.2309
12237TIP3   OH258201   5.808   3.495   0.163  0.0370  0.2187  0.4221
12237TIP3    H158202   5.713   3.489   0.171 -0.2140  0.2217 -2.0074
12237TIP3    H258203   5.822   3.558   0.092  1.7860 -1.4662 -0.7704
12238TIP3   OH258204   6.397   4.387  16.039  0.1032 -0.2337  0.1740
12238TIP3    H158205   6.362   4.427  16.119  1.4703 -3.8138  2.6983
12238TIP3    H258206   6.440   4.459  15.993 -0.9213  1.9759  2.5286
12239TIP3   OH258207   5.837   1.623  14.901  0.1595 -0.3553 -0.4490
12239TIP3    H158208   5.797   1.693  14.849  1.2371 -0.0018 -0.8122
12239TIP3    H258209   5.792   1.544  14.873  1.8560 -0.4289 -3.1582
12240TIP3   OH258210   4.265   4.107   6.174  0.7047  0.8766 -0.1306
12240TIP3    H158211   4.323   4.031   6.169 -0.7303 -0.5068  3.0020
12240TIP3    H258212   4.181   4.075   6.138  0.5647  1.4932 -0.3594
12241TIP3   OH258213   5.930   4.427   3.114  0.2688 -0.1946  0.2935
12241TIP3    H158214   5.892   4.403   3.198 -0.9349 -0.7943 -0.4093
12241TIP3    H258215   6.011   4.376   3.108 -0.1976 -0.9710  0.6011
12242TIP3   OH258216   3.195   2.588  13.911 -0.0150 -0.1253  0.3548
12242TIP3    H158217   3.192   2.682  13.927  1.6526 -0.0336  0.1761
12242TIP3    H258218   3.284   2.571  13.881  0.3141 -2.0742  2.3101
12243TIP3   OH258219   4.555   1.920  12.047  0.0617 -0.1500  0.4449
12243TIP3    H158220   4.585   1.900  12.135 -2.8844 -3.0614  0.8629
12243TIP3    H258221   4.530   2.013  12.051 -2.2102 -0.8300  3.3222
12244TIP3   OH258222   4.169   0.980   4.756 -0.0999  0.2062  0.1568
12244TIP3    H158223   4.250   0.929   4.756  0.0507  0.4030 -2.3295
12244TIP3    H258224   4.194   1.063   4.798  0.4114 -0.5698  1.4244
12245TIP3   OH258225   6.502   2.670   5.488  0.1825 -0.2035  0.2005
12245TIP3    H158226   6.587   2.696   5.453 -0.2111  0.1355 -0.5234
12245TIP3    H258227   6.475   2.596   5.434 -0.0761 -0.1779  0.2928
12246TIP3   OH258228   0.428   4.695   4.078 -0.2231 -0.1304  0.6521
12246TIP3    H158229   0.519   4.668   4.074  0.5143  2.3858 -1.5794
12246TIP3    H258230   0.380   4.630   4.027  0.6995 -0.2006 -0.1304
12247TIP3   OH258231   2.010   1.711   5.978 -0.2838 -0.0051 -0.0694
12247TIP3    H158232   2.066   1.753   5.914  0.9188 -0.9996  0.3110
12247TIP3    H258233   2.068   1.651   6.025 -1.6816 -1.1290  0.2563
12248TIP3   OH258234   0.671   1.578   3.994 -0.6633  0.1829 -0.1373
12248TIP3    H158235   0.617   1.514   3.948 -1.2457 -0.8369  1.9046
12248TIP3    H258236   0.626   1.661   3.982 -0.9096 -0.0964 -1.2100
12249TIP3   OH258237   6.520   6.623  15.200 -0.2525 -0.3243  0.5945
12249TIP3    H158238   6.552   6.708  15.171  2.2964 -1.1363  0.8930
12249TIP3    H258239   6.430   6.619  15.167  0.8939  0.8256 -2.8749
12250TIP3   OH258240   4.430   6.459  15.122  0.0729 -0.2424 -0.1141
12250TIP3    H158241   4.510   6.414  15.150  0.1595 -0.7562 -1.1723
12250TIP3    H258242   4.361   6.421  15.176  0.3566 -0.6286 -0.0164
12251TIP3   OH258243   6.430   2.604   5.913  0.0099 -0.3212  0.1456
12251TIP3    H158244   6.480   2.649   5.980 -0.7186 -0.2341  0.6311
12251TIP3    H258245   6.415   2.516   5.948  2.2635 -1.2928 -1.2031
12252TIP3   OH258246   3.947   6.788  12.483  0.2269 -0.3071 -0.8693
12252TIP3    H158247   4.018   6.795  12.546  0.0591  0.0355 -0.7155
12252TIP3    H258248   3.943   6.695  12.461 -0.3947 -0.5860  0.3956
12253TIP3   OH258249   5.934   0.706   2.647  0.4528 -0.1749 -0.5873
12253TIP3    H158250   5.976   0.635   2.598  1.2256  0.3462 -0.6992
12253TIP3    H258251   5.953   0.785   2.595 -2.2078 -0.1557 -1.5858
12254TIP3   OH258252   3.514   5.441   3.999 -0.4306 -0.1611  0.1368
12254TIP3    H158253   3.484   5.496   4.071  0.0933 -1.3282  1.2760
12254TIP3    H258254   3.454   5.367   3.998 -0.7259  0.0796 -0.9517
12255TIP3   OH258255   5.696   0.825  11.945 -0.2621 -0.4425  0.2766
12255TIP3    H158256   5.670   0.827  11.853  0.6880 -1.3251 -0.0227
12255TIP3    H258257   5.689   0.916  11.974 -1.1376 -0.2545 -0.5038
12256TIP3   OH258258   6.317   1.883  15.828 -0.2481 -0.7627 -0.4670
12256TIP3    H158259   6.265   1.839  15.896 -0.3041 -2.1772 -1.3983
12256TIP3    H258260   6.382   1.817  15.802  0.3132  0.0660 -1.1741
12257TIP3   OH258261   1.860   6.745   2.066 -0.5907 -0.4523 -0.0013
12257TIP3    H158262   1.815   6.803   2.128 -1.7739 -1.2747 -0.0773
12257TIP3    H258263   1.809   6.753   1.986  1.2505  1.0312 -1.0684
12258TIP3   OH258264   5.005   3.495  13.600 -0.3942  0.1481 -0.5639
12258TIP3    H158265   4.958   3.483  13.517 -0.1443 -0.2405 -0.6484
12258TIP3    H258266   5.083   3.440  13.592 -0.7306 -0.4562  0.2138
12259TIP3   OH258267   3.242   6.033   0.077 -0.1006  0.1370  0.9429
12259TIP3    H158268   3.302   5.962   0.100  0.4902  0.7353  1.2884
12259TIP3    H258269   3.230   6.026  -0.017  0.1902 -0.2403  0.9363
12260TIP3   OH258270   4.627   2.648  11.985  0.1642 -0.4567  0.0686
12260TIP3    H158271   4.612   2.590  11.911  0.2960 -1.4246  0.7929
12260TIP3    H258272   4.539   2.673  12.015  0.1147  0.3194 -0.7036
12261TIP3   OH258273   2.655   1.108   4.911 -0.1913  0.4942 -0.4179
12261TIP3    H158274   2.729   1.149   4.867  1.7040 -1.5797  0.7792
12261TIP3    H258275   2.652   1.151   4.997  0.3812 -0.2691 -0.0141
12262TIP3   OH258276   5.319   2.535  13.261 -0.0225 -0.1128  0.3853
12262TIP3    H158277   5.358   2.582  13.187  1.6578 -1.0255  0.6700
12262TIP3    H258278   5.264   2.600  13.304 -1.4253  0.2834 -1.9518
12263TIP3   OH258279   4.917   2.726   1.346 -0.5689  0.7354 -0.2872
12263TIP3    H158280   4.928   2.631   1.342  0.0152  0.7897 -0.0138
12263TIP3    H258281   4.829   2.741   1.311 -0.8363  0.0571  0.0736
12264TIP3   OH258282   6.300   0.889  16.111  0.0668  0.2319  0.0289
12264TIP3    H158283   6.362   0.873  16.040  0.9415 -3.0020  1.4040
12264TIP3    H258284   6.214   0.891  16.069  0.4735 -2.6638 -1.0782
12265TIP3   OH258285   1.285   4.186  11.211 -0.0323 -0.4011 -0.5607
12265TIP3    H158286   1.324   4.116  11.160 -0.6214  0.0060 -1.5927
12265TIP3    H258287   1.343   4.261  11.198  0.5395 -0.6562  0.4553
12266TIP3   OH258288   2.543   6.747   2.421 -0.4952  0.3083  0.1115
12266TIP3    H158289   2.595   6.709   2.491 -1.1700  1.2228  1.1197
12266TIP3    H258290   2.603   6.806   2.375 -0.3489  0.5186  0.5774
12267TIP3   OH258291   1.641   0.479  12.288 -0.3322 -0.2373 -0.4578
12267TIP3    H158292   1.635   0.488  12.383 -1.9493 -2.2687 -0.3495
12267TIP3    H258293   1.733   0.499  12.268 -0.0337  0.3996  1.5022
12268TIP3   OH258294   2.758   3.989   3.124 -0.1992 -0.6709 -0.1900
12268TIP3    H158295   2.784   3.945   3.205  1.2308 -1.1855 -0.9058
12268TIP3    H258296   2.686   3.936   3.089 -0.5658 -0.6592  0.5415
12269TIP3   OH258297   5.690   2.930  12.984 -0.5650  0.0564  0.3005
12269TIP3    H158298   5.755   2.988  12.944 -1.0859  0.2528 -0.2674
12269TIP3    H258299   5.618   2.988  13.008 -0.7370 -0.2376  0.4914
12270TIP3   OH258300   2.532   0.083   4.035 -0.5399 -0.6419  0.7352
12270TIP3    H158301   2.588   0.017   3.994  0.3240  0.6560 -0.2358
12270TIP3    H258302   2.580   0.165   4.023 -1.9738  0.2803  1.1895
12271TIP3   OH258303   2.366   3.714  16.871  0.8533  0.4007 -0.2874
12271TIP3    H158304   2.278   3.718  16.833  0.5009 -1.5526  0.2720
12271TIP3    H258305   2.403   3.801  16.854 -1.7640  1.8075  0.9177
12272TIP3   OH258306   5.086   4.198  11.458  0.4460 -0.7822 -0.2755
12272TIP3    H158307   5.148   4.180  11.387  0.3512  0.3092 -0.6416
12272TIP3    H258308   5.142   4.219  11.533  0.5303  0.1813 -0.6004
12273TIP3   OH258309   3.037   6.594   3.113  0.2610  0.3214 -0.0416
12273TIP3    H158310   3.028   6.680   3.072 -1.9237 -0.2886 -0.9160
12273TIP3    H258311   3.071   6.537   3.044  0.2395  0.1493  0.0867
12274TIP3   OH258312   0.677   1.908   0.148  0.5831  0.5394  0.1761
12274TIP3    H158313   0.637   1.850   0.212  1.7381  0.5445  0.9087
12274TIP3    H258314   0.603   1.941   0.096 -0.3664  0.6105  1.5479
12275TIP3   OH258315   2.265   6.230  13.030 -0.7993  0.2421 -0.0129
12275TIP3    H158316   2.318   6.169  12.978 -0.1292 -0.4266  1.4186
12275TIP3    H258317   2.216   6.173  13.090  1.9993  1.2237  3.3286
12276TIP3   OH258318   5.742   0.695   4.575 -0.3164 -0.4137  0.9486
12276TIP3    H158319   5.773   0.784   4.560 -0.4656 -0.4318  0.5235
12276TIP3    H258320   5.775   0.645   4.500 -0.4384 -0.6649  1.0608
12277TIP3   OH258321   3.927   6.779  14.429 -0.1762 -0.1011 -0.2811
12277TIP3    H158322   3.917   6.741  14.517 -1.1575 -0.2032 -0.4332
12277TIP3    H258323   3.841   6.814  14.408  0.1578  0.2745 -1.0516
12278TIP3   OH258324   2.000   0.711   1.500 -0.1716  0.1493  0.3822
12278TIP3    H158325   2.060   0.665   1.442 -0.1718  0.6194  0.0042
12278TIP3    H258326   2.048   0.790   1.526 -0.6980  0.6292 -0.0853
12279TIP3   OH258327   2.655   3.050  14.840 -0.0592 -0.4882 -0.1294
12279TIP3    H158328   2.618   3.041  14.928  1.2381 -0.0178  0.4760
12279TIP3    H258329   2.648   2.962  14.803  1.0243 -1.1323  1.1255
12280TIP3   OH258330   1.039   0.204   4.585  0.0630 -0.0664  0.1986
12280TIP3    H158331   1.003   0.284   4.621  0.1450 -0.1073  0.3726
12280TIP3    H258332   1.085   0.232   4.505 -0.8098 -0.0944 -0.3117
12281TIP3   OH258333   5.371   1.240   3.199 -0.5141  0.6231 -0.1769
12281TIP3    H158334   5.298   1.200   3.245  0.3976  1.0314  1.6689
12281TIP3    H258335   5.438   1.171   3.194 -0.8519  0.3771 -1.4899
12282TIP3   OH258336   4.963   5.996   6.079  0.3171  0.2212  0.0177
12282TIP3    H158337   5.052   6.023   6.056  0.6285 -0.9790 -0.2355
12282TIP3    H258338   4.947   6.038   6.163  2.1467 -1.6160  1.3627
12283TIP3   OH258339   5.392   0.993  14.024 -0.1731 -0.6550 -0.1220
12283TIP3    H158340   5.347   0.909  14.039  0.6038 -0.4628  3.8934
12283TIP3    H258341   5.485   0.972  14.033  0.1177  0.3263 -0.7959
12284TIP3   OH258342   3.191   1.830  12.916 -0.4903  0.9799  0.1764
12284TIP3    H158343   3.113   1.826  12.971 -0.3883  0.4387  0.2827
12284TIP3    H258344   3.200   1.742  12.880 -0.9169  1.4921 -1.2149
12285TIP3   OH258345   4.340   5.421  12.869  0.5869  0.0387 -0.2503
12285TIP3    H158346   4.280   5.431  12.795 -1.0255 -0.4671  0.9632
12285TIP3    H258347   4.339   5.506  12.913  1.7053  0.4048 -0.9129
12286TIP3   OH258348   2.083   6.046  15.575 -0.4056  0.7206  0.1829
12286TIP3    H158349   2.021   5.989  15.621 -1.5879  2.1986  0.4566
12286TIP3    H258350   2.071   6.132  15.615  0.7990  1.3447 -0.7617
12287TIP3   OH258351   4.515   5.133  16.264 -0.3743  0.5130 -0.1823
12287TIP3    H158352   4.598   5.091  16.240 -0.8760 -1.6117  1.7425
12287TIP3    H258353   4.539   5.195  16.333  0.0586  2.0534 -1.6890
12288TIP3   OH258354   4.915   6.508  14.721 -0.4024  0.1130  0.2896
12288TIP3    H158355   4.841   6.514  14.660  0.7466  1.0063 -1.0305
12288TIP3    H258356   4.905   6.585  14.777  1.0544  1.7630 -1.6543
12289TIP3   OH258357   1.373   2.810   0.211  0.0843  0.3246  0.2713
12289TIP3    H158358   1.290   2.770   0.237 -0.2722  0.6203 -0.4144
12289TIP3    H258359   1.375   2.803   0.116  0.9780  0.0707  0.3020
12290TIP3   OH258360   0.696   3.530   2.511  0.0487 -0.0927  0.2430
12290TIP3    H158361   0.774   3.518   2.457 -0.7146 -0.0301 -0.8891
12290TIP3    H258362   0.656   3.443   2.516 -1.4627  0.4565 -1.7588
12291TIP3   OH258363   1.588   2.202  15.707 -0.0747 -0.0671 -0.0125
12291TIP3    H158364   1.522   2.136  15.728 -0.1927  0.3736  1.0438
12291TIP3    H258365   1.610   2.186  15.615 -1.3749 -0.4559 -0.2637
12292TIP3   OH258366   1.471   6.409   2.656  0.6857  0.2658  0.2544
12292TIP3    H158367   1.465   6.348   2.583 -0.4115 -0.0447  0.6006
12292TIP3    H258368   1.505   6.490   2.618  0.0559  0.1247 -0.5983
12293TIP3   OH258369   6.368   4.641  11.900 -0.1746  0.6822 -0.1505
12293TIP3    H158370   6.294   4.694  11.870 -1.9407 -0.1797  2.4519
12293TIP3    H258371   6.430   4.705  11.935 -1.8115  1.1912  1.9599
12294TIP3   OH258372   5.194   1.990   5.680  0.3708 -0.6068 -0.5387
12294TIP3    H158373   5.138   2.035   5.617 -1.4393 -3.1300 -0.8046
12294TIP3    H258374   5.239   1.923   5.629 -1.3453 -2.8915  0.8737
12295TIP3   OH258375   4.796   1.207   4.539  0.2711  0.0721  0.1416
12295TIP3    H158376   4.865   1.144   4.521  1.5857  1.2855  0.8721
12295TIP3    H258377   4.835   1.293   4.520 -1.3591  0.7091 -0.4606
12296TIP3   OH258378   4.031   4.376   0.419 -0.2972 -0.1282 -1.1037
12296TIP3    H158379   3.958   4.348   0.474 -0.1333  0.5492 -0.5363
12296TIP3    H258380   4.040   4.469   0.438  1.2517 -0.3846 -0.5674
12297TIP3   OH258381   2.564   2.304  13.294 -0.1661  0.3251  0.2190
12297TIP3    H158382   2.608   2.257  13.365  0.4262 -1.7510 -1.4542
12297TIP3    H258383   2.632   2.358  13.255 -0.3703  1.0753  0.8859
12298TIP3   OH258384   4.189   1.290   4.599 -0.2339  0.3070 -0.0017
12298TIP3    H158385   4.220   1.249   4.680 -1.1906 -0.1383  0.1583
12298TIP3    H258386   4.232   1.242   4.529 -0.8537 -0.5634  0.2059
12299TIP3   OH258387   1.671   3.252  12.234  0.3214 -0.0833  0.2645
12299TIP3    H158388   1.712   3.293  12.157  2.1025 -1.0272  0.6894
12299TIP3    H258389   1.670   3.321  12.300 -0.5131  0.5046 -0.3530
12300TIP3   OH258390   0.181   2.065   5.639  0.7009 -0.0456 -0.2770
12300TIP3    H158391   0.231   1.996   5.597  0.5221  0.0703 -0.6789
12300TIP3    H258392   0.205   2.145   5.592  0.9103  0.1690  0.1865
12301TIP3   OH258393   1.075   0.993  15.852 -0.2357  0.1992  0.0416
12301TIP3    H158394   0.987   1.006  15.818 -1.0742 -0.9154  1.7201
12301TIP3    H258395   1.088   0.899  15.852  1.4538  0.4021 -1.3502
12302TIP3   OH258396   6.376   5.838  15.329  0.2616 -0.1649  0.3797
12302TIP3    H158397   6.322   5.764  15.358  0.2161 -0.0147  0.6813
12302TIP3    H258398   6.327   5.916  15.357 -0.4124  0.0093 -1.2449
12303TIP3   OH258399   2.761   0.297   3.103  0.5815  0.1784 -0.1206
12303TIP3    H158400   2.837   0.354   3.096  0.4026  0.6995  1.9570
12303TIP3    H258401   2.742   0.293   3.196 -1.8695 -0.0548 -0.6018
12304TIP3   OH258402   2.196   6.694   1.669 -0.0167 -0.3699  0.0868
12304TIP3    H158403   2.136   6.621   1.685 -0.3105 -0.2257 -0.3344
12304TIP3    H258404   2.143   6.757   1.620  0.5227 -0.2981 -0.3955
12305TIP3   OH258405   3.134   3.183   2.241 -0.2927  0.5390  0.3452
12305TIP3    H158406   3.147   3.232   2.322 -0.5437  1.1213  0.0366
12305TIP3    H258407   3.040   3.171   2.234 -0.2400  0.1118  0.3591
12306TIP3   OH258408   1.847   2.762   4.529 -0.5128 -0.1236 -0.1591
12306TIP3    H158409   1.782   2.695   4.550 -0.2132 -0.6050 -0.7584
12306TIP3    H258410   1.828   2.786   4.438  1.3601 -1.6586 -0.9892
12307TIP3   OH258411   3.950   2.987   4.684  0.1959 -0.0399  0.3426
12307TIP3    H158412   3.903   3.064   4.717 -2.1179 -0.5478 -1.5730
12307TIP3    H258413   4.000   3.021   4.610  1.2765  0.1091  1.1335
12308TIP3   OH258414   5.599   0.007  15.585  0.1700  0.3195  0.0936
12308TIP3    H158415   5.522  -0.006  15.641  1.1114 -1.8348  0.9427
12308TIP3    H258416   5.647  -0.076  15.591  1.3021  0.7579 -2.3638
12309TIP3   OH258417   3.781   1.059   1.723  0.7563  0.0750 -0.3655
12309TIP3    H158418   3.870   1.030   1.703  1.0084  0.6617 -0.1243
12309TIP3    H258419   3.762   1.021   1.809  1.5809  1.6809  0.5465
12310TIP3   OH258420   3.026   0.961   6.638 -0.5665 -0.1787 -0.2093
12310TIP3    H158421   3.054   0.870   6.651 -1.1416 -0.2192  0.7902
12310TIP3    H258422   2.931   0.958   6.642 -0.5599  0.5979  0.7695
12311TIP3   OH258423   6.056   6.729  15.682  0.4748  0.0862 -0.5423
12311TIP3    H158424   5.992   6.796  15.655 -1.2524 -2.2913 -2.6830
12311TIP3    H258425   6.028   6.650  15.635  2.2224 -2.2438  2.2081
12312TIP3   OH258426   4.410   1.883  10.705  0.4288  0.2129 -0.4401
12312TIP3    H158427   4.497   1.852  10.731  0.3204  0.7868  0.6451
12312TIP3    H258428   4.362   1.803  10.683  0.5548 -0.3114  1.0930
12313TIP3   OH258429   1.477   2.532  16.678 -0.1003  0.0428 -1.0299
12313TIP3    H158430   1.565   2.509  16.650  0.0958 -1.0013  0.4149
12313TIP3    H258431   1.433   2.448  16.694 -0.6483  0.5749  0.3877
12314TIP3   OH258432   4.381   4.344   4.940  0.3487 -0.1688 -0.2348
12314TIP3    H158433   4.413   4.255   4.954  1.4660  0.3406  0.5142
12314TIP3    H258434   4.357   4.374   5.028 -1.8968 -0.4252 -0.7458
12315TIP3   OH258435   3.717   1.443   5.894  0.8525 -0.1484  0.2262
12315TIP3    H158436   3.717   1.458   5.799  0.0901  2.0059  0.5594
12315TIP3    H258437   3.793   1.492   5.926  0.7560 -0.3758  0.8088
12316TIP3   OH258438   4.676   2.333  15.309 -0.4727  0.3284  0.0730
12316TIP3    H158439   4.660   2.239  15.312  0.8919  0.1010  0.2555
12316TIP3    H258440   4.727   2.352  15.388  1.3963  0.7997 -1.2147
12317TIP3   OH258441   0.088   4.088  16.305  0.3821 -0.0916 -0.0909
12317TIP3    H158442   0.033   4.106  16.229  0.8390  0.2997 -0.3337
12317TIP3    H258443   0.124   4.001  16.289 -0.7149 -0.6336  0.3983
12318TIP3   OH258444   6.250   2.906   1.486  0.1705 -0.3302  0.0061
12318TIP3    H158445   6.282   2.946   1.404  0.2362 -0.6365 -0.1176
12318TIP3    H258446   6.312   2.936   1.552 -1.3791  2.1084  0.4372
12319TIP3   OH258447   3.817   5.611   3.451  0.1969  0.0966 -0.1470
12319TIP3    H158448   3.880   5.638   3.518  1.0210  0.1637 -0.9484
12319TIP3    H258449   3.862   5.626   3.368 -0.3399 -1.1859 -0.6863
12320TIP3   OH258450   0.101   1.742  17.206  0.5309  0.2022  0.0967
12320TIP3    H158451   0.176   1.703  17.162  0.4023 -0.0343  0.0899
12320TIP3    H258452   0.126   1.834  17.216  0.3718  0.3599 -0.8842
12321TIP3   OH258453   0.000   4.198   0.082  0.4411 -0.0487 -0.3224
12321TIP3    H158454  -0.018   4.171  -0.008 -0.5355 -1.0839  0.1734
12321TIP3    H258455  -0.035   4.287   0.089 -0.3993 -0.3550 -0.6686
12322TIP3   OH258456   0.902   4.731  16.415 -0.3512  0.3494  0.2279
12322TIP3    H158457   0.860   4.732  16.501 -0.5140 -0.6800  0.1659
12322TIP3    H258458   0.834   4.700  16.355  0.4549 -1.2218  0.1055
12323TIP3   OH258459   6.257   0.761   4.700  0.0864 -0.4651 -0.5102
12323TIP3    H158460   6.303   0.742   4.618 -0.7369  2.3739 -1.7173
12323TIP3    H258461   6.284   0.850   4.722 -0.7376 -0.7182  1.6080
12324TIP3   OH258462   0.530   6.641  13.667  0.1098  0.1822  0.3934
12324TIP3    H158463   0.546   6.615  13.758 -1.2898  1.0006  0.8880
12324TIP3    H258464   0.482   6.723  13.674 -0.0017  0.2507 -1.0948
12325TIP3   OH258465   6.602   6.053  14.109  0.2121 -0.2170  0.6472
12325TIP3    H158466   6.563   6.088  14.029 -0.1025 -2.1359 -0.0684
12325TIP3    H258467   6.536   6.069  14.177 -1.9440 -3.4427 -0.5533
12326TIP3   OH258468   1.584   5.723   2.316 -0.3927 -0.6568  0.0969
12326TIP3    H158469   1.659   5.667   2.294 -1.0734 -3.2032  3.8860
12326TIP3    H258470   1.509   5.682   2.273  0.0350  1.0578 -2.4402
12327TIP3   OH258471   3.202   5.752  13.342 -0.3556 -0.7564  0.0256
12327TIP3    H158472   3.172   5.668  13.306  1.9800 -2.9566  2.9746
12327TIP3    H258473   3.224   5.733  13.433  2.9468  2.4364  0.0027
12328TIP3   OH258474   4.131   6.417   6.212 -0.5002  0.1932 -0.1176
12328TIP3    H158475   4.064   6.378   6.156 -0.3829 -0.9713  0.5381
12328TIP3    H258476   4.160   6.345   6.269  0.4135  0.9949  0.4488
12329TIP3   OH258477   1.665   1.740   5.626 -0.0345  0.4375  0.7324
12329TIP3    H158478   1.638   1.830   5.609  0.9157  0.6632  0.3621
12329TIP3    H258479   1.585   1.689   5.615 -0.7674  1.3334  1.7940
12330TIP3   OH258480   2.814   4.165  10.872 -0.3106  1.0803  0.0958
12330TIP3    H158481   2.852   4.225  10.807 -2.5451  2.1547 -0.2415
12330TIP3    H258482   2.857   4.188  10.954  0.3623  1.7175 -0.4236
12331TIP3   OH258483   4.740   3.231  10.987 -0.6900  0.5958  0.6350
12331TIP3    H158484   4.744   3.288  10.910 -1.4677 -0.1553  0.0262
12331TIP3    H258485   4.702   3.150  10.954  2.3941 -1.0784  1.0188
12332TIP3   OH258486   6.199   2.632  11.641 -0.2118 -0.2411  0.3407
12332TIP3    H158487   6.149   2.700  11.598 -0.5558  0.5963  2.0011
12332TIP3    H258488   6.220   2.569  11.572 -2.9551 -0.2820 -0.5152
12333TIP3   OH258489   2.224   3.365   2.478 -0.1267 -0.4158 -0.4757
12333TIP3    H158490   2.221   3.271   2.463  1.4907 -0.4948 -0.3925
12333TIP3    H258491   2.317   3.389   2.466 -0.4988  1.1416 -0.4178
12334TIP3   OH258492   4.424   4.781  16.252  0.2025 -0.0084  0.3180
12334TIP3    H158493   4.456   4.692  16.264 -0.3504 -0.3524 -0.7624
12334TIP3    H258494   4.442   4.801  16.160 -1.8067  0.1390 -0.0721
12335TIP3   OH258495   6.742   6.791  16.181  0.2560  0.3665 -0.2239
12335TIP3    H158496   6.794   6.711  16.176  0.9618  0.8499 -0.6620
12335TIP3    H258497   6.801   6.856  16.217 -1.2108 -0.0261  3.0457
12336TIP3   OH258498   2.836   2.511  14.391 -0.1506 -0.3101  0.3233
12336TIP3    H158499   2.812   2.601  14.369 -1.2065 -0.0955  2.2710
12336TIP3    H258500   2.912   2.519  14.448 -0.0600 -0.6675  0.2571
12337TIP3   OH258501   2.042   5.139   0.253 -0.3073  0.6431 -0.1852
12337TIP3    H158502   2.066   5.226   0.283 -2.4000  0.1290  3.1884
12337TIP3    H258503   2.113   5.082   0.284 -1.5947  0.3802  2.3715
12338TIP3   OH258504   3.453   3.352   0.642 -0.3698 -0.2594  0.6525
12338TIP3    H158505   3.374   3.402   0.660 -1.5245 -1.5410 -0.6989
12338TIP3    H258506   3.465   3.297   0.720 -0.4912  0.3412  1.0930
12339TIP3   OH258507   1.282   2.981   5.762  0.0543 -0.5063  0.2726
12339TIP3    H158508   1.220   2.908   5.775 -1.4042  0.3950 -1.3036
12339TIP3    H258509   1.275   3.033   5.841 -1.6929 -0.0899 -0.1337
12340TIP3   OH258510   6.422   1.237   1.406 -0.1465  0.5094  0.3052
12340TIP3    H158511   6.387   1.317   1.445  0.2639  1.1447 -0.6172
12340TIP3    H258512   6.346   1.181   1.394 -0.3414  0.4840  1.5914
12341TIP3   OH258513   4.431   2.063   2.604 -0.5824 -0.5641 -0.2014
12341TIP3    H158514   4.363   2.005   2.570  0.0985 -0.4820 -1.7461
12341TIP3    H258515   4.385   2.119   2.667 -1.7570 -1.0986 -0.5625
12342TIP3   OH258516   4.554   1.763   4.769  0.2723 -0.1303 -0.3669
12342TIP3    H158517   4.542   1.822   4.843  1.9986 -0.3299  0.0966
12342TIP3    H258518   4.646   1.773   4.745 -0.2078 -0.2315 -2.3480
12343TIP3   OH258519   5.084   4.977  14.797  0.3715  1.0755 -0.0706
12343TIP3    H158520   5.132   4.937  14.869 -0.1738  1.5296  0.5543
12343TIP3    H258521   5.101   4.920  14.722  1.4909  0.9747  0.2508
12344TIP3   OH258522   3.789   3.429  10.907  0.4062  0.1404  0.1890
12344TIP3    H158523   3.772   3.335  10.916 -1.5663  0.4226 -0.3473
12344TIP3    H258524   3.883   3.435  10.889  0.4648 -1.7685 -0.2383
12345TIP3   OH258525   0.533   3.558   0.247 -0.0430 -0.3874  0.1849
12345TIP3    H158526   0.453   3.608   0.266 -0.0983 -0.7282  0.8588
12345TIP3    H258527   0.602   3.603   0.295 -0.0954 -0.9628  0.8069
12346TIP3   OH258528   1.732   1.972  17.215  0.0042 -0.6897 -0.7198
12346TIP3    H158529   1.764   2.058  17.244 -2.2503 -0.0643  0.0109
12346TIP3    H258530   1.782   1.909  17.268 -0.7544  0.2946  1.2227
12347TIP3   OH258531   5.376   4.132  11.278  0.8367 -0.8925 -0.0787
12347TIP3    H158532   5.347   4.086  11.356 -1.1029 -0.0669 -0.2902
12347TIP3    H258533   5.433   4.069  11.233  0.3354 -2.1099  0.9680
12348TIP3   OH258534   1.105   6.671   4.038  0.4552 -0.3274  0.0874
12348TIP3    H158535   1.026   6.640   3.994  1.6108 -1.3369 -1.3206
12348TIP3    H258536   1.126   6.601   4.100  0.1823 -0.0004  0.5528
12349TIP3   OH258537   2.901   2.327   2.697  0.6224  0.6952  0.0410
12349TIP3    H158538   2.923   2.241   2.662 -1.1172  0.4788 -0.5714
12349TIP3    H258539   2.842   2.309   2.770 -0.3317  1.3943 -0.5466
12350TIP3   OH258540   3.310   0.151   2.397  0.0360  0.3256 -0.8268
12350TIP3    H158541   3.313   0.143   2.302 -2.2045  0.2901 -0.9113
12350TIP3    H258542   3.295   0.244   2.413 -0.5841  0.1798 -0.5458
12351TIP3   OH258543   4.565   6.288   5.193 -0.1064 -0.3939  0.2549
12351TIP3    H158544   4.483   6.322   5.228 -0.4419 -0.5364 -0.3910
12351TIP3    H258545   4.628   6.360   5.205  0.0384 -0.7949  2.0725
12352TIP3   OH258546   4.552   4.493   0.947  0.7140 -0.4692 -0.0818
12352TIP3    H158547   4.473   4.535   0.981  0.8753  0.6148 -1.0364
12352TIP3    H258548   4.595   4.459   1.025  0.2057  0.4981  0.6432
12353TIP3   OH258549   1.499   4.860   5.645  0.3135  0.7982 -0.3292
12353TIP3    H158550   1.450   4.941   5.631 -1.4028 -0.1699 -0.0506
12353TIP3    H258551   1.522   4.862   5.738 -0.8063  0.3945 -0.0340
12354TIP3   OH258552   6.602   0.846   1.005 -0.5117  0.2297 -0.1214
12354TIP3    H158553   6.567   0.794   1.077  0.8217  0.7665  0.9268
12354TIP3    H258554   6.661   0.786   0.959 -1.6226 -0.2160 -0.9852
12355TIP3   OH258555   4.270   2.059   5.133 -0.3917  0.0651  0.2001
12355TIP3    H158556   4.340   2.007   5.172  0.5966  1.1262 -0.1368
12355TIP3    H258557   4.216   1.995   5.086 -1.6426 -1.2460  3.2945
12356TIP3   OH258558   6.526   0.190  16.099 -0.4528  0.3233  0.5101
12356TIP3    H158559   6.529   0.175  16.004  0.9085 -0.6789  0.6973
12356TIP3    H258560   6.475   0.117  16.133  2.0496 -1.2896  0.9029
12357TIP3   OH258561   6.667   6.653   4.510  0.5636 -0.4126  0.1736
12357TIP3    H158562   6.645   6.581   4.570  1.3161 -0.0357  0.9158
12357TIP3    H258563   6.763   6.659   4.515  0.5957 -0.1435 -0.8013
12358TIP3   OH258564   6.130   2.815   1.203  0.3693  0.5880  0.0263
12358TIP3    H158565   6.223   2.835   1.204  0.3635  0.6546 -0.4635
12358TIP3    H258566   6.095   2.870   1.133  0.3712 -1.2289 -1.4378
12359TIP3   OH258567   1.621   2.047  16.984  0.3113  0.1006 -0.2539
12359TIP3    H158568   1.665   2.000  17.054 -0.0532  1.0554  0.6368
12359TIP3    H258569   1.652   2.006  16.903  2.2304  0.2466  0.3879
12360TIP3   OH258570   3.554   6.356   2.695 -0.3546  0.2293  0.0623
12360TIP3    H158571   3.517   6.277   2.734 -0.5175  0.4188  0.2948
12360TIP3    H258572   3.488   6.424   2.712 -0.4369  0.3077 -0.5575
12361TIP3   OH258573   5.673   5.977   2.689 -0.6086 -0.4145  0.5225
12361TIP3    H158574   5.751   5.923   2.701 -0.2566 -0.2015 -0.7557
12361TIP3    H258575   5.662   5.982   2.594  0.0897  2.7848  0.5670
12362TIP3   OH258576   5.083   6.547   4.791  0.0862  0.4571 -0.3494
12362TIP3    H158577   5.016   6.532   4.858  0.0575  0.9202 -0.2768
12362TIP3    H258578   5.075   6.639   4.768  1.0520  0.6431  0.0367
12363TIP3   OH258579   6.642   1.104  17.123 -0.4160  0.2146 -0.6584
12363TIP3    H158580   6.589   1.160  17.179 -0.0968  1.8070 -1.8961
12363TIP3    H258581   6.614   1.015  17.144 -2.9151  0.9714 -0.6196
12364TIP3   OH258582   5.289   2.767  13.855 -0.4645 -0.1955  0.3594
12364TIP3    H158583   5.329   2.791  13.771  1.3307 -0.1603  1.2158
12364TIP3    H258584   5.208   2.818  13.858  0.0520  0.7221 -0.8073
12365TIP3   OH258585   3.432   3.473  16.679  0.4087 -0.5116  0.5885
12365TIP3    H158586   3.397   3.384  16.674  1.2635 -0.9641  2.3203
12365TIP3    H258587   3.387   3.512  16.754 -0.5932  0.8191 -0.6615
12366TIP3   OH258588   1.081   0.781  15.503  0.3836  0.0071  0.1024
12366TIP3    H158589   1.025   0.753  15.575  0.6723  1.2613  0.8256
12366TIP3    H258590   1.041   0.742  15.425 -1.3241  0.6513  0.6334
12367TIP3   OH258591   4.040   5.547   2.966  0.3668  0.1005  0.3196
12367TIP3    H158592   4.116   5.591   2.926 -0.9332  0.1067 -2.2313
12367TIP3    H258593   4.033   5.465   2.917 -1.0449 -0.0596  0.7954
12368TIP3   OH258594   2.379   5.831   5.377 -0.8672 -0.4248  0.2561
12368TIP3    H158595   2.381   5.906   5.437 -0.6881 -1.1102  1.1096
12368TIP3    H258596   2.441   5.855   5.307 -0.7933  0.2144  0.5330
12369TIP3   OH258597   3.428   4.256   1.974  0.2585  0.4682 -0.0961
12369TIP3    H158598   3.467   4.252   1.887  0.6221 -2.3114  0.1438
12369TIP3    H258599   3.351   4.198   1.968  1.1121 -0.9016  1.8084
12370TIP3   OH258600   2.168   5.363  11.140  0.4002  0.4252  0.7405
12370TIP3    H158601   2.177   5.287  11.082 -2.0059 -0.5287  1.5330
12370TIP3    H258602   2.136   5.433  11.082  3.9753  1.3060 -0.2750
12371TIP3   OH258603   0.514   4.935  12.034  0.0895  0.1418  0.2806
12371TIP3    H158604   0.443   4.984  12.078  0.2691  0.2799  0.4206
12371TIP3    H258605   0.594   4.972  12.071  0.2906  1.4488 -1.4175
12372TIP3   OH258606   1.367   6.794   5.262 -0.0125 -0.0277  0.7212
12372TIP3    H158607   1.370   6.724   5.327  0.9550 -1.3408 -0.7042
12372TIP3    H258608   1.443   6.848   5.282  1.2270 -1.3547 -0.3019
12373TIP3   OH258609   3.605   2.254  14.188 -0.1463 -0.1832  0.1281
12373TIP3    H158610   3.674   2.226  14.248  0.6465  2.2070  0.3578
12373TIP3    H258611   3.650   2.274  14.106 -0.6424  0.7496  0.0760
12374TIP3   OH258612   1.047   1.955   1.320 -0.7868  0.1137  0.1821
12374TIP3    H158613   1.035   1.893   1.248 -1.0771 -0.3720  0.6449
12374TIP3    H258614   1.015   2.038   1.285  0.1541  0.1421 -0.6399
12375TIP3   OH258615   5.295   1.250  11.825  0.4869 -0.1100 -0.5334
12375TIP3    H158616   5.358   1.226  11.893  0.6395 -0.4409 -0.7909
12375TIP3    H258617   5.211   1.221  11.859  0.6238 -0.6913 -0.6886
12376TIP3   OH258618   1.221   6.446   4.594 -0.3691  0.6107 -0.4054
12376TIP3    H158619   1.243   6.487   4.511 -0.3454  1.2697 -0.0751
12376TIP3    H258620   1.241   6.513   4.660  1.5205 -0.5979  0.2836
12377TIP3   OH258621   2.577   5.527  14.332 -0.2045 -0.2642  0.6520
12377TIP3    H158622   2.510   5.523  14.263 -1.3139 -0.7663  1.7292
12377TIP3    H258623   2.654   5.564  14.289 -1.0960  0.0813 -0.6827
12378TIP3   OH258624   1.469   4.621  15.144 -0.4566  0.2384 -0.2442
12378TIP3    H158625   1.543   4.562  15.163 -1.2465 -0.6943 -0.0191
12378TIP3    H258626   1.393   4.563  15.142 -1.4261  1.4446  1.2534
12379TIP3   OH258627   2.229   1.399   5.782 -0.3084  0.2490 -0.8850
12379TIP3    H158628   2.164   1.428   5.718 -0.6575  1.0881 -0.1651
12379TIP3    H258629   2.314   1.419   5.741 -0.5318  1.0646 -0.9556
12380TIP3   OH258630   4.848   5.392   3.874 -0.6613  0.0468  0.0878
12380TIP3    H158631   4.862   5.308   3.919  3.1170 -0.5483 -1.9369
12380TIP3    H258632   4.900   5.455   3.923  0.1471  0.2375 -0.9897
12381TIP3   OH258633   3.465   1.498   3.205  0.3341  0.1515 -0.1950
12381TIP3    H158634   3.461   1.593   3.216  2.1385  0.2972 -0.7115
12381TIP3    H258635   3.378   1.474   3.173  0.1058  1.7243 -0.7926
12382TIP3   OH258636   2.833   2.861   3.949  0.4051  0.2408 -0.0936
12382TIP3    H158637   2.818   2.887   3.858  1.2300 -0.3800 -0.4096
12382TIP3    H258638   2.904   2.917   3.979 -0.3996  1.0064  0.4337
12383TIP3   OH258639   4.450   4.482  10.728 -0.2311  0.1974  0.2561
12383TIP3    H158640   4.472   4.395  10.694 -0.1045  1.0381 -1.8974
12383TIP3    H258641   4.355   4.481  10.737 -0.2851  0.0072 -0.2978
12384TIP3   OH258642   1.297   1.183  16.730 -0.1766  0.0295  0.5417
12384TIP3    H158643   1.391   1.196  16.741 -0.0785  1.0522 -1.1654
12384TIP3    H258644   1.288   1.147  16.641 -1.3082 -1.2304  1.1472
12385TIP3   OH258645   3.055   2.714  11.273  0.0261 -0.0282  0.0575
12385TIP3    H158646   3.072   2.634  11.223  0.6679 -0.6209  1.2188
12385TIP3    H258647   3.139   2.758  11.277  0.1952 -0.4646  1.4537
12386TIP3   OH258648   2.627   0.224  15.496  0.2383 -0.4627  0.8605
12386TIP3    H158649   2.697   0.199  15.435 -0.4885  2.6149 -1.3659
12386TIP3    H258650   2.669   0.285  15.557  0.3818 -1.6250  1.9363
12387TIP3   OH258651   3.916   2.073  12.992  1.0481  0.1806 -0.1504
12387TIP3    H158652   3.934   2.075  12.898 -0.2197 -0.3175 -0.4191
12387TIP3    H258653   3.962   1.995  13.024 -0.2363 -0.8355 -0.7453
12388TIP3   OH258654   5.557   5.944  11.059 -0.5347 -0.0550 -0.3976
12388TIP3    H158655   5.530   6.014  11.117 -0.0034  0.8057 -1.1721
12388TIP3    H258656   5.475   5.904  11.029 -0.8171 -0.1986  0.5666
12389TIP3   OH258657   2.967   5.457   2.941 -0.3373  0.2687 -0.0407
12389TIP3    H158658   3.058   5.456   2.912 -0.1161  1.1771  0.5903
12389TIP3    H258659   2.946   5.365   2.956  0.4081  0.0336 -0.3910
12390TIP3   OH258660   1.337   6.806   5.006  0.1919 -0.4090  0.1969
12390TIP3    H158661   1.280   6.882   5.017 -0.1996 -0.8155  1.0026
12390TIP3    H258662   1.380   6.796   5.091  1.4695 -0.1076 -0.4065
12391TIP3   OH258663   4.180   1.442   0.860 -0.0430 -0.3516 -0.2536
12391TIP3    H158664   4.213   1.526   0.892 -0.8034 -0.2804  0.3660
12391TIP3    H258665   4.112   1.465   0.797  1.1467 -0.4966 -1.5933
12392TIP3   OH258666   4.298   4.221  10.872  0.2034  0.1327 -0.0472
12392TIP3    H158667   4.212   4.180  10.872  1.0697 -1.7360 -0.3114
12392TIP3    H258668   4.359   4.148  10.865  1.7578  1.5493 -1.7205
12393TIP3   OH258669   0.501   2.027  16.641  0.1673 -0.2583  0.1376
12393TIP3    H158670   0.565   2.070  16.584 -0.6405  1.1722  0.2989
12393TIP3    H258671   0.434   1.993  16.582  0.0029  0.0782  0.1296
12394TIP3   OH258672   1.905   4.818   5.483 -0.1772  0.3121  0.1895
12394TIP3    H158673   1.899   4.735   5.531  1.0931  1.8188  3.0975
12394TIP3    H258674   1.833   4.871   5.517 -0.3420  0.7901 -0.8807
12395TIP3   OH258675   6.686   4.401  12.798  0.3602  0.0252  0.2733
12395TIP3    H158676   6.606   4.372  12.754  0.9721 -2.5094  0.7422
12395TIP3    H258677   6.660   4.418  12.888  0.0282  0.8156  0.0325
12396TIP3   OH258678   0.399   0.988  16.221  0.4606 -0.5690  0.2705
12396TIP3    H158679   0.333   1.049  16.253 -1.0087 -2.4722  0.9072
12396TIP3    H258680   0.381   0.979  16.128  1.4360  0.8681 -0.0765
12397TIP3   OH258681   5.205   1.111   4.985  0.6226 -0.4161 -0.3972
12397TIP3    H158682   5.215   1.162   4.905  1.5086  0.8803  0.5065
12397TIP3    H258683   5.292   1.113   5.025  0.1751 -0.9996  0.6203
12398TIP3   OH258684   2.041   5.980   1.601  0.3651 -0.3414 -0.4604
12398TIP3    H158685   2.052   6.065   1.558  1.6638 -1.3692 -2.2585
12398TIP3    H258686   1.976   5.934   1.547 -1.0502 -0.1634  1.0503
12399TIP3   OH258687   5.155   0.247  16.696 -0.1955 -0.0676  0.5464
12399TIP3    H158688   5.248   0.270  16.685 -0.3120  0.9000  1.5088
12399TIP3    H258689   5.127   0.220  16.609  1.5047 -2.3110  0.6379
12400TIP3   OH258690   1.395   4.661  14.489 -0.6904  0.2189 -0.2811
12400TIP3    H158691   1.398   4.648  14.394  0.2648 -0.1664 -0.2018
12400TIP3    H258692   1.331   4.731  14.501 -0.2438  0.8118 -1.2730
12401TIP3   OH258693   2.877   1.902  15.033 -0.3049  0.1803  0.1939
12401TIP3    H158694   2.953   1.955  15.012 -0.5370  0.1000 -0.8865
12401TIP3    H258695   2.824   1.903  14.953 -1.4403  0.2462  0.9351
12402TIP3   OH258696   0.617   2.957   0.598  0.3309  0.0847  0.9062
12402TIP3    H158697   0.651   3.044   0.580 -0.7313  0.1937 -0.6543
12402TIP3    H258698   0.691   2.898   0.582  0.8183  0.6220  1.1654
12403TIP3   OH258699   2.954   4.414  12.372  0.0964 -0.2403  0.1846
12403TIP3    H158700   2.869   4.449  12.399  0.2045  0.1406  0.0344
12403TIP3    H258701   2.989   4.372  12.451 -0.9504 -1.8395 -0.1786
12404TIP3   OH258702   4.679   1.299   4.298 -0.4481  0.1437  0.1831
12404TIP3    H158703   4.609   1.363   4.313  0.0942  0.6773  0.4724
12404TIP3    H258704   4.685   1.250   4.380  0.1813  0.7606  0.5143
12405TIP3   OH258705   1.918   5.946  16.843  0.7652  0.3594  0.0833
12405TIP3    H158706   1.867   5.969  16.921 -0.6017 -0.7281 -0.4675
12405TIP3    H258707   1.948   5.856  16.860 -1.3173 -0.6760 -1.5268
12406TIP3   OH258708   1.663   3.467   2.469 -0.2752  0.2183  0.5877
12406TIP3    H158709   1.751   3.481   2.503 -0.4994  1.9362  0.4824
12406TIP3    H258710   1.609   3.456   2.547  0.0871 -1.2793  0.6452
12407TIP3   OH258711   5.407   6.624   2.496  0.0775 -0.2268  0.0492
12407TIP3    H158712   5.411   6.539   2.451 -0.2965 -0.3718  0.2913
12407TIP3    H258713   5.322   6.660   2.472  0.7262  0.6137 -1.0031
12408TIP3   OH258714   0.173   4.457   3.700  0.7320  0.2691 -0.2775
12408TIP3    H158715   0.083   4.488   3.706  0.4328 -0.5368 -0.4613
12408TIP3    H258716   0.206   4.495   3.619  0.4851  0.3787 -0.3275
12409TIP3   OH258717   2.068   2.563   1.814 -0.0952  0.0679 -0.0053
12409TIP3    H158718   2.001   2.499   1.836 -1.7719  1.7295 -0.1315
12409TIP3    H258719   2.110   2.527   1.735  0.2312 -1.7398  0.9639
12410TIP3   OH258720   3.964   5.743  13.897 -0.0508 -0.0902  0.0744
12410TIP3    H158721   4.026   5.672  13.912  0.2124 -0.1286 -1.1399
12410TIP3    H258722   3.989   5.779  13.812  0.2660  1.9203  0.9916
12411TIP3   OH258723   0.774   1.019  12.596 -0.2022 -0.3585  0.1312
12411TIP3    H158724   0.821   0.976  12.525  0.4748 -2.6232  1.8703
12411TIP3    H258725   0.806   1.109  12.595  1.3952 -0.9195 -1.0627
12412TIP3   OH258726   2.948   6.065   0.903  0.2031 -0.0217  0.3016
12412TIP3    H158727   2.873   6.053   0.961 -0.0878  0.3879  0.0107
12412TIP3    H258728   2.988   5.978   0.897 -0.3769 -0.2863  0.2820
12413TIP3   OH258729   4.020   4.965   4.500  0.0834  0.1646  0.4373
12413TIP3    H158730   3.952   4.938   4.438  1.5879  1.3683 -1.8217
12413TIP3    H258731   4.034   4.888   4.555 -1.5469 -0.8243 -0.4783
12414TIP3   OH258732   6.171   1.231  12.019 -0.0278  0.0777 -0.0561
12414TIP3    H158733   6.081   1.247  12.049  0.1749  0.7198  0.2174
12414TIP3    H258734   6.210   1.177  12.087  0.1217  0.6903  0.3441
12415TIP3   OH258735   2.159   3.016  17.081  0.2120 -0.2104  0.2289
12415TIP3    H158736   2.069   2.993  17.102 -0.2597  0.2871 -1.1853
12415TIP3    H258737   2.202   2.932  17.064 -0.4663 -0.3427 -0.9098
12416TIP3   OH258738   5.691   4.343   3.819  0.4260 -0.1712 -0.3364
12416TIP3    H158739   5.601   4.374   3.811  0.0899 -1.0457 -0.0495
12416TIP3    H258740   5.733   4.407   3.876 -0.4063 -0.5198  0.6939
12417TIP3   OH258741   4.689   1.847   5.764  0.1954  0.0717  0.5054
12417TIP3    H158742   4.692   1.888   5.677 -1.3950  0.9416  0.8379
12417TIP3    H258743   4.698   1.754   5.747  0.0537  0.2506 -0.5908
12418TIP3   OH258744   6.103   6.337   1.527  0.3651 -0.5059  0.5599
12418TIP3    H158745   6.066   6.270   1.470 -0.3695  0.7361 -0.4506
12418TIP3    H258746   6.147   6.398   1.468  1.1705 -0.1688  1.4823
12419TIP3   OH258747   4.220   0.006  11.101  0.2292  0.6845 -0.3975
12419TIP3    H158748   4.148  -0.048  11.133  1.7691  0.3313  2.6344
12419TIP3    H258749   4.253  -0.040  11.024  0.0882 -1.5750  0.8444
12420TIP3   OH258750   4.509   0.206  15.708 -0.5342 -0.2358 -0.4901
12420TIP3    H158751   4.580   0.256  15.668  0.3444 -0.3407  0.9020
12420TIP3    H258752   4.459   0.270  15.759  0.8201 -0.7980  1.6069
12421TIP3   OH258753   5.317   4.249   3.992 -0.3362  0.4371 -0.5633
12421TIP3    H158754   5.406   4.213   3.991 -0.4064  0.2180  0.2220
12421TIP3    H258755   5.274   4.208   3.917  0.0686  0.1317 -0.6330
12422TIP3   OH258756   2.455   2.386  13.872  0.1426 -0.3643 -0.6283
12422TIP3    H158757   2.503   2.467  13.891 -0.2204 -0.8322  2.6346
12422TIP3    H258758   2.363   2.413  13.870  0.0302 -0.6749  0.3482
12423TIP3   OH258759   2.743   2.925  15.301 -0.0200 -0.1702  0.1609
12423TIP3    H158760   2.815   2.870  15.332 -0.7233 -0.7821  0.7306
12423TIP3    H258761   2.745   3.001  15.359  0.5726  0.1328 -0.2457
12424TIP3   OH258762   5.211   6.810  16.845  0.1063  0.3490 -0.8142
12424TIP3    H158763   5.237   6.832  16.756 -2.6338  0.8939 -1.5347
12424TIP3    H258764   5.200   6.894  16.888 -0.1582  0.1230 -0.4384
12425TIP3   OH258765   6.563   1.098   2.356 -0.4655 -0.4173  0.5454
12425TIP3    H158766   6.577   1.053   2.273 -1.2486  0.3115  0.0061
12425TIP3    H258767   6.648   1.137   2.377 -0.3042 -0.4725 -0.0018
12426TIP3   OH258768   3.237   5.522  16.870 -0.6002 -0.3506  0.1673
12426TIP3    H158769   3.220   5.492  16.959 -1.6806  0.5829  0.2846
12426TIP3    H258770   3.183   5.600  16.860  0.5281  0.3131 -0.8675
12427TIP3   OH258771   1.502   4.116  14.013  0.6020 -0.0790 -0.0194
12427TIP3    H158772   1.406   4.114  14.011  0.5041  2.8193 -0.7221
12427TIP3    H258773   1.525   4.066  14.091 -1.4849 -0.6176  0.3001
12428TIP3   OH258774   6.677   0.561   2.623 -0.2889  0.8183  0.7880
12428TIP3    H158775   6.637   0.475   2.633 -0.3332  0.7029 -0.3828
12428TIP3    H258776   6.771   0.545   2.638 -0.3699  0.6737  1.1508
12429TIP3   OH258777   2.238   0.765  13.582 -0.0934  0.3055  0.0962
12429TIP3    H158778   2.237   0.677  13.621 -2.2006  0.0708 -0.3780
12429TIP3    H258779   2.328   0.779  13.554  0.6443 -0.9946  1.7678
12430TIP3   OH258780   6.443   1.129   6.163 -0.1998  0.1403  0.0740
12430TIP3    H158781   6.381   1.163   6.227 -0.7452 -0.1199 -0.3166
12430TIP3    H258782   6.435   1.034   6.171 -1.0419  0.1060 -1.1244
12431TIP3   OH258783   4.474   1.935  12.776  0.8748  0.3622  0.1622
12431TIP3    H158784   4.412   1.898  12.714  1.2953 -1.3191  0.7189
12431TIP3    H258785   4.420   1.989  12.835 -0.2553 -1.9773  1.3329
12432TIP3   OH258786   5.409   1.540   4.833  0.3436  0.2125  0.0543
12432TIP3    H158787   5.359   1.608   4.878  1.3319  2.1247 -1.6907
12432TIP3    H258788   5.499   1.556   4.860  0.3822 -1.5315  1.0255
12433TIP3   OH258789   6.382   4.335  12.402 -0.2150  0.2944  0.4729
12433TIP3    H158790   6.346   4.422  12.419  0.9766  0.1226  4.3914
12433TIP3    H258791   6.460   4.351  12.349 -0.4787  1.5575  0.4509
12434TIP3   OH258792   0.842   1.544  16.354 -0.0900 -0.3109 -0.0087
12434TIP3    H158793   0.911   1.489  16.317  0.7801  0.1401  0.9035
12434TIP3    H258794   0.824   1.609  16.286 -0.0322 -0.7922 -0.4854
12435TIP3   OH258795   5.457   2.558  16.238 -0.1986  0.0014  0.4997
12435TIP3    H158796   5.547   2.588  16.221 -0.4225  0.7042  0.5365
12435TIP3    H258797   5.450   2.476  16.189  0.8024 -0.6183  1.3607
12436TIP3   OH258798   1.857   1.021  14.292 -0.6251 -0.4577 -0.2216
12436TIP3    H158799   1.948   1.017  14.261 -0.4493 -0.8113  0.3271
12436TIP3    H258800   1.807   1.048  14.216  0.0331  0.4374 -0.3518
12437TIP3   OH258801   3.566   2.184  14.725 -0.3376 -0.2085  0.0302
12437TIP3    H158802   3.581   2.226  14.810 -1.1677 -0.8146  0.4694
12437TIP3    H258803   3.570   2.090  14.743  0.4569 -0.3425 -0.7781
12438TIP3   OH258804   1.022   0.407  14.727 -0.3360  0.6235  0.4188
12438TIP3    H158805   1.038   0.318  14.696 -2.4419  0.7564 -1.2375
12438TIP3    H258806   0.993   0.397  14.817  0.5570 -0.2693  0.6082
12439TIP3   OH258807   1.271   0.891   2.360 -0.2541 -0.1674 -0.4681
12439TIP3    H158808   1.187   0.936   2.353 -0.3934 -0.3604 -0.0930
12439TIP3    H258809   1.317   0.937   2.430 -0.6979 -1.0642  0.4312
12440TIP3   OH258810   3.046   5.286  15.886  0.6000  0.3599 -0.2916
12440TIP3    H158811   3.080   5.197  15.876 -0.7287 -0.2336  0.3024
12440TIP3    H258812   2.954   5.280  15.859  0.0346  1.1517  1.3407
12441TIP3   OH258813   4.110   2.585  11.070 -0.0200 -0.2267  0.4983
12441TIP3    H158814   4.203   2.565  11.063  0.0228 -0.4419  1.6647
12441TIP3    H258815   4.106   2.680  11.079  0.1574 -0.3257  1.6533
12442TIP3   OH258816   6.123   3.267   5.835 -0.1126  0.3170  0.0278
12442TIP3    H158817   6.050   3.297   5.889 -0.3229 -0.9080  0.4371
12442TIP3    H258818   6.145   3.342   5.781 -0.1457  1.4376  1.5482
12443TIP3   OH258819   3.061   4.179   4.602  0.0249 -0.1762  0.2300
12443TIP3    H158820   3.147   4.183   4.643 -0.2181  0.2444  0.7014
12443TIP3    H258821   3.041   4.086   4.598  0.7989 -0.3188 -0.5088
12444TIP3   OH258822   0.557   5.537  10.391  0.3028  0.0841  0.2852
12444TIP3    H158823   0.625   5.481  10.431  2.1423  1.3559 -0.9926
12444TIP3    H258824   0.549   5.505  10.302 -1.4044 -0.5756  0.6528
12445TIP3   OH258825   4.242   1.753  16.623  0.0993 -0.0617 -0.2341
12445TIP3    H158826   4.160   1.704  16.624 -0.4726  0.8597 -0.8610
12445TIP3    H258827   4.240   1.806  16.703  0.3092 -0.3980 -0.0073
12446TIP3   OH258828   4.785   0.899  14.847  0.1399  0.0442 -0.3879
12446TIP3    H158829   4.785   0.812  14.887  0.0419  0.2715  0.1047
12446TIP3    H258830   4.876   0.928  14.854 -0.1186  0.5923  0.7778
12447TIP3   OH258831   5.064   6.804   4.732 -0.4668  0.1574  0.0395
12447TIP3    H158832   5.005   6.833   4.663 -0.1228 -0.9983 -0.7621
12447TIP3    H258833   5.128   6.875   4.741  0.3016 -0.2467 -1.8042
12448TIP3   OH258834   5.692   1.988  11.115 -0.0579  0.3053 -0.1857
12448TIP3    H158835   5.635   1.915  11.135  2.4110 -1.3144  1.2071
12448TIP3    H258836   5.714   1.978  11.022  0.4987 -0.8943  0.0736
12449TIP3   OH258837   1.981   0.020  13.597 -0.0103  0.0757  0.1166
12449TIP3    H158838   1.941  -0.062  13.625  0.4882  0.0366  0.7296
12449TIP3    H258839   2.020   0.056  13.677  0.0099  0.7721 -0.2034
12450TIP3   OH258840   1.850   6.142   5.533 -0.3100 -0.1386  0.3272
12450TIP3    H158841   1.826   6.075   5.470 -2.0520  0.5287  0.2504
12450TIP3    H258842   1.817   6.109   5.617  0.1106 -0.0369  0.5360
12451TIP3   OH258843   2.729   0.098   1.377  0.6369  0.1727 -0.0485
12451TIP3    H158844   2.798   0.156   1.346  1.0320 -0.3327 -0.1295
12451TIP3    H258845   2.680   0.074   1.299  0.1209  0.8511  0.0654
12452TIP3   OH258846   2.966   3.066  11.369  0.9571 -0.4245  0.0044
12452TIP3    H158847   2.878   3.068  11.406  0.7152  0.8923 -0.6101
12452TIP3    H258848   2.960   3.004  11.296  0.5262 -0.2702 -0.0886
12453TIP3   OH258849   1.917   0.987  13.925  0.3048 -0.0909 -0.1794
12453TIP3    H158850   1.934   1.036  13.845 -0.5582 -0.1167 -0.3803
12453TIP3    H258851   1.865   1.047  13.979 -0.6091 -0.7142 -0.3552
12454TIP3   OH258852   6.185   1.868   2.139  0.1542  0.3355  0.5737
12454TIP3    H158853   6.157   1.837   2.053 -0.9917  1.9329  0.3597
12454TIP3    H258854   6.104   1.890   2.185  0.7286 -1.0011  2.2710
12455TIP3   OH258855   5.229   1.713  15.049 -0.4390 -0.6116 -0.0432
12455TIP3    H158856   5.318   1.750  15.045 -0.5991 -0.1570  0.5134
12455TIP3    H258857   5.214   1.679  14.961  0.4546 -1.0822 -0.0208
12456TIP3   OH258858   1.319   0.016  12.003  0.1685 -0.2117 -0.7464
12456TIP3    H158859   1.397   0.038  11.952 -0.6379  1.3511 -1.3328
12456TIP3    H258860   1.278   0.100  12.024  0.7059 -0.7583  2.9167
12457TIP3   OH258861   5.332   3.453  14.567 -0.1710  0.0342  0.4559
12457TIP3    H158862   5.375   3.376  14.529 -0.0416  0.3218  0.0230
12457TIP3    H258863   5.268   3.480  14.502  1.4374  1.7376 -0.4651
12458TIP3   OH258864   2.324   5.399   1.663 -0.1717  0.0289  0.2325
12458TIP3    H158865   2.234   5.433   1.666  0.6742  2.3822 -0.0510
12458TIP3    H258866   2.313   5.304   1.664 -2.7695  0.2191 -2.4398
12459TIP3   OH258867   3.377   6.338   5.897 -0.0569 -0.1818  0.1559
12459TIP3    H158868   3.299   6.376   5.858  0.5053  2.0759  1.1349
12459TIP3    H258869   3.344   6.274   5.961 -1.0414 -0.3228 -0.4882
12460TIP3   OH258870   0.514   5.104   3.078  0.2846 -0.6683  0.2706
12460TIP3    H158871   0.554   5.124   2.993 -2.0894  0.5658 -0.5924
12460TIP3    H258872   0.545   5.173   3.136 -0.7179  0.3836 -0.4382
12461TIP3   OH258873   6.406   5.548  16.664 -0.2654  0.7013  0.0571
12461TIP3    H158874   6.439   5.625  16.618 -0.1125  0.8277  0.3739
12461TIP3    H258875   6.483   5.494  16.679 -0.5567 -0.0452 -1.1660
12462TIP3   OH258876   0.666   5.853  11.659  0.0520  0.1215  0.5540
12462TIP3    H158877   0.627   5.887  11.739 -0.1476 -0.1113  0.5564
12462TIP3    H258878   0.651   5.758  11.663  1.1978 -0.0650  0.8808
12463TIP3   OH258879   6.757   5.817   2.484 -0.1303 -0.3600 -0.0281
12463TIP3    H158880   6.848   5.788   2.477  0.3069  0.3484  2.3159
12463TIP3    H258881   6.763   5.903   2.525 -1.8821 -0.4970  0.5241
12464TIP3   OH258882   3.723   5.552   0.740 -0.9425 -0.0671  0.2743
12464TIP3    H158883   3.705   5.496   0.815  2.5260 -0.0144  1.2297
12464TIP3    H258884   3.806   5.520   0.705 -1.3410  1.3735 -2.1672
12465TIP3   OH258885   2.204   3.211   3.396 -0.5792  0.0081 -0.2560
12465TIP3    H158886   2.231   3.172   3.479 -0.1028 -1.1360 -0.9351
12465TIP3    H258887   2.286   3.239   3.355 -0.8217  0.6710 -0.2936
12466TIP3   OH258888   3.175   1.229   4.954  0.0062 -0.0930 -0.0584
12466TIP3    H158889   3.187   1.311   5.002 -0.0963  1.4075 -2.5504
12466TIP3    H258890   3.263   1.206   4.925 -0.0838 -0.4369 -0.0595
12467TIP3   OH258891   1.987   2.492   2.976  0.2647  0.4228 -1.0566
12467TIP3    H158892   1.936   2.417   2.948 -1.8096  1.1552  0.6665
12467TIP3    H258893   1.945   2.567   2.932 -1.3304  1.2423  1.7474
12468TIP3   OH258894   5.592   2.890  11.713  0.2780 -0.5565  0.0896
12468TIP3    H158895   5.521   2.908  11.774  2.1153 -0.4954  2.2899
12468TIP3    H258896   5.601   2.971  11.662 -0.7060 -0.2920  0.3267
12469TIP3   OH258897   0.494   5.513  12.258  0.0931  0.1054 -0.1570
12469TIP3    H158898   0.482   5.535  12.166  0.0108 -1.7380 -0.6200
12469TIP3    H258899   0.573   5.559  12.285  2.2308 -2.2735 -2.1923
12470TIP3   OH258900   5.465   0.608   5.580  0.0818 -0.0716  0.1187
12470TIP3    H158901   5.490   0.591   5.671 -1.2008 -0.1544  0.4621
12470TIP3    H258902   5.482   0.701   5.567 -2.1562  0.5114  1.2360
12471TIP3   OH258903   3.303   4.795   1.584 -0.0050  0.4261  0.3747
12471TIP3    H158904   3.325   4.832   1.499 -0.8636  0.0447 -0.0223
12471TIP3    H258905   3.233   4.732   1.566  0.7755 -0.7054  1.1653
12472TIP3   OH258906   6.003   2.243  13.951 -0.2261 -0.0838  0.3788
12472TIP3    H158907   5.993   2.199  13.867  0.9756  1.4338 -0.5568
12472TIP3    H258908   6.054   2.181  14.004  3.0381  0.8515 -1.5182
12473TIP3   OH258909   1.746   3.788   4.559  0.2454  0.0708  0.1588
12473TIP3    H158910   1.798   3.775   4.638  1.4926  1.3364 -0.4303
12473TIP3    H258911   1.763   3.710   4.506  2.1877  0.7992 -0.3508
12474TIP3   OH258912   6.671   4.557  16.748  0.3751  0.0866 -0.0348
12474TIP3    H158913   6.658   4.494  16.819  0.1446  0.1131 -0.0543
12474TIP3    H258914   6.766   4.567  16.743  0.4151 -0.2481 -0.0209
12475TIP3   OH258915   2.435   1.292   2.576 -0.0734 -0.0309 -0.2702
12475TIP3    H158916   2.518   1.327   2.607  1.1819 -1.2420 -2.1444
12475TIP3    H258917   2.382   1.369   2.553  0.9682  0.7124 -0.1756
12476TIP3   OH258918   3.921   5.180   3.874 -0.1011  0.0669 -0.5258
12476TIP3    H158919   3.848   5.136   3.830 -2.7687  3.1468  0.6112
12476TIP3    H258920   3.974   5.215   3.802 -1.8760  1.0533 -1.4054
12477TIP3   OH258921   0.034   0.430  12.957 -0.4217  0.2302 -0.3365
12477TIP3    H158922   0.080   0.488  12.896  0.4467  1.8732  1.8117
12477TIP3    H258923  -0.055   0.425  12.922  0.6528 -0.8444 -3.0578
12478TIP3   OH258924   3.783   2.380  12.802 -0.4016 -0.3238 -0.8147
12478TIP3    H158925   3.733   2.414  12.727  0.4975  2.3296 -0.2656
12478TIP3    H258926   3.816   2.458  12.846  2.9860 -1.9452 -0.2904
12479TIP3   OH258927   3.645   2.605  15.708  0.8486  0.1094 -0.4712
12479TIP3    H158928   3.696   2.664  15.764  0.2725 -0.0287  0.1969
12479TIP3    H258929   3.703   2.530  15.694  1.6512  0.8827 -1.4603
12480TIP3   OH258930   5.130   2.081   2.663  0.2356 -0.4291 -0.3726
12480TIP3    H158931   5.080   2.161   2.648  0.0961 -0.6424 -1.0909
12480TIP3    H258932   5.215   2.099   2.623  1.2522  0.4554  2.0626
12481TIP3   OH258933   0.170   3.754  13.322  0.4312 -0.0680 -0.5426
12481TIP3    H158934   0.121   3.817  13.269  1.3757  0.8320 -0.3683
12481TIP3    H258935   0.201   3.689  13.259 -1.4932 -0.9828 -0.5623
12482TIP3   OH258936   0.412   6.237   0.694 -0.2548 -0.2058  0.7530
12482TIP3    H158937   0.365   6.161   0.728 -0.1668 -0.9351 -0.7215
12482TIP3    H258938   0.452   6.277   0.771 -0.3471 -1.6186  1.5501
12483TIP3   OH258939   0.552   3.853   4.074  0.0288 -0.1048  0.0383
12483TIP3    H158940   0.534   3.925   4.134  0.2879  1.6686 -1.9607
12483TIP3    H258941   0.511   3.777   4.115 -1.7418  1.5073  1.3676
12484TIP3   OH258942   5.720   3.232  15.714 -0.2995 -0.2057 -0.1790
12484TIP3    H158943   5.681   3.171  15.777 -0.6663 -1.1766 -1.3389
12484TIP3    H258944   5.769   3.176  15.654 -0.6775  0.6442 -1.2764
12485TIP3   OH258945   6.410   6.675  12.950  0.0530  0.3321 -0.2401
12485TIP3    H158946   6.332   6.626  12.975  0.0850  1.0067  1.1905
12485TIP3    H258947   6.377   6.760  12.919  0.2698  1.0040  1.3307
12486TIP3   OH258948   1.484   0.044  16.244 -0.4107 -0.5501 -0.1366
12486TIP3    H158949   1.438  -0.031  16.206  0.5577 -0.5013 -1.4302
12486TIP3    H258950   1.558   0.004  16.290 -1.3462 -0.5764  1.3687
12487TIP3   OH258951   1.497   3.874  15.539 -0.6541 -0.1587  0.4035
12487TIP3    H158952   1.577   3.920  15.517 -1.4272  0.9184 -0.2144
12487TIP3    H258953   1.512   3.783  15.512 -0.6705  0.6157 -2.3172
12488TIP3   OH258954   2.554   5.466   1.543 -0.6085 -0.4097  0.4556
12488TIP3    H158955   2.527   5.498   1.457 -0.8495  0.3847  0.8268
12488TIP3    H258956   2.474   5.430   1.582 -0.7223  0.1888  0.7745
12489TIP3   OH258957   1.061   0.122  16.883 -0.0295 -0.3052  0.5801
12489TIP3    H158958   1.152   0.150  16.878 -0.6653  1.5363 -1.1357
12489TIP3    H258959   1.019   0.188  16.939 -0.7463  0.0353 -0.3544
12490TIP3   OH258960   3.394   4.868   3.357  0.2929 -0.1977 -0.5551
12490TIP3    H158961   3.474   4.847   3.309  0.3643  0.2367 -0.6343
12490TIP3    H258962   3.346   4.926   3.298  0.6398  0.7923  0.1165
12491TIP3   OH258963   5.063   5.128  15.216  0.7530  0.3249 -0.0714
12491TIP3    H158964   4.991   5.134  15.153  0.5676 -2.7381 -0.2406
12491TIP3    H258965   5.096   5.217  15.224 -0.7258  1.1604 -2.7379
12492TIP3   OH258966   2.656   4.758   1.880 -0.4147  0.0185 -0.1805
12492TIP3    H158967   2.721   4.811   1.833 -0.1490  1.5654  1.8641
12492TIP3    H258968   2.697   4.739   1.964 -2.1261 -0.0097  0.6703
12493TIP3   OH258969   4.191   0.339  16.801  0.4912 -0.2177 -0.1154
12493TIP3    H158970   4.247   0.267  16.774  0.8515 -0.0062  0.0719
12493TIP3    H258971   4.168   0.384  16.719 -1.8083 -2.0366 -0.5253
12494TIP3   OH258972   6.742   3.969  13.116 -0.0064  0.0821 -0.6297
12494TIP3    H158973   6.737   4.035  13.047  1.6917  1.8269  0.8585
12494TIP3    H258974   6.673   3.907  13.095 -1.4487  2.1707 -2.2615
12495TIP3   OH258975   1.373   0.311  15.823  0.3034  0.3485  0.4081
12495TIP3    H158976   1.361   0.336  15.731 -0.4599 -2.0064 -0.1590
12495TIP3    H258977   1.468   0.304  15.834  0.5087  2.5884  0.3746
12496TIP3   OH258978   4.693   3.502   2.380  0.1047  0.2577 -0.2183
12496TIP3    H158979   4.616   3.446   2.379  0.3578 -0.1005  0.1299
12496TIP3    H258980   4.672   3.573   2.320  0.4316 -1.0955 -1.9647
12497TIP3   OH258981   2.315   2.784   6.185 -0.1794  0.7608 -0.1441
12497TIP3    H158982   2.395   2.819   6.223 -0.4108  0.2995  0.7899
12497TIP3    H258983   2.248   2.848   6.207  0.0632  1.5502 -1.6189
12498TIP3   OH258984   1.490   5.645  13.278 -0.6665  0.2411  0.8394
12498TIP3    H158985   1.535   5.602  13.350 -2.0059 -0.9450  0.9924
12498TIP3    H258986   1.411   5.682  13.317 -0.3694  1.4104  0.3768
12499TIP3   OH258987   4.155   6.556  17.015  0.6986  0.1249 -0.7741
12499TIP3    H158988   4.175   6.523  16.927  0.5757  0.6953 -1.0174
12499TIP3    H258989   4.193   6.492  17.074  0.2517 -0.5888 -1.2510
12500TIP3   OH258990   1.959   3.452   2.412 -0.1076  0.6836 -0.7112
12500TIP3    H158991   1.942   3.359   2.399  0.1710  0.4092  0.8421
12500TIP3    H258992   2.055   3.460   2.406 -0.2451  1.2294 -2.9652
12501TIP3   OH258993   4.595   4.768  11.477  0.1132  0.1224  0.5774
12501TIP3    H158994   4.646   4.705  11.527  0.7908  1.1153  1.1634
12501TIP3    H258995   4.625   4.757  11.387  2.1307  1.3813  1.0559
12502TIP3   OH258996   1.519   3.596  14.298  0.5749  0.1474 -0.0956
12502TIP3    H158997   1.525   3.636  14.212 -0.5384 -0.1678 -0.3279
12502TIP3    H258998   1.426   3.580  14.311  0.7933 -0.3895  0.8986
12503TIP3   OH258999   5.197   2.543   2.325 -0.5421 -0.4744  0.3913
12503TIP3    H159000   5.151   2.473   2.279  1.6699 -0.6044 -1.7619
12503TIP3    H259001   5.172   2.623   2.279 -0.6097 -0.2407  0.8314
12504TIP3   OH259002   6.786   5.757  12.913  0.1756  0.0864 -0.1120
12504TIP3    H159003   6.801   5.783  13.004  1.8515  0.9234 -0.6023
12504TIP3    H259004   6.865   5.786  12.867 -0.2864 -1.0868 -1.6797
12505TIP3   OH259005   2.078   3.631   5.261 -0.0150 -0.2617  0.0126
12505TIP3    H159006   2.155   3.577   5.279  0.4509  0.2602 -0.3945
12505TIP3    H259007   2.038   3.646   5.347 -0.7381 -2.1045  0.0269
12506TIP3   OH259008   1.643   4.772   2.393  0.4845 -0.3369  0.3682
12506TIP3    H159009   1.572   4.803   2.449  1.8825 -2.1871  3.3107
12506TIP3    H259010   1.688   4.851   2.364  0.4299  0.6366  2.8637
12507TIP3   OH259011   6.308   2.371  12.193  0.2416  0.0629 -0.0930
12507TIP3    H159012   6.271   2.290  12.158 -2.3295  0.7776  0.8629
12507TIP3    H259013   6.332   2.422  12.116  1.2504 -1.2881 -0.7009
12508TIP3   OH259014   0.476   6.043   6.027  0.5872  0.0600 -0.4008
12508TIP3    H159015   0.408   5.985   5.993 -0.3017  0.3320  0.8677
12508TIP3    H259016   0.533   5.985   6.077 -0.5191  0.3065  1.1910
12509TIP3   OH259017   0.388   2.523  11.342  0.0882 -0.3231  0.0769
12509TIP3    H159018   0.480   2.499  11.354 -0.0578 -0.0417  1.8402
12509TIP3    H259019   0.391   2.618  11.329 -0.1919  0.1311  3.1239
12510TIP3   OH259020   2.770   2.252  15.275 -0.1567 -0.0400 -0.6204
12510TIP3    H159021   2.713   2.271  15.200 -4.1243 -2.8495  1.4668
12510TIP3    H259022   2.790   2.159  15.267  2.5288  0.4624 -0.1567
12511TIP3   OH259023   1.960   4.632   0.555 -0.1731  0.0013 -0.4519
12511TIP3    H159024   1.911   4.566   0.506  0.8556 -0.0649 -1.4001
12511TIP3    H259025   1.933   4.716   0.516 -0.4823  0.0593 -0.1226
12512TIP3   OH259026   2.019   6.293   6.447  0.1192 -0.2177  0.1203
12512TIP3    H159027   1.962   6.259   6.379  0.8758 -1.5671  0.1526
12512TIP3    H259028   1.976   6.268   6.529  0.1313 -0.1529  0.1466
12513TIP3   OH259029   3.595   6.075  12.359 -0.2554  0.4770  0.1124
12513TIP3    H159030   3.572   6.138  12.290 -1.6942 -0.2548 -0.0974
12513TIP3    H259031   3.579   5.989  12.320 -1.5641  0.0605  1.4981
12514TIP3   OH259032   3.473   4.405   4.360 -0.1053  0.0095 -0.3611
12514TIP3    H159033   3.430   4.329   4.322 -0.6638 -0.0642  0.4006
12514TIP3    H259034   3.428   4.480   4.322 -1.9476 -0.0722  1.5525
12515TIP3   OH259035   4.814   3.458   3.865  0.2051 -0.2308 -0.0108
12515TIP3    H159036   4.730   3.448   3.910  0.4138 -2.1457 -0.0047
12515TIP3    H259037   4.875   3.488   3.934 -0.2148  0.1070  0.2171
12516TIP3   OH259038   4.856   4.818  15.453  0.1846 -0.2604 -0.2032
12516TIP3    H159039   4.868   4.800  15.360  0.8050 -0.0543 -0.1609
12516TIP3    H259040   4.761   4.827  15.463  0.1946  0.9251 -1.0351
12517TIP3   OH259041   0.338   4.965   0.716  0.0536 -0.0748  0.1244
12517TIP3    H159042   0.375   4.889   0.671  0.9061  0.9750 -0.9667
12517TIP3    H259043   0.243   4.954   0.707  0.1932 -0.4782 -0.9237
12518TIP3   OH259044   3.767   5.051   3.714  0.3352  0.5235  0.3564
12518TIP3    H159045   3.754   5.058   3.620  1.8197  0.7174  0.1536
12518TIP3    H259046   3.783   4.957   3.730 -1.5042  0.2375  0.6452
12519TIP3   OH259047   5.371   2.435  11.070 -0.2363  0.1951 -0.1955
12519TIP3    H159048   5.423   2.372  11.021 -1.0227  0.2154 -1.0758
12519TIP3    H259049   5.384   2.518  11.024  0.7899  0.6880  0.9557
12520TIP3   OH259050   0.788   1.761  14.782  0.2976 -0.0631  0.5727
12520TIP3    H159051   0.775   1.712  14.863 -0.6912  1.2882  1.2437
12520TIP3    H259052   0.840   1.702  14.727  0.6185 -1.1650  2.0165
12521TIP3   OH259053   3.902   4.141  16.724  0.3384  0.1625 -0.1840
12521TIP3    H159054   3.811   4.170  16.717 -0.8946 -3.1881  0.9421
12521TIP3    H259055   3.935   4.186  16.802 -0.1366  1.8680 -0.9374
12522TIP3   OH259056   6.172   6.632   2.849  0.5922  0.6803  0.3225
12522TIP3    H159057   6.141   6.676   2.929 -0.9255  1.0867 -0.4584
12522TIP3    H259058   6.241   6.573   2.879  0.5391  1.3563  1.8337
12523TIP3   OH259059   2.162   0.388   5.301 -0.0006  0.1629  0.1397
12523TIP3    H159060   2.250   0.360   5.274  0.1913 -0.0147  0.9312
12523TIP3    H259061   2.130   0.315   5.355 -0.9901 -0.1643 -0.8843
12524TIP3   OH259062   3.103   5.056   2.165 -0.3446 -0.6681 -0.6876
12524TIP3    H159063   3.070   5.140   2.133  1.5395  1.3038  2.2399
12524TIP3    H259064   3.194   5.053   2.134 -0.6486 -2.0113 -1.4542
12525TIP3   OH259065   6.724   1.157  13.517  0.1487 -0.0905 -0.4970
12525TIP3    H159066   6.665   1.141  13.591  0.0493  0.7371 -0.3833
12525TIP3    H259067   6.677   1.219  13.461  0.5604 -0.0724 -0.8272
12526TIP3   OH259068   6.268   5.366  12.835  0.1373  0.7416 -0.0352
12526TIP3    H159069   6.331   5.320  12.890 -0.4804 -0.2506 -0.1588
12526TIP3    H259070   6.287   5.459  12.850 -0.3036  0.4980  2.1760
12527TIP3   OH259071   0.059   6.314   0.123  0.2744 -0.0696  0.0410
12527TIP3    H159072   0.062   6.332   0.029 -1.7820  1.4147  0.2183
12527TIP3    H259073   0.028   6.224   0.130 -0.1930  0.0329 -0.6963
12528TIP3   OH259074   4.079   2.003   1.080 -0.1220 -0.3047  0.1154
12528TIP3    H159075   4.045   1.915   1.094 -0.0782 -0.2071  0.8728
12528TIP3    H259076   4.034   2.056   1.146  0.2912  0.1297  0.0476
12529TIP3   OH259077   6.125   0.502  14.784  0.2548 -0.1358 -0.3589
12529TIP3    H159078   6.033   0.526  14.770  1.2983  2.6022 -3.1369
12529TIP3    H259079   6.137   0.508  14.878 -1.9656  1.3042 -0.1332
12530TIP3   OH259080   3.239   0.472  12.395  0.1321 -0.0332 -0.1697
12530TIP3    H159081   3.255   0.564  12.373  0.3367 -0.4163 -1.6576
12530TIP3    H259082   3.167   0.475  12.458 -0.1103  1.1329 -0.4910
12531TIP3   OH259083   2.378   0.078   3.329 -0.2999 -0.2264  0.0195
12531TIP3    H159084   2.423   0.162   3.339  0.2124 -0.5227  0.1905
12531TIP3    H259085   2.448   0.014   3.324 -0.7305 -0.8263  1.4971
12532TIP3   OH259086   6.641   5.577  12.145  0.0514 -0.1054  0.1457
12532TIP3    H159087   6.626   5.482  12.148  1.5365 -0.3260  1.4172
12532TIP3    H259088   6.640   5.604  12.237  1.5401  0.7929 -0.0887
12533TIP3   OH259089   6.344   0.700   2.326  0.1036 -0.4154 -0.3792
12533TIP3    H159090   6.286   0.643   2.376  1.8570 -2.0724 -0.1462
12533TIP3    H259091   6.377   0.763   2.390 -0.3114 -0.3619 -0.2150
12534TIP3   OH259092   5.549   4.445   2.224 -0.0246 -0.0237 -0.0128
12534TIP3    H159093   5.638   4.467   2.198 -0.0843 -0.3404 -0.5023
12534TIP3    H259094   5.560   4.376   2.290  0.1226  0.6765  0.6950
12535TIP3   OH259095   3.145   4.108   3.724 -0.1553 -0.2641 -0.3647
12535TIP3    H159096   3.159   4.073   3.636  1.7477 -0.0737 -0.1793
12535TIP3    H259097   3.165   4.034   3.782  2.4916  0.6699 -0.0124
12536TIP3   OH259098   4.411   4.608   4.833 -0.3728  0.1749 -0.3381
12536TIP3    H159099   4.344   4.556   4.789  2.0270 -0.7007 -3.1388
12536TIP3    H259100   4.454   4.547   4.893 -0.3677  0.0536 -0.4659
12537TIP3   OH259101   2.841   3.453  13.860  0.0543  0.0268  0.1788
12537TIP3    H159102   2.810   3.370  13.896  0.0500 -0.4302 -0.8517
12537TIP3    H259103   2.930   3.462  13.893 -0.3275  0.1650  1.2005
12538TIP3   OH259104   3.524   4.614   1.723  0.4391  0.0609 -0.2135
12538TIP3    H159105   3.497   4.524   1.707  0.5457  0.0440 -0.3038
12538TIP3    H259106   3.443   4.665   1.716  0.1885 -0.1656  0.9880
12539TIP3   OH259107   2.080   0.544  11.326 -0.6174 -0.7463 -0.0808
12539TIP3    H159108   2.114   0.624  11.287  0.5404 -0.1349  2.0910
12539TIP3    H259109   2.154   0.508  11.375 -1.4043 -2.6514 -0.2640
12540TIP3   OH259110   5.683   3.195  16.403 -0.0487 -0.1071  0.4256
12540TIP3    H159111   5.734   3.164  16.328 -1.0679 -1.1388  0.1411
12540TIP3    H259112   5.695   3.127  16.470 -1.3043 -0.5296  0.2346
12541TIP3   OH259113   1.667   2.944   0.142 -0.3523 -0.0905  0.7528
12541TIP3    H159114   1.663   2.900   0.058 -0.3262 -0.1556  0.7857
12541TIP3    H259115   1.759   2.970   0.151 -0.7801  1.8871 -0.2527
12542TIP3   OH259116   3.002   3.595   3.528  0.1128  0.0751  0.2196
12542TIP3    H159117   2.996   3.662   3.597  1.1694 -0.5823  0.9694
12542TIP3    H259118   2.919   3.547   3.533  0.7156 -0.8270  1.9476
12543TIP3   OH259119   4.424   1.201   2.517  0.0112 -0.3358  0.3744
12543TIP3    H159120   4.411   1.111   2.488  0.1553 -0.4902  0.7946
12543TIP3    H259121   4.513   1.223   2.490 -0.0953 -0.2513  0.0915
12544TIP3   OH259122   3.654   3.371   4.812  0.5764 -0.1412 -0.5289
12544TIP3    H159123   3.597   3.320   4.755  1.5083 -0.4588 -1.1937
12544TIP3    H259124   3.676   3.449   4.761 -1.1405  1.1434  0.6195
12545TIP3   OH259125   1.544   0.779   3.971  0.2042  0.4115  0.7602
12545TIP3    H159126   1.519   0.723   4.044 -2.1952  1.5518  0.8735
12545TIP3    H259127   1.587   0.721   3.909  1.8598 -0.6685  2.8426
12546TIP3   OH259128   3.539   5.942  15.062  0.3334  0.0726  0.1354
12546TIP3    H159129   3.506   6.032  15.056 -0.5907 -0.3599 -1.6304
12546TIP3    H259130   3.466   5.893  15.100  0.0383 -0.3120 -0.9022
12547TIP3   OH259131   5.315   6.008   4.866 -0.5614  0.0058 -0.4067
12547TIP3    H159132   5.278   6.037   4.782 -0.4309  0.1122 -0.4280
12547TIP3    H259133   5.364   6.084   4.898 -0.7955  0.0420 -0.1245
12548TIP3   OH259134   2.915   6.544   4.803 -0.3438  0.2764 -0.3481
12548TIP3    H159135   2.891   6.574   4.716 -0.9448  1.1045  0.0969
12548TIP3    H259136   2.983   6.605   4.832 -2.3407  1.9427  0.9937
12549TIP3   OH259137   1.763   6.184  13.377  0.3202  0.8047 -0.5007
12549TIP3    H159138   1.700   6.156  13.311  0.9744 -0.7586 -0.5043
12549TIP3    H259139   1.843   6.204  13.328  0.8178 -0.3954 -0.1968
12550TIP3   OH259140   1.362   6.251  11.876  0.4370  0.3975 -0.2562
12550TIP3    H159141   1.329   6.341  11.868 -0.4967 -0.0619 -1.6398
12550TIP3    H259142   1.285   6.196  11.861  1.2550 -0.6511 -0.6045
12551TIP3   OH259143   5.151   2.061  14.062  0.1375  0.2169 -0.6848
12551TIP3    H159144   5.240   2.087  14.037  0.2546  0.8963  0.3997
12551TIP3    H259145   5.140   1.973  14.026  0.7773  0.6582 -1.9573
12552TIP3   OH259146   6.005   1.999   2.620  0.0179 -0.4581 -0.5379
12552TIP3    H159147   6.099   1.979   2.626  0.0672  0.0575  0.4919
12552TIP3    H259148   5.964   1.939   2.683 -0.2208  0.1597 -0.1076
12553TIP3   OH259149   4.771   6.811   2.100  0.5736 -0.8219  0.4253
12553TIP3    H159150   4.724   6.894   2.094 -0.6453 -1.4735  0.9170
12553TIP3    H259151   4.864   6.836   2.100  0.2509  0.4216 -1.1626
12554TIP3   OH259152   1.957   6.100   0.260 -0.0599  0.4642 -0.2838
12554TIP3    H159153   1.963   6.148   0.343 -1.0586  0.1351 -0.0048
12554TIP3    H259154   2.028   6.036   0.264  0.3281  0.9064  0.0125
12555TIP3   OH259155   1.598   0.248   0.452  0.1742  0.1864 -0.2120
12555TIP3    H159156   1.628   0.253   0.362 -0.2070  1.4731 -0.2906
12555TIP3    H259157   1.609   0.337   0.486  0.1500 -0.2403  0.9523
12556TIP3   OH259158   1.003   2.430   1.317  0.0852 -0.8497  0.7832
12556TIP3    H159159   0.972   2.363   1.377  1.1090 -1.3434  0.7845
12556TIP3    H259160   1.074   2.474   1.365 -0.9898  0.6540  1.0226
12557TIP3   OH259161   0.343   5.969  13.740 -0.4594 -0.0412 -0.1562
12557TIP3    H159162   0.410   5.902  13.755 -0.0480  0.2065 -0.8780
12557TIP3    H259163   0.350   5.990  13.647 -0.1215  1.5094  0.2026
12558TIP3   OH259164   0.212   1.218   0.152 -0.5512 -0.1384 -0.9293
12558TIP3    H159165   0.261   1.171   0.219 -0.8625  1.7234  0.6454
12558TIP3    H259166   0.136   1.163   0.135  0.2692 -1.3277 -0.8207
12559TIP3   OH259167   2.243   6.769  15.186  0.4508  0.4056 -0.2706
12559TIP3    H159168   2.250   6.696  15.125 -3.2961 -1.1465  1.0018
12559TIP3    H259169   2.268   6.733  15.271 -1.6744  0.4580  0.4128
12560TIP3   OH259170   1.813   5.573   2.174  0.1015  0.1180  0.1158
12560TIP3    H159171   1.794   5.532   2.090  0.6658 -1.1237  0.5787
12560TIP3    H259172   1.903   5.605   2.166 -0.6147  2.0592 -0.5365
12561TIP3   OH259173   6.299   0.647  15.866  0.2484 -0.5515 -0.2108
12561TIP3    H159174   6.380   0.683  15.829 -0.7198  0.8666 -1.0125
12561TIP3    H259175   6.304   0.553  15.848  2.6602 -0.8133  1.6043
12562TIP3   OH259176   5.360   5.672   2.327  0.0331 -0.4680  0.0166
12562TIP3    H159177   5.312   5.710   2.254  1.8736  0.2644 -0.8564
12562TIP3    H259178   5.452   5.694   2.309  0.4584  0.4122  2.9419
12563TIP3   OH259179   1.073   0.747  14.921  0.3423  0.3344  0.8910
12563TIP3    H159180   0.984   0.713  14.927 -0.0926  1.3151  0.1519
12563TIP3    H259181   1.102   0.723  14.833  0.3520  1.0893  0.6819
12564TIP3   OH259182   3.901   5.627  13.468  0.6809 -0.3192  0.2522
12564TIP3    H159183   3.948   5.630  13.384 -0.1028  0.5904 -0.1644
12564TIP3    H259184   3.820   5.580  13.449  0.3552  0.1699  0.4262
12565TIP3   OH259185   1.788   5.208  15.866 -0.2701 -0.0511  0.7255
12565TIP3    H159186   1.795   5.303  15.859 -0.2201 -0.0324  1.0494
12565TIP3    H259187   1.795   5.177  15.775  0.2222  0.2210  0.6665
12566TIP3   OH259188   2.643   5.136  15.017  0.4075 -0.6315  0.0186
12566TIP3    H159189   2.718   5.077  15.026 -0.2175 -1.5620 -0.7165
12566TIP3    H259190   2.682   5.220  14.992  1.1726 -1.2362 -0.8847
12567TIP3   OH259191   4.634   6.636   1.552  0.1659  0.5804 -0.0258
12567TIP3    H159192   4.590   6.592   1.479  0.5969 -0.3843  0.3027
12567TIP3    H259193   4.685   6.705   1.509 -2.0414  2.0647 -0.3768
12568TIP3   OH259194   2.646   1.364   3.642  0.2581  1.1997 -0.3649
12568TIP3    H159195   2.688   1.449   3.641  2.5349  0.0866 -1.4242
12568TIP3    H259196   2.618   1.349   3.552  0.1136  0.6951 -0.2419
12569TIP3   OH259197   0.835   3.337  15.644  0.1924 -0.1572 -0.7383
12569TIP3    H159198   0.765   3.337  15.710 -0.5236 -3.0142 -1.4277
12569TIP3    H259199   0.824   3.420  15.597  1.7544  2.7503  3.7200
12570TIP3   OH259200   5.266   6.116  17.283 -0.0722 -0.2341  0.5283
12570TIP3    H159201   5.332   6.133  17.215  0.9060 -0.8278  1.3198
12570TIP3    H259202   5.278   6.023  17.305 -1.9870 -0.6774 -0.1698
12571TIP3   OH259203   0.080   0.257   6.334  0.2298  0.3654 -0.3317
12571TIP3    H159204   0.155   0.201   6.311  0.4075  0.2844  0.4396
12571TIP3    H259205   0.095   0.280   6.425  0.2044  1.7520 -0.6631
12572TIP3   OH259206   4.404   2.505  10.446 -0.9447  0.9103 -1.2938
12572TIP3    H159207   4.465   2.433  10.463 -1.0349  1.2497  0.5602
12572TIP3    H259208   4.336   2.467  10.391 -0.3952 -0.1252 -1.2604
12573TIP3   OH259209   2.939   3.473  14.225 -0.4026 -0.2557 -0.2272
12573TIP3    H159210   3.011   3.471  14.289  0.9877  0.1241 -1.7255
12573TIP3    H259211   2.964   3.542  14.164 -2.8767  0.9917  0.1325
12574TIP3   OH259212   6.488   5.603   6.102 -0.1139 -0.3681 -0.2843
12574TIP3    H159213   6.557   5.557   6.055  1.1583  2.4042 -1.2227
12574TIP3    H259214   6.534   5.650   6.172 -0.9433  1.8359 -1.1665
12575TIP3   OH259215   0.948   0.570   3.607 -0.5332  0.2922  0.1676
12575TIP3    H159216   1.029   0.612   3.635  0.3625 -1.8623  0.9691
12575TIP3    H259217   0.878   0.627   3.640  0.6316  1.0834  1.2913
12576TIP3   OH259218   6.255   5.983  17.266 -0.1182 -0.0375 -0.1199
12576TIP3    H159219   6.349   5.983  17.284 -0.0068  1.4543 -0.6598
12576TIP3    H259220   6.215   5.953  17.348  0.8244 -0.8735  0.0475
12577TIP3   OH259221   2.035   0.539   0.542 -0.3760 -0.5102  0.2596
12577TIP3    H159222   2.020   0.477   0.614  2.9754 -2.2156 -0.4418
12577TIP3    H259223   2.075   0.615   0.584 -0.7924 -0.4327  0.5287
12578TIP3   OH259224   1.182   2.185   3.438  0.0701 -0.4982  0.1075
12578TIP3    H159225   1.120   2.134   3.387 -1.7280  1.1494  0.5518
12578TIP3    H259226   1.182   2.144   3.524  0.4379 -1.1675 -0.2118
12579TIP3   OH259227   6.018   5.510   4.660  0.0964  0.0983 -0.1413
12579TIP3    H159228   6.030   5.502   4.754  0.4321 -0.4645 -0.2277
12579TIP3    H259229   5.947   5.449   4.639 -0.3767  0.6638 -0.1636
12580TIP3   OH259230   2.179   5.212  14.487  0.4526  0.6308 -0.4873
12580TIP3    H159231   2.127   5.238  14.564 -3.0570  0.6163 -2.7403
12580TIP3    H259232   2.187   5.293  14.436  2.4017  0.5431 -0.3338
12581TIP3   OH259233   0.918   5.578   0.641  0.5713 -0.1831 -0.7319
12581TIP3    H159234   0.925   5.592   0.736 -0.7914  0.5562 -0.7312
12581TIP3    H259235   1.007   5.553   0.614  0.9278 -0.5695  0.7647
12582TIP3   OH259236   1.546   4.487   1.852 -0.3088  0.0316 -0.1304
12582TIP3    H159237   1.546   4.520   1.942 -0.4662 -1.1640  0.3182
12582TIP3    H259238   1.514   4.397   1.859 -0.8404  0.1022 -1.4501
12583TIP3   OH259239   2.598   5.086  14.349 -0.2220 -0.1505  0.0945
12583TIP3    H159240   2.524   5.126  14.394  1.1573 -0.0014  2.3240
12583TIP3    H259241   2.674   5.136  14.379  1.1594 -2.3963  0.4970
12584TIP3   OH259242   1.297   6.407   3.893 -0.0108 -0.4668  0.1941
12584TIP3    H159243   1.367   6.414   3.828 -0.0298  0.0496  0.2232
12584TIP3    H259244   1.261   6.319   3.881 -0.6462 -0.0378 -1.1508
12585TIP3   OH259245   0.955   0.993   3.268  0.5185  0.2320  0.6409
12585TIP3    H159246   1.008   1.071   3.279 -0.9216  1.2567  0.4425
12585TIP3    H259247   0.915   1.003   3.181  3.0933 -2.4385 -0.9502
12586TIP3   OH259248   1.670   5.723  13.931  0.4516 -0.0428  0.2831
12586TIP3    H159249   1.614   5.698  14.005  1.7987 -0.1063  1.2977
12586TIP3    H259250   1.609   5.756  13.865 -0.7246  0.6401  1.6769
12587TIP3   OH259251   2.992   3.778  14.212 -0.4244  0.0921  0.2205
12587TIP3    H159252   2.930   3.818  14.151  1.5680 -0.5211 -2.2907
12587TIP3    H259253   2.997   3.840  14.285 -1.3813  1.8049 -1.1176
12588TIP3   OH259254   5.730   2.140   2.033  0.0382 -0.0537 -0.0951
12588TIP3    H159255   5.736   2.047   2.054  0.2580  0.3460  1.7172
12588TIP3    H259256   5.818   2.174   2.047 -0.6361  0.9329  1.9139
12589TIP3   OH259257   1.391   1.926   1.660 -0.3379  0.2626 -0.5506
12589TIP3    H159258   1.414   1.890   1.746 -0.4555  0.4791 -0.4275
12589TIP3    H259259   1.340   1.857   1.618 -1.6197  0.7525  0.1636
12590TIP3   OH259260   1.831   5.210  11.208  0.1929 -0.0250 -0.0060
12590TIP3    H159261   1.842   5.265  11.130 -1.1940  0.8783  0.4274
12590TIP3    H259262   1.892   5.137  11.195  0.4494  0.4711 -1.6187
12591TIP3   OH259263   3.774   5.091  12.429 -0.3233 -0.3951  0.4348
12591TIP3    H159264   3.834   5.162  12.406  0.4038 -1.7017 -1.8539
12591TIP3    H259265   3.691   5.115  12.387 -0.6215  0.0571  1.2847
12592TIP3   OH259266   5.395   1.131   5.959  0.0306 -0.3968  0.0163
12592TIP3    H159267   5.378   1.064   5.893  0.6064 -1.3608  0.8428
12592TIP3    H259268   5.425   1.082   6.036 -1.6358  0.6124  1.3479
12593TIP3   OH259269   3.358   2.738  10.969  0.7648  0.3544 -0.1028
12593TIP3    H159270   3.286   2.699  10.920 -0.7460  1.5811  1.1069
12593TIP3    H259271   3.408   2.663  11.002 -2.0374 -0.6218  2.1189
12594TIP3   OH259272   0.886   6.584  12.379  0.1189  0.1261  0.3634
12594TIP3    H159273   0.924   6.583  12.291  0.5203  1.5411  0.5076
12594TIP3    H259274   0.953   6.542  12.434  0.6755  0.9138  0.3006
12595TIP3   OH259275   5.282   5.098   5.563 -0.0217  0.3541 -0.5468
12595TIP3    H159276   5.223   5.165   5.530 -1.0764 -0.3000 -0.0037
12595TIP3    H259277   5.274   5.103   5.658  1.3475  0.7476 -0.4404
12596TIP3   OH259278   0.349   3.249  13.376  0.1450 -0.3431  0.0616
12596TIP3    H159279   0.389   3.166  13.351  1.0627  0.5202 -1.3320
12596TIP3    H259280   0.262   3.247  13.336  0.4346 -0.3204 -0.5642
12597TIP3   OH259281   5.750   3.975   3.466  0.6500 -0.3740 -0.1297
12597TIP3    H159282   5.728   3.987   3.374  0.2963 -0.1386 -0.0128
12597TIP3    H259283   5.681   4.020   3.514  0.1456 -1.5425  0.2709
12598TIP3   OH259284   2.719   1.551  14.657  0.1758  0.0006 -0.1254
12598TIP3    H159285   2.626   1.572  14.673  0.1730 -1.0507  1.3227
12598TIP3    H259286   2.746   1.502  14.734  2.1092  0.7627 -0.2852
12599TIP3   OH259287   2.163   2.406   3.635 -0.1189  0.1494  0.5661
12599TIP3    H159288   2.092   2.447   3.684  0.4125  1.6228  0.1226
12599TIP3    H259289   2.121   2.370   3.557 -0.5333  0.1369  0.7944
12600TIP3   OH259290   6.805   5.785  11.527 -1.1209  0.2744  0.3276
12600TIP3    H159291   6.793   5.853  11.593 -0.3914  0.7686 -0.0491
12600TIP3    H259292   6.792   5.703  11.575  0.1697  0.6014  1.2532
12601TIP3   OH259293   5.592   2.060  12.000 -0.4222 -0.2746  0.3119
12601TIP3    H159294   5.519   2.121  12.012 -1.2267 -1.0970 -0.3873
12601TIP3    H259295   5.656   2.109  11.950 -1.1453 -0.0600 -0.4128
12602TIP3   OH259296   1.389   4.928  15.705  0.1242 -0.0294  0.0924
12602TIP3    H159297   1.419   4.895  15.790 -0.1289 -0.0012  0.1925
12602TIP3    H259298   1.360   5.018  15.724 -2.5215 -0.9495  0.5233
12603TIP3   OH259299   0.338   1.231  15.788  0.0845  0.3187 -0.1928
12603TIP3    H159300   0.383   1.203  15.867 -1.4798 -1.9396 -0.0641
12603TIP3    H259301   0.358   1.163  15.723 -0.2393  1.1444 -1.1777
12604TIP3   OH259302   2.944   1.319  15.813  0.1258  0.1384 -0.1987
12604TIP3    H159303   2.951   1.224  15.818  0.7733 -0.0367 -3.1906
12604TIP3    H259304   3.024   1.346  15.767 -0.0446  2.1346  0.6296
12605TIP3   OH259305   6.270   3.621   3.540 -0.6143  0.0870  0.0402
12605TIP3    H159306   6.351   3.598   3.586 -0.7326  0.3427  0.3801
12605TIP3    H259307   6.298   3.684   3.473 -0.7715  1.4853  1.2605
12606TIP3   OH259308   4.988   4.620  12.228  0.7220  0.4692  0.1643
12606TIP3    H159309   4.972   4.610  12.135  1.2943  0.3656  0.0698
12606TIP3    H259310   5.037   4.702  12.236 -0.9447  1.4363  0.5718
12607TIP3   OH259311   6.717   0.767  14.010  0.1540 -0.4940  0.0525
12607TIP3    H159312   6.797   0.767  13.957 -1.5232  1.3039 -2.5984
12607TIP3    H259313   6.680   0.854  13.998 -0.5900 -0.2014  3.8739
12608TIP3   OH259314   0.427   3.524  11.373  0.0290  0.1641 -0.0875
12608TIP3    H159315   0.422   3.458  11.304 -1.0693  0.8304 -0.6444
12608TIP3    H259316   0.517   3.559  11.367  0.7061 -1.4539  0.3915
12609TIP3   OH259317   1.031   3.834   0.368  0.8688 -0.3915 -0.1072
12609TIP3    H159318   1.004   3.885   0.444 -1.0579 -0.2757 -0.8144
12609TIP3    H259319   1.033   3.898   0.296 -1.3335 -1.2137 -0.9485
12610TIP3   OH259320   6.044   5.060   0.855  0.8339  0.0315  0.2751
12610TIP3    H159321   5.974   5.088   0.913 -0.1321 -1.4282 -0.1550
12610TIP3    H259322   6.007   5.066   0.767  1.2188 -0.7797  0.0473
12611TIP3   OH259323   3.115   0.453   0.604  0.3138  0.4566  0.3540
12611TIP3    H159324   3.101   0.368   0.562  0.2140  0.3464  0.6130
12611TIP3    H259325   3.103   0.516   0.533 -1.2983  0.3562  0.5053
12612TIP3   OH259326   4.393   4.120  14.836  0.2466 -0.2203 -0.6080
12612TIP3    H159327   4.434   4.073  14.764 -0.9584  1.2130 -2.2788
12612TIP3    H259328   4.436   4.205  14.837  0.2255 -0.2115  0.3396
12613TIP3   OH259329   6.250   0.095  11.460 -0.0438  0.3853  0.1214
12613TIP3    H159330   6.280   0.156  11.393 -1.6827  0.1454 -0.8546
12613TIP3    H259331   6.180   0.045  11.417  0.3848 -1.2677  1.3153
12614TIP3   OH259332   4.352   3.788   2.400  0.0557  0.4008  0.2278
12614TIP3    H159333   4.342   3.868   2.349  1.0063  1.3399  1.4828
12614TIP3    H259334   4.441   3.792   2.436 -0.4537 -0.3962  1.6491
12615TIP3   OH259335   0.333   6.512  14.891 -0.1939  0.0022 -0.2662
12615TIP3    H159336   0.313   6.419  14.885  0.8583 -0.3270  1.1158
12615TIP3    H259337   0.284   6.542  14.968 -0.1423  0.4863 -0.4225
12616TIP3   OH259338   1.356   0.905  14.183  0.1140  0.4616  0.1909
12616TIP3    H159339   1.280   0.847  14.173  0.4507  0.0298  0.1314
12616TIP3    H259340   1.396   0.879  14.265  0.8692 -0.0896 -0.3557
12617TIP3   OH259341   1.983   4.446  15.843  0.7074 -0.0506 -0.4041
12617TIP3    H159342   2.067   4.408  15.817  2.0134  1.8597  0.8144
12617TIP3    H259343   2.005   4.502  15.918 -1.4709  1.3748 -0.7956
12618TIP3   OH259344   6.567   1.506  17.081 -0.2365 -0.3411  0.3683
12618TIP3    H159345   6.610   1.429  17.118 -1.0102 -0.5173  0.9225
12618TIP3    H259346   6.520   1.545  17.155  0.7852  1.1232  0.2685
12619TIP3   OH259347   2.410   2.667   5.874  0.4669 -0.5684 -0.5336
12619TIP3    H159348   2.480   2.650   5.812  1.4488  2.6212 -0.3477
12619TIP3    H259349   2.451   2.660   5.960 -0.6635 -3.9355 -0.1801
12620TIP3   OH259350   6.625   5.299  12.085 -0.1131 -0.5443  0.4653
12620TIP3    H159351   6.697   5.250  12.044  0.2990  0.7906 -0.4345
12620TIP3    H259352   6.613   5.257  12.170  1.8794 -0.6354  0.7115
12621TIP3   OH259353   1.814   4.103   0.971  0.0447  0.7546 -0.6408
12621TIP3    H159354   1.735   4.151   0.993 -1.1374 -1.2728 -0.2818
12621TIP3    H259355   1.794   4.062   0.886  1.2122  1.3225 -1.1955
12622TIP3   OH259356   3.575   5.220  13.949 -0.1598  0.1425 -0.0770
12622TIP3    H159357   3.663   5.253  13.934  1.7117 -5.0305 -1.1982
12622TIP3    H259358   3.556   5.242  14.040  2.1706  1.3720  0.1353
12623TIP3   OH259359   1.902   1.631  16.978  0.4909  0.4172  0.0794
12623TIP3    H159360   1.944   1.667  16.899  1.6304 -0.2360  0.3772
12623TIP3    H259361   1.850   1.558  16.946 -2.0460  2.4441 -0.5655
12624TIP3   OH259362   2.098   6.425  11.014 -0.0494 -0.2897 -0.2970
12624TIP3    H159363   2.129   6.405  11.102  2.0685 -1.5783 -1.3144
12624TIP3    H259364   2.115   6.519  11.002  2.3581 -0.7174 -0.3845
12625TIP3   OH259365   5.492   0.108  15.358 -0.4127  0.1040 -0.3022
12625TIP3    H159366   5.486   0.058  15.277 -1.7526  0.9462 -0.7434
12625TIP3    H259367   5.547   0.055  15.416  2.2975  0.4754 -2.4703
12626TIP3   OH259368   1.855   0.794   0.827 -0.2030  0.1002 -0.1812
12626TIP3    H159369   1.792   0.848   0.875 -0.4868  0.5850 -1.0924
12626TIP3    H259370   1.812   0.709   0.816 -0.1995  0.0388  0.2882
12627TIP3   OH259371   1.120   2.082  12.366  0.6059  0.4799  0.5033
12627TIP3    H159372   1.100   2.029  12.289  0.7752  0.9367  0.1429
12627TIP3    H259373   1.071   2.163  12.354 -0.6889 -0.0999  1.6849
12628TIP3   OH259374   0.539   4.096   0.115  0.6596 -0.0308 -0.1457
12628TIP3    H159375   0.489   4.178   0.111  0.5049 -0.1399 -0.5262
12628TIP3    H259376   0.607   4.106   0.048 -0.3097 -0.8330 -1.2633
12629TIP3   OH259377   1.430   6.417   5.141 -0.0490  0.4440  0.2282
12629TIP3    H159378   1.518   6.448   5.163  0.0305  0.7256 -0.4723
12629TIP3    H259379   1.427   6.328   5.176  0.1166  0.8343  1.2566
12630TIP3   OH259380   1.890   0.088   5.961  0.4462  0.2967 -0.1579
12630TIP3    H159381   1.918  -0.003   5.947  0.3958 -0.0894  2.1352
12630TIP3    H259382   1.965   0.141   5.931  1.2721 -0.5582  0.3668
12631TIP3   OH259383   1.026   3.815   4.536 -0.4931 -0.1721 -0.7233
12631TIP3    H159384   0.966   3.814   4.461 -2.4301 -2.7553  0.7479
12631TIP3    H259385   1.011   3.899   4.578  0.2727  1.1043 -2.9487
12632TIP3   OH259386   1.090   3.115   2.305 -0.1535 -0.3826 -0.5812
12632TIP3    H159387   1.159   3.170   2.269 -0.9532  0.7715 -0.3853
12632TIP3    H259388   1.067   3.055   2.234  1.4360 -1.1775 -0.4576
12633TIP3   OH259389   0.354   0.501   0.872  0.4218  0.3470  0.1311
12633TIP3    H159390   0.330   0.538   0.787  0.4616 -0.2738 -0.1502
12633TIP3    H259391   0.447   0.480   0.864  0.9632  2.2739  1.0489
12634TIP3   OH259392   1.304   5.641  12.676  0.0932  0.0542 -0.3813
12634TIP3    H159393   1.208   5.651  12.673 -0.1416 -1.8592  0.1019
12634TIP3    H259394   1.321   5.611  12.765  1.2082  0.7969 -0.3336
12635TIP3   OH259395   5.977   0.428  14.448 -0.1670 -0.9362  0.2403
12635TIP3    H159396   6.066   0.433  14.484  0.3074  0.4719 -1.0954
12635TIP3    H259397   5.986   0.374  14.370  0.0316  1.3674 -1.3748
12636TIP3   OH259398   5.157   1.986  15.102 -0.1607  0.2074  0.2312
12636TIP3    H159399   5.084   1.958  15.157  0.9569  0.8588  2.1048
12636TIP3    H259400   5.197   1.905  15.071 -0.8207 -0.1614  0.3262
12637TIP3   OH259401   4.105   6.340  14.196  0.4857  0.1885  0.4868
12637TIP3    H159402   4.156   6.387  14.130  1.5437 -1.1228  0.3427
12637TIP3    H259403   4.065   6.267  14.148  1.1176 -0.6715  1.2531
12638TIP3   OH259404   5.660   2.498   2.307 -0.2742  0.2980 -0.1106
12638TIP3    H159405   5.602   2.566   2.273 -1.7996  0.0448  1.9483
12638TIP3    H259406   5.642   2.422   2.252 -1.4983  0.3740  0.1711
12639TIP3   OH259407   1.274   5.052  16.409 -0.9679  0.0514  0.1274
12639TIP3    H159408   1.269   5.143  16.381 -0.6894 -0.3043 -1.1161
12639TIP3    H259409   1.363   5.025  16.386 -0.7608 -0.2678  1.3103
12640TIP3   OH259410   6.306   6.077  15.477 -0.0094  0.3984  0.1180
12640TIP3    H159411   6.278   6.131  15.403 -1.1883  0.7938  0.8333
12640TIP3    H259412   6.243   6.096  15.546  0.5297 -0.6681  0.9300
12641TIP3   OH259413   6.423   4.493   5.608  0.2046  0.0487 -0.2527
12641TIP3    H159414   6.436   4.581   5.574 -0.3177 -0.1195 -0.8941
12641TIP3    H259415   6.491   4.440   5.566  0.2208  0.0521 -0.2305
12642TIP3   OH259416   0.636   6.615   1.364 -0.1918  0.2842 -0.5483
12642TIP3    H159417   0.544   6.626   1.388 -0.3166  0.0365 -0.9001
12642TIP3    H259418   0.641   6.526   1.327  0.2616  0.1614 -0.1903
12643TIP3   OH259419   5.039   3.663   3.756 -0.4311  0.0086  0.6165
12643TIP3    H159420   5.073   3.575   3.772 -1.2219 -0.6431 -1.1707
12643TIP3    H259421   4.957   3.649   3.709  0.1476  1.7421 -0.9783
12644TIP3   OH259422   6.212   2.315   1.472  0.8031  0.3604  0.1146
12644TIP3    H159423   6.188   2.396   1.428 -0.2530  1.5021  2.7088
12644TIP3    H259424   6.148   2.251   1.442 -0.0252  1.1717  0.1389
12645TIP3   OH259425   5.287   5.853   3.103 -0.2479 -0.0401  0.3191
12645TIP3    H159426   5.202   5.897   3.099  0.4828  1.3481 -0.7179
12645TIP3    H259427   5.317   5.866   3.193 -0.5025  0.7141  0.3019
12646TIP3   OH259428   1.506   0.109  13.712 -0.0534 -0.5615 -0.1006
12646TIP3    H159429   1.557   0.132  13.634  1.6004 -1.5178  0.6547
12646TIP3    H259430   1.471   0.022  13.693 -0.8377 -0.1943 -0.3421
12647TIP3   OH259431   1.275   5.432  12.298  0.1552 -0.6152 -0.1292
12647TIP3    H159432   1.258   5.418  12.205  0.8892  1.4856 -0.5913
12647TIP3    H259433   1.335   5.362  12.322 -0.2360 -1.3228 -1.1567
12648TIP3   OH259434   4.840   2.351  16.068 -0.2334 -0.3676 -0.0366
12648TIP3    H159435   4.762   2.297  16.062 -1.3284  1.2846 -1.2183
12648TIP3    H259436   4.828   2.403  16.148  1.1260 -2.2636  1.4653
12649TIP3   OH259437   4.290   4.956  13.535  0.2960  0.6597  0.3234
12649TIP3    H159438   4.328   4.869  13.546 -2.8943 -0.7065  0.8167
12649TIP3    H259439   4.296   4.996  13.621 -0.3375  0.0666  0.6406
12650TIP3   OH259440   5.748   3.421   2.868 -0.0381  0.5736  0.1999
12650TIP3    H159441   5.782   3.348   2.816 -1.2403 -0.1785  0.4511
12650TIP3    H259442   5.825   3.473   2.890  1.0424 -1.4211  1.2566
12651TIP3   OH259443   5.163   5.742   2.102  0.0496  0.4061 -0.2891
12651TIP3    H159444   5.145   5.715   2.012 -0.7474  1.7918 -0.5659
12651TIP3    H259445   5.089   5.799   2.125 -1.2201 -2.1350  2.2121
12652TIP3   OH259446   5.384   3.625   0.327 -0.3467 -0.1958  0.2194
12652TIP3    H159447   5.352   3.643   0.415  0.2528 -0.2273  0.4417
12652TIP3    H259448   5.335   3.686   0.271  0.2190  0.7219  0.7274
12653TIP3   OH259449   1.480   4.870  14.895  0.0167  0.0417  0.0569
12653TIP3    H159450   1.531   4.908  14.824 -0.8127  1.3431  0.1419
12653TIP3    H259451   1.544   4.857  14.966  0.8955 -1.5361 -1.0148
12654TIP3   OH259452   6.372   6.384  10.997 -0.2813 -0.5712 -0.0091
12654TIP3    H159453   6.293   6.438  11.006 -0.1636 -0.3294 -0.4146
12654TIP3    H259454   6.359   6.337  10.915  0.2569 -0.1016 -0.3667
12655TIP3   OH259455   5.186   1.438   5.464  0.0171 -0.0504 -0.5569
12655TIP3    H159456   5.100   1.399   5.450 -0.6247  1.2502 -0.2349
12655TIP3    H259457   5.175   1.531   5.444  1.8230 -0.2057 -2.4014
12656TIP3   OH259458   1.688   6.628  12.851 -0.0705  0.0613 -0.0158
12656TIP3    H159459   1.672   6.668  12.766 -1.3773  0.3228  0.3454
12656TIP3    H259460   1.624   6.668  12.909  1.1676  0.2882  1.2290
12657TIP3   OH259461   4.262   6.373  14.411  0.0316  0.4324  0.1898
12657TIP3    H159462   4.206   6.374  14.333  0.4885  1.6065 -0.1326
12657TIP3    H259463   4.232   6.297  14.461 -0.9349  0.2561 -0.6402
12658TIP3   OH259464   2.637   0.556  14.336  0.2173 -0.5971  0.1357
12658TIP3    H159465   2.605   0.538  14.424  0.4864 -0.1052  0.3382
12658TIP3    H259466   2.670   0.471  14.305 -1.3181 -1.1266 -0.1107
12659TIP3   OH259467   3.171   5.253  12.995  0.4445  0.4076  0.1858
12659TIP3    H159468   3.192   5.224  13.084  0.9787  0.9436  0.2431
12659TIP3    H259469   3.112   5.328  13.008  0.5612  0.5157  0.0912
12660TIP3   OH259470   4.710   0.338  12.499  0.2582  0.0446  0.0582
12660TIP3    H159471   4.771   0.361  12.570 -0.7744  0.1247  0.9310
12660TIP3    H259472   4.730   0.401  12.429  1.1247  0.1210  0.3711
12661TIP3   OH259473   6.396   6.702  16.460  0.3126  0.7005  1.1208
12661TIP3    H159474   6.409   6.639  16.389 -1.1699  0.7366  0.7913
12661TIP3    H259475   6.458   6.773  16.442  1.3096 -0.2151  0.9630
12662TIP3   OH259476   1.345   1.439  13.159  0.2933  0.0716 -0.3240
12662TIP3    H159477   1.268   1.400  13.118  0.8096  0.3700 -1.5678
12662TIP3    H259478   1.395   1.365  13.192  0.4710 -0.2302 -1.2719
12663TIP3   OH259479   2.227   4.640  13.065  0.3326 -0.2333  0.0106
12663TIP3    H159480   2.275   4.705  13.013  1.0613 -0.8245 -0.0531
12663TIP3    H259481   2.282   4.562  13.062 -1.7174 -1.6726 -2.0162
12664TIP3   OH259482   1.912   2.579  15.780 -0.5495  0.1136  0.5238
12664TIP3    H159483   1.952   2.635  15.714 -1.4169  0.0192 -0.0907
12664TIP3    H259484   1.979   2.512  15.798  0.4059  1.2225  1.1194
12665TIP3   OH259485   3.648   0.989   5.669  0.0004 -0.1095  0.2444
12665TIP3    H159486   3.725   0.933   5.667  0.1023  0.0158  0.5259
12665TIP3    H259487   3.665   1.050   5.741  0.3427  0.9229 -0.6923
12666TIP3   OH259488   0.209   2.930   2.425 -0.5137 -0.1939 -0.0468
12666TIP3    H159489   0.197   3.025   2.423  0.2433 -0.0856  0.1080
12666TIP3    H259490   0.122   2.894   2.445 -1.0122  0.4101 -1.1356
12667TIP3   OH259491   1.559   0.840   0.479  0.1845 -0.0284  0.4540
12667TIP3    H159492   1.538   0.933   0.490  1.5533  0.4381 -0.7868
12667TIP3    H259493   1.501   0.811   0.409 -1.4078 -0.5373  1.9436
12668TIP3   OH259494   3.314   0.638   5.298  0.2532 -0.2566  0.7042
12668TIP3    H159495   3.355   0.571   5.243  2.2752  0.7040  1.0121
12668TIP3    H259496   3.338   0.721   5.257 -0.6665  0.3626  1.3956
12669TIP3   OH259497   1.541   6.346  12.062  0.0628  0.5368 -0.2122
12669TIP3    H159498   1.492   6.320  12.139  0.5763 -0.0215 -0.0695
12669TIP3    H259499   1.491   6.311  11.988  0.5686 -0.5687 -0.0391
12670TIP3   OH259500   6.784   1.370  11.785  0.0743 -0.2308  0.1949
12670TIP3    H159501   6.864   1.410  11.819 -0.5539  0.9586  0.2907
12670TIP3    H259502   6.778   1.286  11.831 -0.1159  0.8098  2.1333
12671TIP3   OH259503   4.346   1.737   2.263  0.2414  0.3087 -0.0921
12671TIP3    H159504   4.389   1.821   2.281 -1.3582  1.0559  0.2522
12671TIP3    H259505   4.276   1.731   2.327  1.6698 -2.3099  1.3210
12672TIP3   OH259506   0.809   0.995  14.007 -0.0908  0.2849 -0.3287
12672TIP3    H159507   0.896   0.958  13.987  0.0526 -0.2151  1.1536
12672TIP3    H259508   0.822   1.090  14.000  0.6499  0.2281  0.1389
12673TIP3   OH259509   4.286   6.524  14.097  0.0799 -0.5534 -0.4210
12673TIP3    H159510   4.378   6.550  14.092 -0.2800  0.6033 -1.2689
12673TIP3    H259511   4.257   6.560  14.181  0.4943 -1.2311  0.0144
12674TIP3   OH259512   3.401   2.028   0.553  0.6151 -0.3951 -0.2401
12674TIP3    H159513   3.485   2.015   0.597 -0.7580 -0.4124  2.4602
12674TIP3    H259514   3.390   1.949   0.498  0.3992 -2.4865  2.7085
12675TIP3   OH259515   5.511   1.264  12.779  0.0952 -0.4241 -0.3977
12675TIP3    H159516   5.465   1.301  12.854  0.3901  2.3084 -1.5194
12675TIP3    H259517   5.590   1.224  12.817 -1.2175 -1.6884  1.0584
12676TIP3   OH259518   1.731   1.189   1.674 -0.3102 -0.4207  0.1081
12676TIP3    H159519   1.824   1.165   1.676 -0.1714  0.1547  0.9093
12676TIP3    H259520   1.701   1.163   1.587  0.4518 -1.1755  0.0620
12677TIP3   OH259521   4.167   6.640   0.212 -0.2980  0.4009  0.7995
12677TIP3    H159522   4.115   6.559   0.206 -0.9340  0.5657  3.4099
12677TIP3    H259523   4.102   6.709   0.224  0.2934  1.2370 -0.6807
12678TIP3   OH259524   4.812   2.927  16.571 -0.3022  0.1793 -0.0529
12678TIP3    H159525   4.882   2.971  16.522 -0.3596  1.0938  0.6703
12678TIP3    H259526   4.857   2.886  16.645 -0.6824  1.9914  1.2370
12679TIP3   OH259527   2.896   4.002   3.491  0.1530 -0.3261 -0.4528
12679TIP3    H159528   2.982   4.005   3.449 -0.0652 -1.7741 -1.0207
12679TIP3    H259529   2.896   4.078   3.550  2.5265 -1.3222  0.9104
12680TIP3   OH259530   1.187   4.416   4.290 -0.1587 -0.2973  0.0591
12680TIP3    H159531   1.270   4.379   4.321  0.9094 -0.3614 -2.8038
12680TIP3    H259532   1.130   4.341   4.279 -0.2512 -0.3657  0.9811
12681TIP3   OH259533   6.102   1.075   4.520  0.2759 -0.1800 -0.1744
12681TIP3    H159534   6.073   1.134   4.451 -0.5869 -1.2006 -0.7020
12681TIP3    H259535   6.157   1.129   4.576  0.3201  0.8680 -1.2048
12682TIP3   OH259536   5.724   5.667  15.571 -0.1457 -0.0217  0.0954
12682TIP3    H159537   5.694   5.582  15.538  0.2126  0.3355 -1.1651
12682TIP3    H259538   5.802   5.687  15.519 -1.1856  1.8675 -0.8050
12683TIP3   OH259539   6.359   3.861   2.405 -0.4736 -1.0175 -0.1967
12683TIP3    H159540   6.330   3.842   2.316 -1.5837  0.5412 -0.1781
12683TIP3    H259541   6.372   3.955   2.407 -2.0365 -0.8019  1.7188
12684TIP3   OH259542   5.669   1.791   4.514 -0.1207  0.2530 -0.0003
12684TIP3    H159543   5.754   1.767   4.479  0.7150  1.2012  1.3401
12684TIP3    H259544   5.684   1.806   4.607 -1.6334  0.9652  0.1502
12685TIP3   OH259545   6.045   0.454   5.347  0.0675 -0.1841  0.0161
12685TIP3    H159546   5.995   0.393   5.401  2.1881 -1.7311  0.2858
12685TIP3    H259547   6.037   0.420   5.258 -2.3868  1.6650 -0.5296
12686TIP3   OH259548   3.815   1.787   1.772 -0.2510 -0.3574  0.1100
12686TIP3    H159549   3.851   1.702   1.799  0.5306 -0.0782 -0.0493
12686TIP3    H259550   3.738   1.799   1.829 -0.9648 -1.6364 -0.5586
12687TIP3   OH259551   2.670   3.798  11.312 -0.1859 -0.7301  0.5641
12687TIP3    H159552   2.737   3.776  11.378 -0.6350 -3.5581  0.1603
12687TIP3    H259553   2.616   3.865  11.354  2.0447  0.5597  1.4484
12688TIP3   OH259554   2.966   0.728   5.494 -0.1933  0.2045 -0.5697
12688TIP3    H159555   2.912   0.666   5.544 -0.0777  1.5746  1.3197
12688TIP3    H259556   2.944   0.710   5.402  0.2143 -2.9479 -0.1302
12689TIP3   OH259557   6.358   4.300  11.180 -0.3055 -0.0003  0.0244
12689TIP3    H159558   6.291   4.236  11.154  0.8483 -0.8494 -0.9248
12689TIP3    H259559   6.437   4.272  11.134  0.5256  1.4244  0.5452
12690TIP3   OH259560   6.507   5.013  15.420 -0.9339  0.6741 -0.5443
12690TIP3    H159561   6.584   4.956  15.425 -0.9344  0.7755  0.5904
12690TIP3    H259562   6.532   5.081  15.357  1.0507  2.4243  2.0212
12691TIP3   OH259563   0.323   4.821  14.199  0.4321 -0.1010  0.1135
12691TIP3    H159564   0.360   4.869  14.125  1.1932 -0.2269  0.4125
12691TIP3    H259565   0.241   4.786  14.165 -0.1997  1.4928 -0.0917
12692TIP3   OH259566   5.062   0.902   0.109  0.3236 -0.4729  0.1217
12692TIP3    H159567   5.113   0.972   0.069 -2.2276  1.0148 -0.6232
12692TIP3    H259568   5.032   0.938   0.192  0.5811 -1.3832  0.6185
12693TIP3   OH259569   3.871   3.037   2.118 -0.2943  0.6657 -0.1589
12693TIP3    H159570   3.781   3.069   2.111 -0.7142 -0.2548  1.0091
12693TIP3    H259571   3.868   2.970   2.186  0.8623 -0.8278 -1.5292
12694TIP3   OH259572   4.931   4.552   2.886 -0.0247 -0.0598 -0.4756
12694TIP3    H159573   4.923   4.527   2.978  2.9037  2.5068  0.5637
12694TIP3    H259574   4.844   4.585   2.863 -0.3149  0.9982  1.9374
12695TIP3   OH259575   6.172   5.486  14.453  0.1862 -0.1338 -0.5986
12695TIP3    H159576   6.126   5.484  14.537  2.0886  1.0496  0.5056
12695TIP3    H259577   6.241   5.550  14.465  1.2704 -0.8628 -2.6816
12696TIP3   OH259578   6.338   4.544  15.541  0.2270 -0.4634  0.1705
12696TIP3    H159579   6.354   4.480  15.611  0.4962  0.1473  0.6729
12696TIP3    H259580   6.250   4.578  15.561  0.1775 -0.5112  0.0320
12697TIP3   OH259581   5.111   4.922   0.274 -0.0487  0.4199 -0.3816
12697TIP3    H159582   5.054   4.926   0.351  1.8305  0.0955  1.0572
12697TIP3    H259583   5.131   5.014   0.255 -1.8631  0.5992 -1.5384
12698TIP3   OH259584   0.873   1.322  14.510  0.1591  0.6085  0.0942
12698TIP3    H159585   0.879   1.302  14.416 -0.5044  0.5664  0.0586
12698TIP3    H259586   0.795   1.275  14.539  0.6405  0.2265  0.7724
12699TIP3   OH259587   6.424   3.552   4.252  0.1564 -0.2181 -0.1098
12699TIP3    H159588   6.467   3.628   4.291  0.5340 -0.2593 -0.4313
12699TIP3    H259589   6.336   3.552   4.288  0.0007  0.6460 -0.4639
12700TIP3   OH259590   3.741   1.124  12.570 -0.2766 -0.6885 -0.3431
12700TIP3    H159591   3.753   1.183  12.495 -1.0626  0.7736  0.6557
12700TIP3    H259592   3.793   1.047  12.548 -0.8877 -0.4859 -2.6170
12701TIP3   OH259593   3.473   0.227  12.044 -0.0427 -0.1376  0.6095
12701TIP3    H159594   3.538   0.278  11.997 -0.0795 -0.2370  0.4496
12701TIP3    H259595   3.417   0.292  12.086 -0.5014 -0.0335 -0.1560
12702TIP3   OH259596   4.003   3.196  15.884  0.5074 -0.3017  0.2712
12702TIP3    H159597   4.063   3.172  15.955  0.5792  0.4657  0.4775
12702TIP3    H259598   4.059   3.230  15.815  0.3990 -0.6125  0.0315
12703TIP3   OH259599   1.716   4.463  15.160 -0.0367 -0.0344 -0.5248
12703TIP3    H159600   1.715   4.531  15.092 -0.5908 -0.3378 -0.8154
12703TIP3    H259601   1.770   4.501  15.230 -0.2138  0.6454 -0.7513
12704TIP3   OH259602   0.827   0.265  13.145 -0.4624  0.1274  0.9879
12704TIP3    H159603   0.841   0.330  13.077 -0.8370  0.9091  1.6553
12704TIP3    H259604   0.746   0.291  13.187  0.0277 -0.0607  2.0689
12705TIP3   OH259605   6.663   3.497   5.178  0.4293  0.6354  0.8581
12705TIP3    H159606   6.599   3.511   5.248  2.4356  0.4490  2.8119
12705TIP3    H259607   6.698   3.409   5.195  0.2965  0.2056 -0.9572
12706TIP3   OH259608   1.253   0.676  14.720 -0.4332 -0.0303  0.0608
12706TIP3    H159609   1.286   0.587  14.733 -0.4656 -0.1106 -0.3912
12706TIP3    H259610   1.237   0.681  14.626  0.7553  0.8728 -0.0994
12707TIP3   OH259611   4.230   0.900  15.697  0.2416 -0.1206  0.1102
12707TIP3    H159612   4.209   0.819  15.652  0.6284 -0.1167 -0.0791
12707TIP3    H259613   4.220   0.968  15.631  0.9780 -0.1328 -0.0268
12708TIP3   OH259614   3.063   3.292  13.059 -0.5803  0.6521  0.0344
12708TIP3    H159615   3.152   3.308  13.028 -0.5048  1.3424  0.5935
12708TIP3    H259616   3.028   3.380  13.076 -0.6152  0.2961  1.9313
12709TIP3   OH259617   1.375   1.170  16.226 -0.1117  0.0518  0.0128
12709TIP3    H159618   1.423   1.110  16.169  0.5206 -0.1758  0.7851
12709TIP3    H259619   1.305   1.204  16.170 -0.1019 -0.9259 -0.6131
12710TIP3   OH259620   0.209   4.434   5.135 -0.3209  0.2943 -0.6827
12710TIP3    H159621   0.299   4.463   5.147 -0.5654  1.0020 -0.5578
12710TIP3    H259622   0.181   4.407   5.223 -1.0513  2.4481 -0.2265
12711TIP3   OH259623   4.749   6.037  14.171  0.4757  0.4376 -0.4333
12711TIP3    H159624   4.663   6.079  14.179  0.4441  0.0958  1.2852
12711TIP3    H259625   4.812   6.109  14.180  0.3964  0.3520  0.9118
12712TIP3   OH259626   2.042   3.169   3.838  0.5050 -0.0924 -0.2922
12712TIP3    H159627   1.964   3.205   3.879  0.4089 -0.1934 -0.3864
12712TIP3    H259628   2.113   3.229   3.863  0.4718 -0.2377  0.1408
12713TIP3   OH259629   5.975   3.572   2.909 -0.3045 -0.2329  0.2458
12713TIP3    H159630   6.066   3.588   2.931 -0.5231  0.9567  0.3398
12713TIP3    H259631   5.950   3.647   2.855 -2.3625  1.5443  3.5170
12714TIP3   OH259632   0.539   3.208   0.788  0.5018  0.2147 -0.0772
12714TIP3    H159633   0.459   3.230   0.742  0.7944  0.3168 -0.5396
12714TIP3    H259634   0.607   3.208   0.721  0.9295  0.3630  0.3478
12715TIP3   OH259635   4.750   4.843   0.617 -0.3517  0.2552  0.1769
12715TIP3    H159636   4.680   4.879   0.671 -1.5044 -1.0418 -0.4245
12715TIP3    H259637   4.755   4.750   0.642  1.1845  0.3333  0.2393
12716TIP3   OH259638   3.090   2.290   5.604  0.1241  0.4452  0.0541
12716TIP3    H159639   3.155   2.339   5.555 -0.4043  2.7132  1.5307
12716TIP3    H259640   3.139   2.217   5.643  1.6207  1.6292  0.4388
12717TIP3   OH259641   0.989   6.034  15.102  0.0967  0.0177 -0.0227
12717TIP3    H159642   0.904   5.991  15.091 -0.0127  0.5229 -1.1140
12717TIP3    H259643   0.968   6.124  15.127  0.2989  0.3217 -0.9236
12718TIP3   OH259644   6.430   5.170   1.155  0.1386 -0.2603 -0.3022
12718TIP3    H159645   6.355   5.110   1.143 -0.0963 -0.0875  0.2752
12718TIP3    H259646   6.484   5.127   1.221 -1.1428  1.2102  1.7385
12719TIP3   OH259647   4.498   4.901  16.741  0.0906  0.0635  0.2519
12719TIP3    H159648   4.582   4.916  16.785 -0.1165 -1.6378  1.2274
12719TIP3    H259649   4.522   4.864  16.656  0.3780  1.1436 -0.1534
12720TIP3   OH259650   2.253   0.814  15.633 -0.3267 -0.6619  0.0365
12720TIP3    H159651   2.348   0.817  15.632 -0.3055 -0.4865  1.3709
12720TIP3    H259652   2.229   0.845  15.721 -1.6966  1.7011 -1.1113
12721TIP3   OH259653   6.247   3.772   4.886  0.1435 -0.3378  0.2149
12721TIP3    H159654   6.280   3.684   4.870 -1.1235 -0.6895 -0.5250
12721TIP3    H259655   6.154   3.760   4.905 -0.0060  0.8259  0.2612
12722TIP3   OH259656   2.233   2.789  16.597  0.0021 -0.6747 -0.0880
12722TIP3    H159657   2.162   2.725  16.597 -0.2694 -0.4231 -2.1419
12722TIP3    H259658   2.211   2.849  16.526  2.1053 -0.4292 -0.5770
12723TIP3   OH259659   0.317   4.414  16.678  0.5469  0.4925 -0.2647
12723TIP3    H159660   0.275   4.387  16.596 -1.0569  0.2430  0.6141
12723TIP3    H259661   0.398   4.363  16.681  0.1753 -0.1831 -1.2385
12724TIP3   OH259662   2.186   0.581   1.372  0.3128  0.6265  0.1912
12724TIP3    H159663   2.225   0.519   1.310 -0.8817  0.1463 -0.0792
12724TIP3    H259664   2.260   0.635   1.401  1.3759 -0.9374  0.4527
12725TIP3   OH259665   0.515   4.182   5.253  0.2905 -0.1750 -0.1348
12725TIP3    H159666   0.424   4.158   5.272  0.9354 -1.3730  1.6413
12725TIP3    H259667   0.509   4.261   5.200 -1.7941 -0.4897 -0.4014
12726TIP3   OH259668   1.837   4.343   0.174 -0.2121 -0.1902  0.5383
12726TIP3    H159669   1.895   4.405   0.218 -0.7908  0.5863  0.2359
12726TIP3    H259670   1.872   4.257   0.195  1.5614  0.2896 -0.3790
12727TIP3   OH259671   5.263   1.289   4.757 -0.0005  0.9028  0.4878
12727TIP3    H159672   5.189   1.341   4.790  0.1371  1.9625 -0.8220
12727TIP3    H259673   5.332   1.354   4.743  0.8445  0.0553  0.7688
12728TIP3   OH259674   5.719   0.199   0.210  0.2889 -0.4370  0.4370
12728TIP3    H159675   5.683   0.249   0.136 -0.2794 -0.1576  0.9008
12728TIP3    H259676   5.813   0.215   0.206  0.2461 -0.3224 -0.1593
12729TIP3   OH259677   0.683   3.580   0.019 -0.5137 -0.1586 -0.1425
12729TIP3    H159678   0.728   3.662   0.042 -2.2468  0.6825  0.3981
12729TIP3    H259679   0.658   3.543   0.104  0.5327 -1.4262 -0.3729
12730TIP3   OH259680   1.724   2.424   0.839 -0.1410  0.6584 -0.3853
12730TIP3    H159681   1.748   2.493   0.900 -1.7497 -0.3966  1.5069
12730TIP3    H259682   1.774   2.347   0.868  0.8695  0.7397 -1.8504
12731TIP3   OH259683   1.338   0.403   1.556  0.2756 -0.0689 -0.0618
12731TIP3    H159684   1.419   0.423   1.510  0.4326  0.9377  0.6122
12731TIP3    H259685   1.292   0.487   1.560  0.2279 -0.1518  1.5136
12732TIP3   OH259686   6.098   5.426  12.425  0.2523  0.1171 -0.3838
12732TIP3    H159687   6.149   5.507  12.428 -1.1531  0.9776  0.3194
12732TIP3    H259688   6.039   5.437  12.351  0.7897 -0.7317 -0.9603
12733TIP3   OH259689   4.620   2.356  13.443 -0.0175 -0.1784 -1.0014
12733TIP3    H159690   4.564   2.326  13.371 -1.6833  0.4043  0.0249
12733TIP3    H259691   4.692   2.294  13.444 -1.1799 -1.5698 -1.6821
12734TIP3   OH259692   3.828   4.364   6.102  0.1331 -0.4278  0.3391
12734TIP3    H159693   3.910   4.384   6.057  0.7651 -2.4602  0.5068
12734TIP3    H259694   3.821   4.269   6.096 -0.4746 -0.6154  3.3090
12735TIP3   OH259695   3.890   2.171   4.187 -0.4865 -0.1360 -0.0207
12735TIP3    H159696   3.966   2.208   4.232 -0.5821 -0.4245  0.3847
12735TIP3    H259697   3.914   2.170   4.095  0.2839 -0.8792  0.1774
12736TIP3   OH259698   4.521   2.290  11.309  0.6715 -0.1573 -0.1425
12736TIP3    H159699   4.574   2.303  11.231 -0.1929 -1.6674 -1.0198
12736TIP3    H259700   4.475   2.207  11.293  0.0892 -0.2272  1.7392
12737TIP3   OH259701   0.116   0.264   0.356 -0.0624 -0.0675 -0.0938
12737TIP3    H159702   0.195   0.317   0.344  1.1169 -1.9157 -0.6795
12737TIP3    H259703   0.091   0.280   0.447 -0.5011  2.4841 -0.6121
12738TIP3   OH259704   0.412   0.640   3.200  0.6122 -0.3379  0.8722
12738TIP3    H159705   0.385   0.625   3.290  0.1864 -0.2157  0.7670
12738TIP3    H259706   0.495   0.687   3.207  1.2294 -1.4677  1.2008
12739TIP3   OH259707   3.752   0.052  11.456  0.0365 -0.3092  0.2812
12739TIP3    H159708   3.744  -0.037  11.423  0.4225 -0.4269  0.5080
12739TIP3    H259709   3.747   0.043  11.552 -1.2750  0.0486  0.2642
12740TIP3   OH259710   3.787   0.696  12.074  0.3062  0.2075  0.4989
12740TIP3    H159711   3.706   0.647  12.057  0.4282  0.3549 -0.5368
12740TIP3    H259712   3.799   0.690  12.169 -0.9370  0.2067  0.6691
12741TIP3   OH259713   0.975   4.868  16.087 -0.1691  0.2806  0.4089
12741TIP3    H159714   0.900   4.914  16.124  1.7950  2.5217  1.8151
12741TIP3    H259715   1.033   4.938  16.056  2.2180 -1.2703  1.1855
12742TIP3   OH259716   0.459   1.601   4.309 -0.3010  0.1104 -0.6865
12742TIP3    H159717   0.484   1.692   4.328  1.1428 -0.3353 -0.3923
12742TIP3    H259718   0.420   1.605   4.221  0.0227  0.9748 -0.7998
12743TIP3   OH259719   5.945   5.646   5.895  0.3786  0.1889  0.2411
12743TIP3    H159720   6.005   5.711   5.933 -2.0625  1.3591  2.2582
12743TIP3    H259721   5.869   5.697   5.869 -0.3095 -1.4742 -1.0366
12744TIP3   OH259722   2.962   4.034   0.728 -0.5697  0.3427 -0.0900
12744TIP3    H159723   2.871   4.043   0.701 -0.3437 -0.1110 -0.9977
12744TIP3    H259724   3.007   3.999   0.652  0.0641 -0.9729  0.8712
12745TIP3   OH259725   1.379   2.663  14.987  0.0109  0.3967  0.7846
12745TIP3    H159726   1.416   2.594  14.932 -0.2253  0.7077  0.2307
12745TIP3    H259727   1.417   2.648  15.074  0.0164 -0.3839  0.6472
12746TIP3   OH259728   5.787   6.229  14.027  0.0005 -0.4973 -0.4305
12746TIP3    H159729   5.741   6.269  13.953  0.6628 -0.2424 -0.7026
12746TIP3    H259730   5.810   6.141  13.996 -2.5477 -1.5863  0.5983
12747TIP3   OH259731   5.785   1.347  14.964 -0.2198 -0.0590  0.4386
12747TIP3    H159732   5.793   1.253  14.977 -2.3988 -0.4107 -0.6205
12747TIP3    H259733   5.762   1.358  14.872  3.6157  1.7465 -0.3841
12748TIP3   OH259734   2.897   1.752   4.851 -0.3567  0.4610  0.0359
12748TIP3    H159735   2.971   1.808   4.828 -0.4358  0.6665  0.2793
12748TIP3    H259736   2.935   1.678   4.897 -0.0748 -0.5023 -1.7016
12749TIP3   OH259737   6.790   0.858   2.015  0.1114 -0.1086 -0.3304
12749TIP3    H159738   6.809   0.881   1.924 -1.9773 -0.5075 -0.9006
12749TIP3    H259739   6.868   0.883   2.063  0.3221  2.3298 -1.8845
12750TIP3   OH259740   4.101   6.110  13.186  0.2013  0.0701 -0.4765
12750TIP3    H159741   4.182   6.160  13.175  0.1483  0.2529 -0.0649
12750TIP3    H259742   4.035   6.176  13.209  0.7304 -0.4753  2.9096
12751TIP3   OH259743   5.761   5.499  16.316 -0.1928 -0.2559  0.4862
12751TIP3    H159744   5.679   5.449  16.314 -0.4557 -0.0114  3.0519
12751TIP3    H259745   5.829   5.434  16.302 -0.6981 -0.8659  0.8292
12752TIP3   OH259746   0.244   5.461   3.159 -0.3124 -0.0486 -0.2314
12752TIP3    H159747   0.166   5.406   3.168  0.6103 -1.2304  0.6947
12752TIP3    H259748   0.266   5.486   3.248  0.2075  0.5204 -0.5203
12753TIP3   OH259749   4.906   5.996   1.227  0.5261 -0.0762 -0.4572
12753TIP3    H159750   4.856   6.062   1.180  2.4476  0.3674 -1.9462
12753TIP3    H259751   4.871   5.998   1.316  1.5694  4.0388 -0.0336
12754TIP3   OH259752   4.289   1.415   0.207 -0.0983  0.5287 -0.5126
12754TIP3    H159753   4.301   1.320   0.211  0.5709  0.6211 -0.3363
12754TIP3    H259754   4.199   1.426   0.175 -1.2002 -0.2028  2.1721
12755TIP3   OH259755   2.382   5.430  12.034  0.2466  0.2323 -0.5414
12755TIP3    H159756   2.325   5.406  12.107 -0.3461 -0.5510 -1.2597
12755TIP3    H259757   2.427   5.509  12.065 -2.2138  1.6610 -0.4634
12756TIP3   OH259758   6.378   0.113   4.689 -0.5407 -0.0722  0.2919
12756TIP3    H159759   6.372   0.029   4.645  1.6081 -0.2978  0.3871
12756TIP3    H259760   6.298   0.160   4.664 -1.9633 -2.2837  0.5972
12757TIP3   OH259761   3.104   1.181   0.516 -0.9253  0.2025 -0.1007
12757TIP3    H159762   3.100   1.092   0.552 -0.7574 -0.2734 -1.2367
12757TIP3    H259763   3.170   1.225   0.569 -0.6614 -0.4934  0.1594
12758TIP3   OH259764   5.230   4.559  13.486  0.2823 -0.6640 -0.3980
12758TIP3    H159765   5.202   4.473  13.456 -0.1578 -0.7023  0.1035
12758TIP3    H259766   5.158   4.589  13.543  1.1480 -0.6528  0.7118
12759TIP3   OH259767   1.274   6.603   6.446 -0.1998  0.1653  0.6580
12759TIP3    H159768   1.368   6.619   6.450  0.2226 -2.0999  0.2784
12759TIP3    H259769   1.235   6.673   6.500  1.6436  1.3571  0.4777
12760TIP3   OH259770   2.209   3.592  17.067  0.3726  0.2108 -0.2521
12760TIP3    H159771   2.167   3.661  17.119  0.1811  0.0653 -0.2107
12760TIP3    H259772   2.293   3.630  17.040  0.7835  0.0279  0.7533
12761TIP3   OH259773   3.999   0.913   4.425 -0.3049  0.2968  0.3662
12761TIP3    H159774   4.095   0.919   4.420 -0.2959 -0.4064 -0.5175
12761TIP3    H259775   3.974   0.980   4.488  0.7465  0.7243  0.3411
12762TIP3   OH259776   4.924   1.979   0.149 -0.6250 -0.5786  0.4517
12762TIP3    H159777   4.885   1.940   0.070 -0.8021  0.8179 -0.1693
12762TIP3    H259778   4.990   2.039   0.115  0.3243 -1.0647  1.4308
12763TIP3   OH259779   3.366   5.509   1.802 -0.3836  0.1161  0.1219
12763TIP3    H159780   3.396   5.593   1.768 -1.5038  0.0444 -1.0787
12763TIP3    H259781   3.395   5.509   1.894  1.5302  0.8592 -0.4581
12764TIP3   OH259782   2.032   5.442   4.296 -0.2286 -0.2138 -0.7202
12764TIP3    H159783   2.087   5.476   4.226  0.2228 -0.5148 -0.5137
12764TIP3    H259784   1.945   5.434   4.257 -0.4456  1.6053 -0.6457
12765TIP3   OH259785   1.041   5.673   3.687 -0.5720  0.9288 -0.0097
12765TIP3    H159786   1.036   5.725   3.607 -1.8218 -2.5772 -2.3405
12765TIP3    H259787   1.119   5.618   3.675  0.0429  1.3561  1.8421
12766TIP3   OH259788   4.962   3.457   2.432  0.0217  0.1464  0.1552
12766TIP3    H159789   4.975   3.392   2.363 -1.3830  1.1367 -1.0707
12766TIP3    H259790   4.869   3.453   2.453 -0.2511  2.3111 -0.5121
12767TIP3   OH259791   6.284   4.928   2.450 -0.3093  0.2066  0.1933
12767TIP3    H159792   6.242   4.947   2.365  0.6271 -1.1139 -0.5771
12767TIP3    H259793   6.283   4.833   2.457  1.3736  0.2116  0.7569
12768TIP3   OH259794   0.477   1.150  16.432  0.8602  0.4204  0.2053
12768TIP3    H159795   0.511   1.231  16.392  2.3973 -0.4223 -0.2601
12768TIP3    H259796   0.453   1.095  16.357  1.0530 -0.0540  0.4914
12769TIP3   OH259797   5.721   1.067  15.278  0.0036 -0.4445 -0.0658
12769TIP3    H159798   5.763   1.058  15.363 -1.4550 -1.2203  0.5999
12769TIP3    H259799   5.629   1.044  15.295 -0.9345  2.2706 -1.2099
12770TIP3   OH259800   3.449   4.908   5.612  0.3830  0.0531 -0.0480
12770TIP3    H159801   3.393   4.980   5.642  1.4759 -0.3779  3.1484
12770TIP3    H259802   3.485   4.871   5.692  2.3194 -2.0619 -1.8599
12771TIP3   OH259803   3.549   0.647   4.094  0.1556  0.0583  0.3405
12771TIP3    H159804   3.513   0.612   4.012 -1.1959 -1.1590  1.4404
12771TIP3    H259805   3.610   0.579   4.124  0.6724  0.5183  0.3483
12772TIP3   OH259806   0.894   0.892  14.253 -0.3241  0.1235  0.2362
12772TIP3    H159807   0.943   0.810  14.257  0.8035  0.7418 -0.4726
12772TIP3    H259808   0.846   0.888  14.170  0.7532  0.7327 -0.4254
12773TIP3   OH259809   3.920   4.489  15.014 -0.0008  0.1887  0.4963
12773TIP3    H159810   3.936   4.500  14.920 -0.3312  1.6469  0.6015
12773TIP3    H259811   3.853   4.421  15.019 -0.4029  0.5227 -0.3462
12774TIP3   OH259812   3.778   3.507   2.105 -0.4354  0.1214 -0.2541
12774TIP3    H159813   3.747   3.568   2.172  0.2563 -1.7212  1.7782
12774TIP3    H259814   3.873   3.506   2.116 -0.1463  1.1161 -2.4383
12775TIP3   OH259815   6.382   0.022  13.683  0.0068  0.4724  0.1564
12775TIP3    H159816   6.335   0.055  13.607 -0.3642 -1.9275 -0.7019
12775TIP3    H259817   6.313  -0.000  13.746  0.1774  0.2656  0.2723
12776TIP3   OH259818   4.766   2.403   0.415  0.0573 -0.0221 -0.0371
12776TIP3    H159819   4.797   2.337   0.478 -1.1604 -1.0450 -0.5103
12776TIP3    H259820   4.783   2.365   0.329  1.2783  1.1803 -0.3629
12777TIP3   OH259821   5.602   6.090  13.706 -0.1225  0.3411 -0.0992
12777TIP3    H159822   5.638   6.178  13.716  1.4087 -0.1700 -1.0820
12777TIP3    H259823   5.630   6.043  13.784  0.6041  0.1952 -0.4499
12778TIP3   OH259824   0.368   5.904   1.200  0.1293 -0.8107  0.1193
12778TIP3    H159825   0.288   5.950   1.175  0.3658  0.1376  1.0632
12778TIP3    H259826   0.351   5.873   1.289 -0.0079 -2.5253 -0.4836
12779TIP3   OH259827   5.978   0.240   0.249  0.8133  0.3941  0.2922
12779TIP3    H159828   6.013   0.294   0.178 -0.8089  0.4837 -0.4677
12779TIP3    H259829   6.035   0.163   0.251  1.9118  1.1964  0.0403
12780TIP3   OH259830   0.298   2.544   4.606  0.2802 -0.1371  0.3383
12780TIP3    H159831   0.256   2.588   4.681  0.7896  0.5662  0.2152
12780TIP3    H259832   0.389   2.533   4.633  0.5956  0.6439 -0.4043
12781TIP3   OH259833   3.857   6.292  15.373  0.1251 -0.1858 -0.1507
12781TIP3    H159834   3.883   6.315  15.284  1.1693  3.0647  0.9351
12781TIP3    H259835   3.783   6.349  15.392  0.2528 -0.4564  1.2343
12782TIP3   OH259836   2.805   6.707  13.208  0.8488  0.3240 -0.2924
12782TIP3    H159837   2.796   6.688  13.114  0.6468 -2.0234  0.1705
12782TIP3    H259838   2.892   6.675  13.230  0.3103 -0.4984  0.6415
12783TIP3   OH259839   2.063   5.025   1.335 -0.1985 -0.2412 -0.3173
12783TIP3    H159840   2.155   4.999   1.339 -0.3706 -0.8241  0.0157
12783TIP3    H259841   2.032   4.993   1.250 -0.1280 -0.1592 -0.3736
12784TIP3   OH259842   4.365   4.953   2.035  0.3160 -0.3386 -0.0218
12784TIP3    H159843   4.280   4.971   1.996  0.0245 -0.0712  0.7337
12784TIP3    H259844   4.400   5.040   2.056  1.2328 -0.3793 -1.2812
12785TIP3   OH259845   5.873   0.864  14.369  0.5645 -0.3367 -0.3127
12785TIP3    H159846   5.904   0.936  14.424  0.7741 -1.2798  0.8174
12785TIP3    H259847   5.936   0.860  14.297  1.3572 -0.3044  0.3763
12786TIP3   OH259848   0.633   4.875  17.224 -0.2391 -0.2730 -0.8514
12786TIP3    H159849   0.713   4.845  17.182 -0.0244  0.6343 -1.0969
12786TIP3    H259850   0.662   4.925  17.300 -0.5566  0.3580 -1.1376
12787TIP3   OH259851   2.620   3.795  14.936 -0.0386 -0.2900  0.9488
12787TIP3    H159852   2.695   3.777  14.879  1.0795  3.2089  1.2005
12787TIP3    H259853   2.659   3.811  15.022 -1.0494  1.3676  1.1170
12788TIP3   OH259854   1.976   2.482   2.121  0.3226  0.3683  0.4021
12788TIP3    H159855   1.907   2.471   2.056 -0.0300  1.8041  0.5007
12788TIP3    H259856   1.929   2.502   2.202  0.7151 -2.6200  1.3926
12789TIP3   OH259857   3.124   6.366   3.340 -0.5188  0.1350 -0.4785
12789TIP3    H159858   3.053   6.424   3.312 -0.4425  1.0694  1.1815
12789TIP3    H259859   3.150   6.400   3.426  0.1368 -1.8240  0.1216
12790TIP3   OH259860   0.585   6.567  11.500  0.2367 -0.0581  0.6396
12790TIP3    H159861   0.493   6.587  11.481  0.8497  1.9569 -0.3341
12790TIP3    H259862   0.622   6.544  11.415  1.6566  3.4840  0.2283
12791TIP3   OH259863   0.394   5.922  17.257 -0.2357  0.3566 -0.0038
12791TIP3    H159864   0.380   5.974  17.178  0.9120 -0.0502 -0.4982
12791TIP3    H259865   0.415   5.834  17.224 -1.3348 -0.2178  0.7974
12792TIP3   OH259866   0.408   3.341  11.632  0.1431 -0.0434  0.6362
12792TIP3    H159867   0.452   3.283  11.694  2.6317  0.8717 -0.1887
12792TIP3    H259868   0.467   3.416  11.624 -2.3151  1.9608  0.6044
12793TIP3   OH259869   0.143   0.953   3.282 -0.0499  0.2668 -0.6302
12793TIP3    H159870   0.213   1.009   3.249 -0.2144  0.9661  0.1808
12793TIP3    H259871   0.098   0.922   3.203  0.4498  0.7485 -1.1123
12794TIP3   OH259872   6.161   1.645  11.229 -0.7271  0.4698  0.1729
12794TIP3    H159873   6.234   1.695  11.194 -1.0169  1.8269  1.4782
12794TIP3    H259874   6.086   1.671  11.175 -0.3818 -0.4906 -0.7925
12795TIP3   OH259875   2.256   5.598  16.112  0.3222 -0.3046 -0.0805
12795TIP3    H159876   2.327   5.662  16.103 -0.6574  0.7990 -0.1032
12795TIP3    H259877   2.241   5.568  16.022 -0.7836  1.1758 -0.4096
12796TIP3   OH259878   2.318   1.748   3.904 -0.9464  0.3317  0.4551
12796TIP3    H159879   2.364   1.673   3.940 -2.2656 -1.1858 -0.9296
12796TIP3    H259880   2.366   1.824   3.937  3.3770 -1.1654 -1.9688
12797TIP3   OH259881   0.443   3.170   3.834 -0.3350 -0.1850  0.5509
12797TIP3    H159882   0.505   3.131   3.772 -0.9481  1.1760 -0.9694
12797TIP3    H259883   0.460   3.264   3.830 -2.3244  0.2022  0.2675
12798TIP3   OH259884   4.180   3.361   3.467 -0.3602 -0.3157 -0.1475
12798TIP3    H159885   4.132   3.283   3.439 -1.9979  1.2148 -1.7318
12798TIP3    H259886   4.255   3.366   3.408 -0.4485 -0.5017 -0.2767
12799TIP3   OH259887   1.406   0.534  11.883  0.1427 -0.3701  0.4649
12799TIP3    H159888   1.411   0.529  11.787  0.1097  0.6745  0.4016
12799TIP3    H259889   1.399   0.627  11.901  0.3573 -0.5561  1.5024
12800TIP3   OH259890   1.148   0.619   5.886  0.4082 -0.8993 -0.0894
12800TIP3    H159891   1.079   0.658   5.833  1.6189  0.2682 -0.8325
12800TIP3    H259892   1.154   0.676   5.963  2.2544  0.4943 -1.2273
12801TIP3   OH259893   2.343   1.751  11.911 -0.2654 -0.1660  0.2379
12801TIP3    H159894   2.389   1.790  11.836  0.4252  0.7787  1.1402
12801TIP3    H259895   2.271   1.811  11.929 -1.0280 -0.9049 -0.2663
12802TIP3   OH259896   5.845   0.383  13.100  0.1693  0.2249 -0.2834
12802TIP3    H159897   5.870   0.321  13.169 -0.5949  0.2160 -0.0034
12802TIP3    H259898   5.892   0.353  13.022  0.4432 -0.2189  0.0507
12803TIP3   OH259899   2.170   0.073   0.487  0.8631  0.0036  0.0434
12803TIP3    H159900   2.117   0.087   0.409 -0.2357  1.4893  1.0461
12803TIP3    H259901   2.260   0.076   0.455  0.4114  0.2488 -1.2297
12804TIP3   OH259902   6.815   6.736  14.530  0.0384 -0.1147  0.0266
12804TIP3    H159903   6.891   6.792  14.548  1.1191 -1.6323  0.2554
12804TIP3    H259904   6.746   6.772  14.586  1.3579 -0.3572  1.8704
12805TIP3   OH259905   1.697   6.636   6.500 -0.2170 -0.4788  0.2922
12805TIP3    H159906   1.686   6.545   6.475 -0.1862 -0.5117  0.3977
12805TIP3    H259907   1.616   6.679   6.471 -0.2609 -0.5529  0.3057
12806TIP3   OH259908   3.284   6.712  13.024  0.2355 -0.2164  0.1898
12806TIP3    H159909   3.318   6.663  12.949 -0.2592 -0.3288  0.0393
12806TIP3    H259910   3.325   6.798  13.017  0.6805 -0.4257  0.1481
12807TIP3   OH259911   1.489   3.124  13.423  0.2712  0.8544 -0.2570
12807TIP3    H159912   1.486   3.045  13.369  1.1973  0.7272 -0.1308
12807TIP3    H259913   1.407   3.123  13.472  0.4913 -0.2931  0.1095
12808TIP3   OH259914   4.501   5.263  13.555  0.3942 -0.6640 -0.0355
12808TIP3    H159915   4.414   5.281  13.520 -0.6708 -0.0586  2.7957
12808TIP3    H259916   4.490   5.267  13.650  3.1169 -2.4296  0.4139
12809TIP3   OH259917   6.349   2.444   2.451  0.5441  0.6166 -0.4635
12809TIP3    H159918   6.321   2.485   2.533  0.7853  0.8624 -0.5037
12809TIP3    H259919   6.338   2.350   2.467 -1.8318  0.7692 -1.0464
12810TIP3   OH259920   2.299   1.071  11.598 -0.0996 -0.1813 -0.2230
12810TIP3    H159921   2.290   1.042  11.689 -0.7708  2.2987  0.5386
12810TIP3    H259922   2.393   1.065  11.581 -0.0399 -1.2427  0.4274
12811TIP3   OH259923   5.963   6.175  13.605 -0.4749 -0.0569  0.4703
12811TIP3    H159924   5.972   6.087  13.569 -1.2391 -0.4781  1.2873
12811TIP3    H259925   5.868   6.186  13.616 -0.5613  1.7376 -1.7846
12812TIP3   OH259926   2.197   4.847  12.207  0.2696  0.3752  0.1137
12812TIP3    H159927   2.146   4.771  12.237  0.3114  0.4237  0.3032
12812TIP3    H259928   2.270   4.809  12.159 -1.3224  0.3291 -2.4048
12813TIP3   OH259929   0.639   3.398   1.937 -0.1001 -0.5467 -0.1418
12813TIP3    H159930   0.670   3.356   1.857  0.7769 -0.0683 -0.0547
12813TIP3    H259931   0.702   3.467   1.955  0.5092 -1.5491  1.7516
12814TIP3   OH259932   2.305   0.204   4.471  0.0932 -0.7839 -0.4844
12814TIP3    H159933   2.274   0.252   4.548 -1.4330 -1.6345 -0.5351
12814TIP3    H259934   2.359   0.267   4.423 -0.2659  0.2614  0.4523
12815TIP3   OH259935   4.086   2.182   3.572 -0.2232 -0.3787 -0.1612
12815TIP3    H159936   4.005   2.132   3.565  0.7488 -1.9051 -0.6660
12815TIP3    H259937   4.120   2.160   3.658  0.6839 -1.3515 -0.7539
12816TIP3   OH259938   6.731   0.188   0.795  0.2193  0.1602  0.5476
12816TIP3    H159939   6.680   0.186   0.715  1.2702  1.7999 -0.1989
12816TIP3    H259940   6.778   0.104   0.796 -0.2060 -0.0907 -0.2846
12817TIP3   OH259941   4.957   1.581  14.074  1.0685  0.6998 -0.2334
12817TIP3    H159942   5.034   1.548  14.121  0.0845  1.3632  1.9292
12817TIP3    H259943   4.977   1.674  14.060  2.1270  0.1228 -2.7753
12818TIP3   OH259944   1.012   5.142   4.430 -0.4976 -0.5823 -0.1393
12818TIP3    H159945   0.996   5.142   4.524 -1.0130 -0.8920 -0.2279
12818TIP3    H259946   0.925   5.136   4.390 -0.2136 -1.7514 -0.6199
12819TIP3   OH259947   5.275   5.613  17.270  0.1036  0.8147  0.1650
12819TIP3    H159948   5.190   5.614  17.225 -0.2636  0.4698  0.8530
12819TIP3    H259949   5.264   5.552  17.342  1.1450  0.2768 -0.1215
12820TIP3   OH259950   4.933   3.668   6.910  0.0760 -0.0175 -0.0560
12820TIP3    H159951   4.932   3.593   6.851 -0.0645 -0.5066  0.5576
12820TIP3    H259952   4.856   3.720   6.885  0.5529  0.2776 -0.9248
12821TIP3   OH259953   0.382   5.532   1.436 -0.2923 -0.3049  0.1659
12821TIP3    H159954   0.313   5.535   1.502 -0.7030  2.7761 -0.3471
12821TIP3    H259955   0.357   5.459   1.379 -0.9597 -1.7698  2.2610
12822TIP3   OH259956   2.829   0.936  17.112 -0.2202  0.2575  1.0811
12822TIP3    H159957   2.753   0.879  17.105 -0.3176  0.5893 -0.9123
12822TIP3    H259958   2.903   0.876  17.121 -0.7363 -0.0543  3.4373
12823TIP3   OH259959   3.771   2.685  11.046  0.0562 -0.1801 -0.3929
12823TIP3    H159960   3.832   2.612  11.039  0.0485 -0.1726 -0.5466
12823TIP3    H259961   3.732   2.692  10.958 -0.7186 -0.6723 -0.0954
12824TIP3   OH259962   1.094   1.787  10.951  0.0888  0.4422 -0.2009
12824TIP3    H159963   1.121   1.878  10.943  2.0144  0.0550  1.4727
12824TIP3    H259964   1.145   1.741  10.884  0.9663  0.2531  0.5781
12825TIP3   OH259965   0.212   5.034  16.519  0.1975 -0.5772  0.1279
12825TIP3    H159966   0.268   5.095  16.471  0.8209 -1.6215 -0.4839
12825TIP3    H259967   0.123   5.057  16.492  0.3778  0.5615  0.4894
12826TIP3   OH259968   6.109   3.985   3.450  0.1648 -0.4411 -0.0918
12826TIP3    H159969   6.097   3.970   3.544  0.2659 -1.6813 -0.2792
12826TIP3    H259970   6.181   3.927   3.425  2.4776  2.3525 -0.2638
12827TIP3   OH259971   3.100   6.045  11.414 -0.5560 -0.1811 -0.2645
12827TIP3    H159972   3.124   5.953  11.426  0.8567  0.2210  0.1143
12827TIP3    H259973   3.009   6.050  11.441 -0.1400 -1.1365  1.3754
12828TIP3   OH259974   2.799   1.067  12.438 -0.1500  0.5214 -0.2792
12828TIP3    H159975   2.776   1.036  12.525 -0.5142  0.1222 -0.5121
12828TIP3    H259976   2.824   0.989  12.389 -0.2557  0.6968 -0.6224
12829TIP3   OH259977   5.157   5.449   2.119  0.2909  0.1620 -0.0190
12829TIP3    H159978   5.085   5.500   2.157  0.7716  0.0569  1.0518
12829TIP3    H259979   5.128   5.430   2.030 -1.0627  0.0226  0.4372
12830TIP3   OH259980   6.562   4.799  12.005  0.2198 -0.1425 -0.0492
12830TIP3    H159981   6.650   4.771  11.979  0.2369 -0.9835  0.8817
12830TIP3    H259982   6.569   4.814  12.100 -0.4569  0.5046 -0.0948
12831TIP3   OH259983   6.230   4.332   1.071  0.3442 -0.6003 -0.7239
12831TIP3    H159984   6.321   4.319   1.043  0.4938 -1.5196  0.1676
12831TIP3    H259985   6.200   4.245   1.096 -0.4155 -0.1183  0.0681
12832TIP3   OH259986   4.583   6.028   1.918 -0.3677 -0.6313  0.5117
12832TIP3    H159987   4.623   5.998   1.999  0.3979 -0.0527  0.3497
12832TIP3    H259988   4.495   5.989   1.919 -1.1650  1.1171  2.6735
12833TIP3   OH259989   2.154   6.239  12.622 -0.1960 -0.0621 -0.6956
12833TIP3    H159990   2.078   6.205  12.671  0.1679 -0.2838 -0.2806
12833TIP3    H259991   2.119   6.313  12.572 -0.7489 -0.3364 -0.7189
12834TIP3   OH259992   1.693   6.625  14.447  0.3431 -0.4782  0.0566
12834TIP3    H159993   1.703   6.717  14.469 -2.3360 -0.0749 -0.2268
12834TIP3    H259994   1.696   6.580  14.531  0.7970 -0.0378  0.2768
12835TIP3   OH259995   6.768   1.288  14.464 -0.2020  0.1287  0.5360
12835TIP3    H159996   6.800   1.326  14.546  2.7473 -1.1045  0.0275
12835TIP3    H259997   6.688   1.336  14.444 -0.9456  0.4842  4.1097
12836TIP3   OH259998   5.070   1.242   1.680  0.8661  0.5912 -0.7116
12836TIP3    H159999   5.134   1.216   1.613  2.7196  2.7216  0.1701
12836TIP3    H260000   5.094   1.190   1.757 -0.0814 -0.4688 -1.1172
12837TIP3   OH260001   1.256   5.898   0.085 -0.3926 -0.1098  0.0744
12837TIP3    H160002   1.268   5.832   0.154  1.9946  0.8350  0.6171
12837TIP3    H260003   1.299   5.976   0.119 -0.9225  0.9751 -1.6695
12838TIP3   OH260004   0.697   0.982   4.197 -0.3295 -0.0069  0.6299
12838TIP3    H160005   0.657   0.997   4.112  0.4916 -0.1723  0.2104
12838TIP3    H260006   0.646   1.036   4.257 -1.7555 -0.9256  0.2644
12839TIP3   OH260007   3.438   6.611   2.017  0.8071  0.3866 -0.1449
12839TIP3    H160008   3.405   6.575   2.099  0.2404 -0.4032 -0.7265
12839TIP3    H260009   3.370   6.671   1.987  1.3955  1.3460  0.4040
12840TIP3   OH260010   6.734   0.608  15.666 -0.1462  0.4850  0.3059
12840TIP3    H160011   6.779   0.560  15.736  1.8566  2.4319  0.4071
12840TIP3    H260012   6.642   0.612  15.695  0.0162 -1.5921  1.1968
12841TIP3   OH260013   5.855   5.986   4.375  0.4103  0.2908  0.1146
12841TIP3    H160014   5.889   6.048   4.440 -0.3956 -0.0095  0.8333
12841TIP3    H260015   5.931   5.933   4.350  0.4783 -0.4137  1.7362
12842TIP3   OH260016   1.430   1.180  12.195  0.1207  0.1695  0.0570
12842TIP3    H160017   1.464   1.244  12.132 -2.0454  1.6884  0.4128
12842TIP3    H260018   1.349   1.147  12.156 -0.3766 -0.1072  1.2866
12843TIP3   OH260019   4.502   5.589  13.718 -0.0992  0.5775  0.0721
12843TIP3    H160020   4.535   5.505  13.751 -0.4923  1.0545  1.6701
12843TIP3    H260021   4.557   5.655  13.760 -0.8710  1.2091  0.1046
12844TIP3   OH260022   3.462   1.911  12.386 -0.0835 -0.1835  0.2026
12844TIP3    H160023   3.424   1.824  12.375  1.1097 -0.6854  0.0523
12844TIP3    H260024   3.386   1.969  12.396 -0.8748 -1.2843  0.6633
12845TIP3   OH260025   3.723   1.236   2.633  0.1766  0.2543 -0.4462
12845TIP3    H160026   3.635   1.199   2.643  0.4368 -0.0493  0.7457
12845TIP3    H260027   3.725   1.310   2.694  1.1481 -0.4741  0.4293
12846TIP3   OH260028   3.650   1.755  15.318  0.2784 -0.1821  0.1802
12846TIP3    H160029   3.642   1.808  15.238 -0.4141  0.7923  0.8752
12846TIP3    H260030   3.593   1.799  15.381  1.9332 -0.0965  1.6605
12847TIP3   OH260031   0.210   4.911  14.643 -0.1041  0.1261  0.5986
12847TIP3    H160032   0.230   4.935  14.552 -1.5809 -0.6578  0.0522
12847TIP3    H260033   0.294   4.917  14.688  0.3067  2.3185 -0.4097
12848TIP3   OH260034   3.266   6.482  15.202  0.4216 -0.0850  0.4784
12848TIP3    H160035   3.193   6.453  15.146  0.7140 -2.0251  1.0857
12848TIP3    H260036   3.228   6.486  15.290  1.1116 -1.4345  0.8519
12849TIP3   OH260037   4.629   5.316  12.551 -0.4355 -0.1347 -0.4922
12849TIP3    H160038   4.542   5.355  12.548  0.2179  1.3781  0.0620
12849TIP3    H260039   4.685   5.376  12.503  0.3960 -0.8903 -0.4888
12850TIP3   OH260040   1.177   6.395  10.679 -0.5900 -0.2425 -0.3682
12850TIP3    H160041   1.232   6.324  10.711  1.2960  1.2857 -0.0803
12850TIP3    H260042   1.162   6.375  10.587 -2.0297 -2.1745  0.2474
12851TIP3   OH260043   0.123   1.377  15.730  0.0004 -1.2754  0.8510
12851TIP3    H160044   0.106   1.321  15.654  1.3148 -1.3864  0.6272
12851TIP3    H260045   0.206   1.345  15.765  1.8769  1.8496 -0.5093
12852TIP3   OH260046   0.598   1.724  14.488 -0.2623 -0.0747  0.2742
12852TIP3    H160047   0.592   1.819  14.484 -0.0611 -0.0933 -0.4560
12852TIP3    H260048   0.649   1.707  14.567 -0.7628  0.4058  0.7064
12853TIP3   OH260049   6.755   1.366   0.770  0.4075 -0.5224  0.1842
12853TIP3    H160050   6.682   1.397   0.716  0.1106 -1.6433 -0.0723
12853TIP3    H260051   6.717   1.301   0.828  0.9365 -0.0874  1.0384
12854TIP3   OH260052   5.332   2.426   4.781  0.3392 -0.6068 -1.0251
12854TIP3    H160053   5.387   2.447   4.857 -1.0337 -0.0779 -0.1586
12854TIP3    H260054   5.394   2.415   4.709  1.5178  1.0191 -0.2885
12855TIP3   OH260055   0.148   0.423  15.568  0.0017  0.2420 -0.0129
12855TIP3    H160056   0.186   0.338  15.589 -0.3019  0.1174  0.0418
12855TIP3    H260057   0.218   0.472  15.525  0.2126  0.0075  0.0690
12856TIP3   OH260058   1.979   5.527   3.351 -0.3572  0.0137 -0.7180
12856TIP3    H160059   1.976   5.612   3.395 -1.3794 -0.5432  0.2953
12856TIP3    H260060   2.050   5.536   3.287 -1.2871  2.0788 -1.5289
12857TIP3   OH260061   6.352   2.448   3.876 -0.1090 -0.0385  0.2596
12857TIP3    H160062   6.408   2.391   3.930  0.4625  0.3018  0.0372
12857TIP3    H260063   6.394   2.534   3.882 -0.4865  0.1682 -0.0938
12858TIP3   OH260064   3.812   6.360  16.158 -0.5668  0.0649 -0.2584
12858TIP3    H160065   3.756   6.416  16.212 -0.0363  0.4312 -0.0843
12858TIP3    H260066   3.762   6.346  16.078 -0.5590  1.0778 -0.4463
12859TIP3   OH260067   6.240   1.051   3.562  0.4047 -0.1326 -0.6053
12859TIP3    H160068   6.205   1.121   3.506 -2.1334 -1.4329 -0.6951
12859TIP3    H260069   6.235   0.973   3.508  1.5869 -0.7326  0.1283
12860TIP3   OH260070   3.200   1.123  16.499 -0.4012 -0.1721 -0.1376
12860TIP3    H160071   3.192   1.205  16.546 -2.5691 -0.2953 -0.2647
12860TIP3    H260072   3.294   1.104  16.500 -0.2601  0.4863  2.9752
12861TIP3   OH260073   1.788   5.326   3.090  0.3853 -0.1569  0.6626
12861TIP3    H160074   1.805   5.418   3.070 -0.6774 -0.1188 -0.1251
12861TIP3    H260075   1.783   5.322   3.185 -0.3605  0.7560  0.6657
12862TIP3   OH260076   1.281   2.546   5.708  0.3037  0.3141 -0.8469
12862TIP3    H160077   1.273   2.451   5.719 -0.3937  0.1863 -2.3822
12862TIP3    H260078   1.217   2.568   5.640 -0.9758  2.1799  0.9075
12863TIP3   OH260079   4.816   1.262   1.808  0.1675  0.3589  0.1251
12863TIP3    H160080   4.905   1.280   1.776  0.3894  1.4850  1.3395
12863TIP3    H260081   4.827   1.193   1.873  0.2227  0.8187  0.6094
12864TIP3   OH260082   4.866   2.203  13.487  0.4947  0.5202  0.5836
12864TIP3    H160083   4.929   2.198  13.558  0.3575 -1.1132  0.6167
12864TIP3    H260084   4.903   2.148  13.418 -0.7604 -0.2810  0.5236
12865TIP3   OH260085   1.807   3.917  11.053 -0.1849 -0.2879 -0.3544
12865TIP3    H160086   1.824   3.862  11.129  0.1505 -0.2542 -0.4056
12865TIP3    H260087   1.720   3.890  11.023 -0.3402 -0.2624  0.0686
12866TIP3   OH260088   6.609   0.586  14.869 -0.6155  0.4443  0.0918
12866TIP3    H160089   6.596   0.500  14.829 -1.6418 -0.2968  1.9574
12866TIP3    H260090   6.521   0.623  14.876 -0.5230  0.3695  2.0203
12867TIP3   OH260091   5.573   0.019  11.451 -0.4325 -0.0210 -0.2427
12867TIP3    H160092   5.602  -0.068  11.479  0.1788  0.1730 -0.2798
12867TIP3    H260093   5.645   0.077  11.475 -1.0742  0.5562  0.2773
12868TIP3   OH260094   5.246   2.946  13.193 -0.1987  0.1643 -0.6374
12868TIP3    H160095   5.261   2.982  13.106  0.5246  1.6133  0.0647
12868TIP3    H260096   5.169   2.993  13.225  0.3642  0.6362  0.0356
12869TIP3   OH260097   3.981   5.268  11.892 -0.8129 -0.3618  0.0390
12869TIP3    H160098   4.004   5.354  11.927 -1.0370 -0.3400  0.1374
12869TIP3    H260099   3.912   5.237  11.951  1.4511 -1.9763  1.9412
12870TIP3   OH260100   4.349   0.717  14.641 -0.3279  0.5661  0.3458
12870TIP3    H160101   4.351   0.666  14.561 -1.6984 -0.2095  0.7941
12870TIP3    H260102   4.441   0.738  14.658  0.3167 -1.9923  0.2939
12871TIP3   OH260103   5.903   5.509   1.432 -0.1129  0.2711 -0.5932
12871TIP3    H160104   5.917   5.583   1.373  0.0040  0.5794 -0.1787
12871TIP3    H260105   5.977   5.450   1.414 -0.5504 -0.0498 -1.3765
12872TIP3   OH260106   5.929   4.336  13.638 -0.7774  0.1311 -0.3935
12872TIP3    H160107   5.853   4.376  13.594 -1.3687  2.2213  2.3539
12872TIP3    H260108   5.912   4.350  13.731  2.5931 -0.1502  0.3144
12873TIP3   OH260109   3.525   4.539   5.630  0.3724  0.3651  0.0041
12873TIP3    H160110   3.540   4.571   5.541 -0.4672  0.6180 -0.0444
12873TIP3    H260111   3.524   4.443   5.621 -2.5465  0.4303 -0.7308
12874TIP3   OH260112   0.927   2.427  12.056 -0.5070 -0.0344  0.4918
12874TIP3    H160113   0.861   2.488  12.023 -1.8146 -2.2112 -0.9989
12874TIP3    H260114   0.909   2.421  12.150 -1.9479  0.0246  0.2379
12875TIP3   OH260115   6.468   2.962  15.857 -1.0703  0.7628  0.4317
12875TIP3    H160116   6.504   2.922  15.777  1.5952  0.1812  1.8677
12875TIP3    H260117   6.398   2.903  15.883 -2.9062  1.6769 -2.1921
12876TIP3   OH260118   0.714   3.176   1.697  0.6822 -0.1482  0.0691
12876TIP3    H160119   0.623   3.186   1.669  0.4996  0.6601  0.9159
12876TIP3    H260120   0.710   3.117   1.772  0.7928  0.3211  0.4442
12877TIP3   OH260121   0.096   6.474   2.615  0.3279  0.0726 -0.1529
12877TIP3    H160122   0.073   6.518   2.534  0.8647 -1.4767 -1.1635
12877TIP3    H260123   0.016   6.479   2.668 -0.2104  0.5818 -1.0059
12878TIP3   OH260124   1.338   0.240  13.898  0.2716 -0.1765  0.1306
12878TIP3    H160125   1.282   0.182  13.951  0.0862  0.3570  0.5158
12878TIP3    H260126   1.398   0.180  13.854  0.3157 -0.6381  0.8104
12879TIP3   OH260127   1.320   5.340   0.909 -0.0501 -0.4219  0.3236
12879TIP3    H160128   1.415   5.335   0.903 -0.0486  0.8827 -1.0109
12879TIP3    H260129   1.290   5.249   0.899  1.1249 -1.1350  2.8304
12880TIP3   OH260130   3.956   6.740  13.205  0.4292 -0.5943  0.2811
12880TIP3    H160131   3.888   6.722  13.271  0.7506 -2.8727  0.0196
12880TIP3    H260132   4.015   6.666  13.211  0.7032 -0.6112 -2.3036
12881TIP3   OH260133   1.447   4.126  12.794 -0.3816  0.0715 -0.4031
12881TIP3    H160134   1.378   4.062  12.778 -0.3104  0.6640 -3.2837
12881TIP3    H260135   1.422   4.202  12.741  2.0859  0.5548 -0.9393
12882TIP3   OH260136   2.689   5.294   3.764 -0.1443  0.3911 -0.0978
12882TIP3    H160137   2.758   5.244   3.720  1.7585  1.4054  1.6232
12882TIP3    H260138   2.618   5.232   3.777  0.0400 -0.4395 -2.7683
12883TIP3   OH260139   5.210   1.066  12.496  0.1924  0.0521 -0.3565
12883TIP3    H160140   5.183   1.110  12.415 -0.5030  3.1063  1.4870
12883TIP3    H260141   5.225   0.975  12.469 -4.3069 -0.0485 -3.0621
12884TIP3   OH260142   4.271   1.102   0.229  0.3271  0.0990 -0.2557
12884TIP3    H160143   4.221   1.055   0.296 -0.3671  1.0450 -0.0995
12884TIP3    H260144   4.351   1.051   0.219  0.2045 -0.3489  0.9207
12885TIP3   OH260145   6.014   4.458   0.354 -0.0552  0.0385 -0.0497
12885TIP3    H160146   5.964   4.536   0.330 -0.1376 -0.2037 -0.6733
12885TIP3    H260147   5.947   4.395   0.380 -0.0223  0.0035 -0.0521
12886TIP3   OH260148   3.912   3.770   5.273  0.0837 -0.1902 -0.0847
12886TIP3    H160149   3.824   3.746   5.243 -0.7439 -2.6511  3.9930
12886TIP3    H260150   3.969   3.703   5.236 -0.4857 -1.3986  1.1854
12887TIP3   OH260151   0.261   5.426  13.496  0.0993 -0.1081 -0.3089
12887TIP3    H160152   0.284   5.428  13.403 -0.7283  0.5223 -0.5048
12887TIP3    H260153   0.169   5.399  13.497 -0.3141  1.3343  0.2496
12888TIP3   OH260154   6.004   5.739   1.324 -0.7887  0.0789  0.2733
12888TIP3    H160155   5.954   5.809   1.367  0.8837  0.9866  0.7915
12888TIP3    H260156   6.033   5.779   1.241  1.3299  0.4943  1.1868
12889TIP3   OH260157   1.931   1.669   4.838  0.1441  0.2500 -0.0666
12889TIP3    H160158   2.025   1.678   4.819 -0.0869  0.8596 -0.9379
12889TIP3    H260159   1.917   1.574   4.843  0.7022  0.1457 -0.4622
12890TIP3   OH260160   6.425   0.881  15.140 -0.5743 -0.1666 -0.3446
12890TIP3    H160161   6.418   0.917  15.052  1.5416  2.2699  0.4226
12890TIP3    H260162   6.473   0.947  15.189 -1.4483 -1.6079  2.5811
12891TIP3   OH260163   0.772   4.377  16.940 -0.6716  0.1945 -0.3913
12891TIP3    H160164   0.834   4.438  16.900  0.6308 -0.3037  0.8460
12891TIP3    H260165   0.716   4.433  16.995 -0.2045  0.4353 -0.1505
12892TIP3   OH260166   6.073   1.493   2.933  0.1936  0.1377 -0.1370
12892TIP3    H160167   6.153   1.519   2.980 -0.1323  0.8124  0.0544
12892TIP3    H260168   6.088   1.522   2.843  0.3391 -0.1066 -0.1899
12893TIP3   OH260169   4.518   6.159   3.840 -0.1625 -0.2425  0.7110
12893TIP3    H160170   4.560   6.102   3.905  0.2791 -1.3465 -0.5187
12893TIP3    H260171   4.579   6.232   3.830 -0.6790  0.4300  2.2133
12894TIP3   OH260172   3.709   3.645  13.874 -0.1549  0.3879 -0.7275
12894TIP3    H160173   3.684   3.721  13.822 -0.2311  1.5042  0.8927
12894TIP3    H260174   3.804   3.639  13.863 -0.1598  0.6556 -0.9308
12895TIP3   OH260175   3.904   5.881   3.196  0.0139  0.3166 -0.3789
12895TIP3    H160176   3.809   5.870   3.200 -0.1041  0.7367 -1.7710
12895TIP3    H260177   3.939   5.795   3.219 -0.6994  0.0623 -0.2122
12896TIP3   OH260178   4.794   1.233  14.265 -0.2780  0.4360  0.6546
12896TIP3    H160179   4.784   1.153  14.215  3.0383 -0.3208  1.0734
12896TIP3    H260180   4.784   1.303  14.200 -0.7495 -0.3907 -0.1752
12897TIP3   OH260181   0.849   0.598  14.958 -0.1105 -0.4774  0.1875
12897TIP3    H160182   0.884   0.571  15.043 -0.1246 -0.0475  0.3325
12897TIP3    H260183   0.756   0.613  14.974  0.0840  0.6126  0.3446
12898TIP3   OH260184   4.905   0.677  13.131 -0.3387 -0.0862  0.0563
12898TIP3    H160185   4.840   0.624  13.175 -2.1044  1.2222 -0.8775
12898TIP3    H260186   4.888   0.766  13.162  0.7241  0.3323 -0.5308
12899TIP3   OH260187   5.481   1.389  15.781 -0.0044  0.4587 -0.4352
12899TIP3    H160188   5.540   1.315  15.794 -0.2805  0.2779 -0.2160
12899TIP3    H260189   5.413   1.379  15.848  0.9547  1.9210  0.7985
12900TIP3   OH260190   5.648   1.378  16.036  0.0189 -0.3831  0.0863
12900TIP3    H160191   5.713   1.327  16.084  0.4718 -0.2009 -0.3272
12900TIP3    H260192   5.572   1.321  16.030  0.8084 -1.3473 -1.0907
12901TIP3   OH260193   0.780   5.863  15.022 -1.0092 -0.1468  0.5161
12901TIP3    H160194   0.794   5.820  14.938 -1.6526 -1.5564  1.1078
12901TIP3    H260195   0.812   5.800  15.087 -1.7077  0.3878  1.3934
12902TIP3   OH260196   3.207   3.986   1.451  0.4848  0.1257  0.3124
12902TIP3    H160197   3.120   3.974   1.490  0.8439 -0.5117  0.9118
12902TIP3    H260198   3.189   3.996   1.357 -0.4232  2.1975  0.6707
12903TIP3   OH260199   3.145   3.502  14.724  0.3776  0.4030  0.5615
12903TIP3    H160200   3.234   3.469  14.740  0.7567  1.2640  0.2661
12903TIP3    H260201   3.107   3.512  14.811  0.6812  0.3399  0.7024
12904TIP3   OH260202   6.362   6.762   6.376  0.5038  0.0069 -0.0935
12904TIP3    H160203   6.274   6.756   6.340  0.1058  0.8671  0.7417
12904TIP3    H260204   6.350   6.761   6.471  1.4247 -0.3845  0.0224
12905TIP3   OH260205   1.816   4.917   4.102 -0.2331  0.5369 -0.3061
12905TIP3    H160206   1.899   4.959   4.079  0.2507  0.4125  1.1402
12905TIP3    H260207   1.752   4.988   4.099  0.4481  1.2445  1.4130
12906TIP3   OH260208   0.044   0.835  16.085 -0.3847  0.6055 -0.0771
12906TIP3    H160209  -0.031   0.787  16.051 -1.0379  0.4169  1.5888
12906TIP3    H260210   0.025   0.927  16.064 -0.1515  0.3742 -1.3567
12907TIP3   OH260211   4.832   4.415  16.384  0.2762 -0.1439  0.8041
12907TIP3    H160212   4.843   4.506  16.414 -0.5036  0.3552 -0.3544
12907TIP3    H260213   4.830   4.363  16.464 -1.1543  1.0895  1.5995
12908TIP3   OH260214   6.137   0.912  15.319 -0.8705  0.3729  0.1953
12908TIP3    H160215   6.123   0.842  15.255 -4.3843 -0.1049  1.4135
12908TIP3    H260216   6.105   0.991  15.275 -0.5587  0.5682  0.3135
12909TIP3   OH260217   5.783   4.701  14.193  0.8181 -0.1942 -0.4495
12909TIP3    H160218   5.763   4.745  14.275 -0.1363 -1.9473  0.2868
12909TIP3    H260219   5.698   4.689  14.150  1.2426  0.1765 -1.4184
12910TIP3   OH260220   5.036   0.309   1.653  0.0379 -0.2743 -0.4125
12910TIP3    H160221   5.087   0.389   1.664 -1.7293  1.0676 -1.7296
12910TIP3    H260222   4.948   0.332   1.685  0.0278 -2.3446  1.2140
12911TIP3   OH260223   3.917   5.379  13.026 -0.6668  0.7531  0.3847
12911TIP3    H160224   3.825   5.354  13.027 -0.6203  0.6052  1.0018
12911TIP3    H260225   3.918   5.470  13.057 -0.4210  0.1231  2.2944
12912TIP3   OH260226   2.710   1.588   0.308  0.0261  0.1409  0.6804
12912TIP3    H160227   2.753   1.655   0.362  1.7632 -1.2719  1.0959
12912TIP3    H260228   2.781   1.551   0.256 -1.1357 -0.5896 -0.3921
12913TIP3   OH260229   1.773   6.098  16.639  0.3388 -0.5056 -0.1037
12913TIP3    H160230   1.841   6.164  16.629 -0.0842  0.4227  2.7471
12913TIP3    H260231   1.808   6.035  16.702 -1.0134 -0.5729  0.6116
12914TIP3   OH260232   1.545   4.357   2.939  0.5812  0.3073 -0.0441
12914TIP3    H160233   1.524   4.274   2.983 -1.7089  0.1518 -1.3576
12914TIP3    H260234   1.556   4.333   2.847  0.6660  1.3568 -0.3148
12915TIP3   OH260235   3.800   5.822  16.794 -0.0800  0.6059 -0.1098
12915TIP3    H160236   3.719   5.787  16.758 -0.3950  0.8268  0.3767
12915TIP3    H260237   3.850   5.745  16.821  0.4727  0.4013 -1.6714
12916TIP3   OH260238   0.555   0.463  17.120 -0.4679 -0.1018 -0.3216
12916TIP3    H160239   0.580   0.433  17.033 -1.2017 -1.9377  0.0775
12916TIP3    H260240   0.523   0.553  17.106 -0.2491 -0.2470 -1.8750
12917TIP3   OH260241   4.120   6.212   3.436 -0.0044  0.7400  0.6320
12917TIP3    H160242   4.195   6.191   3.381 -0.7658  1.6774 -0.7831
12917TIP3    H260243   4.147   6.186   3.524  0.9584 -1.4473 -0.2591
12918TIP3   OH260244   0.528   5.278   0.514  0.0829 -0.0993  0.2513
12918TIP3    H160245   0.446   5.250   0.474  0.1779 -0.7969  0.5375
12918TIP3    H260246   0.523   5.373   0.514 -0.8359 -0.1406  0.4934
12919TIP3   OH260247   3.666   1.998  15.157  0.2845 -0.0059  0.1837
12919TIP3    H160248   3.621   2.031  15.235 -2.6218  2.7504 -2.4877
12919TIP3    H260249   3.605   2.017  15.085  2.5794 -3.0157 -2.7052
12920TIP3   OH260250   2.071   1.287  11.839 -0.3009  0.0515  0.1321
12920TIP3    H160251   2.075   1.258  11.930  1.6961 -2.3646 -0.6521
12920TIP3    H260252   2.137   1.356  11.833  0.0839 -0.2921  0.3620
12921TIP3   OH260253   1.555   2.169  12.782  0.3117 -0.2849  0.3044
12921TIP3    H160254   1.510   2.088  12.809 -1.2561  0.8244  1.0706
12921TIP3    H260255   1.648   2.147  12.789 -0.0363 -2.9571 -2.3249
12922TIP3   OH260256   5.965   5.755  10.976 -0.1351 -0.3178 -0.6479
12922TIP3    H160257   6.052   5.792  10.960 -0.4827  1.1364  0.7007
12922TIP3    H260258   5.952   5.762  11.070 -1.0444 -2.1001 -0.6032
12923TIP3   OH260259   2.206   0.768  13.178 -0.2461  0.0347  0.1526
12923TIP3    H160260   2.230   0.832  13.245  1.1451 -0.3455  0.0508
12923TIP3    H260261   2.161   0.698  13.225 -0.2728  0.2966  0.5180
12924TIP3   OH260262   4.057   0.477  17.099 -0.1090 -0.8323 -0.3253
12924TIP3    H160263   4.098   0.469  17.012  0.3430  0.5308 -0.2499
12924TIP3    H260264   4.115   0.427  17.157  1.9305  1.7115 -0.0880
12925TIP3   OH260265   2.770   6.573   1.240  0.2257  0.3108  0.2410
12925TIP3    H160266   2.783   6.582   1.146  1.8144 -1.4788  0.2325
12925TIP3    H260267   2.764   6.478   1.254  0.8700  0.5096  2.0321
12926TIP3   OH260268   1.073   6.437  12.506 -0.0908 -0.0771 -0.1591
12926TIP3    H160269   1.120   6.451  12.424 -1.4920 -1.4558 -1.2327
12926TIP3    H260270   1.109   6.356  12.541  1.3405  1.1209  1.2249
12927TIP3   OH260271   0.589   3.593   0.637  0.3141 -0.2631 -0.0118
12927TIP3    H160272   0.668   3.637   0.668 -0.2317  1.3756 -0.9369
12927TIP3    H260273   0.613   3.557   0.551 -0.5872  2.1443 -1.3008
12928TIP3   OH260274   3.570   6.249  17.092 -0.2852 -0.0775  0.2317
12928TIP3    H160275   3.631   6.181  17.120  0.9672  0.8365 -0.2245
12928TIP3    H260276   3.605   6.330  17.132 -0.3231  0.7031 -1.2951
12929TIP3   OH260277   1.562   3.126  11.639  0.0707 -0.4709 -0.0277
12929TIP3    H160278   1.614   3.160  11.567  0.7261 -0.4106  0.4689
12929TIP3    H260279   1.556   3.198  11.702 -0.0741 -0.6836  0.2075
12930TIP3   OH260280   5.094   4.736  12.948  0.1272 -0.3842  0.0440
12930TIP3    H160281   5.188   4.754  12.934  0.1275  0.3968  0.9648
12930TIP3    H260282   5.050   4.812  12.911 -0.1794 -1.0145 -0.8929
12931TIP3   OH260283   5.239   4.958  12.662  0.5481 -0.3439  0.6958
12931TIP3    H160284   5.203   5.010  12.590 -0.4761  0.1974  1.5655
12931TIP3    H260285   5.229   4.867  12.634  1.8528 -0.0973 -0.6148
12932TIP3   OH260286   6.656   4.050  13.731 -0.1590 -0.0905 -0.2087
12932TIP3    H160287   6.629   4.044  13.822  0.8438  0.5801  0.1356
12932TIP3    H260288   6.575   4.070  13.683 -0.3657  1.4734  0.7612
12933TIP3   OH260289   0.137   5.568  17.195  0.1943  0.1500  0.2682
12933TIP3    H160290   0.228   5.588  17.218 -0.1727  0.7055  1.2558
12933TIP3    H260291   0.138   5.475  17.171  1.2151  0.4085 -0.7626
12934TIP3   OH260292   4.286   2.369   0.491  0.0818  0.5542 -0.4085
12934TIP3    H160293   4.313   2.340   0.579  2.3149 -0.9695 -1.5278
12934TIP3    H260294   4.281   2.288   0.440  0.2119  1.5541 -2.0440
12935TIP3   OH260295   5.632   6.335   6.110  0.4946 -0.3734 -0.3249
12935TIP3    H160296   5.654   6.270   6.043  0.7240 -0.3175 -0.3042
12935TIP3    H260297   5.716   6.355   6.153  0.3799 -0.2669 -0.1492
12936TIP3   OH260298   4.127   1.839   0.607 -0.2279 -0.2061  0.3693
12936TIP3    H160299   4.150   1.929   0.584 -1.4079  0.4680  1.7601
12936TIP3    H260300   4.097   1.799   0.526 -0.0973  0.7829 -0.1638
12937TIP3   OH260301   3.778   0.779   4.525  0.2022 -0.1504 -0.0630
12937TIP3    H160302   3.851   0.823   4.482  0.9388  0.1772  1.4813
12937TIP3    H260303   3.703   0.837   4.510  0.8070  0.7926  0.4958
12938TIP3   OH260304   2.229   3.660  12.027 -0.1173  0.4553 -0.9084
12938TIP3    H160305   2.223   3.580  12.079  3.7254  1.1698  0.8015
12938TIP3    H260306   2.187   3.637  11.943 -3.8239 -1.6045  1.3639
12939TIP3   OH260307   4.202   4.854  12.815  0.2927 -0.1524 -0.1481
12939TIP3    H160308   4.268   4.900  12.867  0.9194 -1.7649  0.5101
12939TIP3    H260309   4.240   4.769  12.798 -1.0966 -0.6433 -0.8598
12940TIP3   OH260310   3.818   0.578   1.417 -0.4171 -0.1121 -0.0666
12940TIP3    H160311   3.831   0.493   1.459  1.4774 -1.0859 -2.5170
12940TIP3    H260312   3.898   0.593   1.366 -0.7235  3.1325  0.2619
12941TIP3   OH260313   2.964   6.558  12.447  0.2001  0.3624  0.2162
12941TIP3    H160314   2.991   6.503  12.373  1.5218  1.1873  0.0650
12941TIP3    H260315   2.889   6.607  12.414  1.2849  1.3408 -0.8779
12942TIP3   OH260316   4.253   1.954   3.396  0.4937 -0.0191  0.3339
12942TIP3    H160317   4.202   2.032   3.419 -0.0818 -0.2563 -0.1523
12942TIP3    H260318   4.283   1.970   3.307 -0.4659 -0.7950 -0.1375
12943TIP3   OH260319   0.434   4.478  16.215 -0.3261 -0.6265 -0.4920
12943TIP3    H160320   0.517   4.439  16.241 -0.4323  0.4780  1.5998
12943TIP3    H260321   0.449   4.572  16.219 -1.3058 -0.4244 -1.3592
12944TIP3   OH260322   0.174   3.012  14.477  0.1080 -0.5350  0.6088
12944TIP3    H160323   0.096   3.017  14.532  0.0260 -0.9482  0.5324
12944TIP3    H260324   0.153   3.066  14.400 -0.5355 -1.5414  0.0633
12945TIP3   OH260325   2.338   4.456  16.911 -0.3533  0.6983  0.0641
12945TIP3    H160326   2.288   4.378  16.886 -1.8857  1.3062  1.1701
12945TIP3    H260327   2.272   4.517  16.944  1.1851  1.2805  2.1819
12946TIP3   OH260328   4.360   4.655  13.735 -0.0784 -0.0625  0.5729
12946TIP3    H160329   4.352   4.586  13.670  0.8390  0.9189 -0.6123
12946TIP3    H260330   4.276   4.657  13.779 -0.3792 -1.3929  0.0690
12947TIP3   OH260331   2.728   1.819  14.820 -0.0261 -0.1453  0.0224
12947TIP3    H160332   2.640   1.845  14.793 -0.4901 -0.7529  0.9353
12947TIP3    H260333   2.765   1.776  14.743 -0.3736  0.4573 -0.4908
12948TIP3   OH260334   6.150   4.730   0.626 -0.6195  0.7834  0.2414
12948TIP3    H160335   6.112   4.649   0.593 -1.0869  1.5871 -1.2284
12948TIP3    H260336   6.237   4.734   0.587 -0.2133  0.5078  1.1037
12949TIP3   OH260337   1.511   0.522  13.125  0.1611 -1.3590 -0.5216
12949TIP3    H160338   1.579   0.557  13.068 -0.5098 -1.9331 -1.6883
12949TIP3    H260339   1.513   0.578  13.203  0.6824 -0.1985 -1.3619
12950TIP3   OH260340   4.538   0.125  12.448  0.2028 -0.2888 -0.4267
12950TIP3    H160341   4.552   0.074  12.528  0.5693 -1.9784 -1.5475
12950TIP3    H260342   4.601   0.196  12.454  1.9022 -1.7559 -0.3287
12951TIP3   OH260343   1.276   0.377   4.661 -0.1842  0.1133  0.0361
12951TIP3    H160344   1.223   0.309   4.702 -0.1130 -0.7151 -1.2108
12951TIP3    H260345   1.364   0.363   4.697  0.0464 -1.0988 -0.9444
12952TIP3   OH260346   5.806   4.290   0.030 -0.4822  0.1837  0.3052
12952TIP3    H160347   5.848   4.365  -0.012 -2.6897  1.8460  1.0013
12952TIP3    H260348   5.744   4.257  -0.036 -0.9436  0.2073  0.7238
12953TIP3   OH260349   2.720   5.515  12.674 -0.1974 -0.1369 -0.6455
12953TIP3    H160350   2.721   5.437  12.617 -0.1481 -0.9659  0.4802
12953TIP3    H260351   2.805   5.515  12.716 -0.9768 -0.6921  0.9773
12954TIP3   OH260352   4.889   3.022  10.646 -0.3192 -0.2411  0.1736
12954TIP3    H160353   4.972   3.035  10.600 -0.0746 -0.4884  0.5449
12954TIP3    H260354   4.824   3.017  10.576 -0.0491  0.1440 -0.1098
12955TIP3   OH260355   4.728   6.058  16.313  0.2986 -0.7897 -0.2064
12955TIP3    H160356   4.701   6.148  16.336 -1.2398 -1.2955  0.0353
12955TIP3    H260357   4.710   6.051  16.220  1.9010 -0.3559 -0.5695
12956TIP3   OH260358   6.390   2.600   3.326 -0.0308  0.8447  0.2353
12956TIP3    H160359   6.445   2.678   3.324 -2.6003  2.7290 -0.6323
12956TIP3    H260360   6.351   2.600   3.413  2.1524 -1.1404  1.2683
12957TIP3   OH260361   1.035   5.368  14.617 -0.0600  0.2103 -0.6013
12957TIP3    H160362   1.100   5.401  14.555 -1.2674 -1.4940 -2.8596
12957TIP3    H260363   1.085   5.320  14.682  1.0064 -0.4385 -1.8880
12958TIP3   OH260364   6.505   3.376  17.229  0.3737 -0.0451 -0.4301
12958TIP3    H160365   6.442   3.440  17.264  0.6600 -0.6342  1.2222
12958TIP3    H260366   6.573   3.371  17.297 -0.2274 -2.9501  0.0066
12959TIP3   OH260367   2.577   2.864  12.409 -0.3566 -0.2841  0.5184
12959TIP3    H160368   2.576   2.948  12.455 -0.8740  0.1900 -0.3316
12959TIP3    H260369   2.669   2.841  12.403 -0.2452 -0.0504  1.2456
12960TIP3   OH260370   1.721   3.979   1.625  0.1040  0.0791  0.2643
12960TIP3    H160371   1.642   4.030   1.643  0.0035 -0.6101  1.8637
12960TIP3    H260372   1.690   3.890   1.614  0.6088 -0.1355  0.5594
12961TIP3   OH260373   1.524   2.564  14.171 -0.2063 -0.2190 -0.2833
12961TIP3    H160374   1.511   2.650  14.210  1.0344  0.0165 -0.3743
12961TIP3    H260375   1.553   2.583  14.082 -1.3466 -0.7469 -0.7838
12962TIP3   OH260376   4.490   3.344   3.272 -0.0998 -0.0206  0.1062
12962TIP3    H160377   4.512   3.437   3.265  1.3152 -0.4180 -1.1518
12962TIP3    H260378   4.443   3.325   3.191 -0.0041 -0.4917  0.1612
12963TIP3   OH260379   1.935   4.160  11.114 -0.3094 -0.0817 -0.0387
12963TIP3    H160380   1.901   4.217  11.045 -0.0436 -1.1427 -1.0596
12963TIP3    H260381   1.889   4.076  11.101  0.2365 -0.4937  0.6564
12964TIP3   OH260382   3.369   6.583  11.801 -0.5764 -0.4939  0.3149
12964TIP3    H160383   3.455   6.547  11.825  0.2314  0.0129 -1.6818
12964TIP3    H260384   3.306   6.521  11.836  0.7135 -2.3841 -0.6291
12965TIP3   OH260385   4.511   0.241   5.708  0.6583 -0.6557 -0.8958
12965TIP3    H160386   4.579   0.222   5.644 -0.1705 -0.2267 -1.9125
12965TIP3    H260387   4.513   0.166   5.768  2.0471 -0.6237 -0.8857
12966TIP3   OH260388   3.013   3.780  12.470  0.3127 -0.6069  0.2365
12966TIP3    H160389   3.106   3.760  12.461  0.1538 -0.6938 -1.4913
12966TIP3    H260390   3.008   3.875  12.459  0.0324 -0.7963 -1.4105
12967TIP3   OH260391   2.190   3.232  15.206 -0.5159  0.8655 -0.0449
12967TIP3    H160392   2.272   3.275  15.181  0.0749  0.2564  0.8340
12967TIP3    H260393   2.144   3.296  15.260  1.0517 -0.1338  2.5498
12968TIP3   OH260394   0.441   2.348  16.114 -0.3846 -0.0421 -0.3544
12968TIP3    H160395   0.529   2.334  16.147  0.2456  0.9348 -1.5636
12968TIP3    H260396   0.414   2.263  16.080 -1.4237 -1.3228  3.4155
12969TIP3   OH260397   4.544   2.044  11.034  0.3850 -0.6335 -0.0963
12969TIP3    H160398   4.606   2.006  11.097 -0.5500 -0.2492  1.0863
12969TIP3    H260399   4.596   2.062  10.956  1.2809 -2.4000  0.0710
12970TIP3   OH260400   6.813   1.347  12.478  0.2886  0.1194 -0.0255
12970TIP3    H160401   6.722   1.340  12.508  0.5728  1.3240  1.1485
12970TIP3    H260402   6.807   1.381  12.389 -0.3100  3.0106  1.0840
12971TIP3   OH260403   1.878   2.111   6.184 -0.3188  0.8077 -0.2077
12971TIP3    H160404   1.842   2.198   6.202 -0.2320  0.8428 -0.1985
12971TIP3    H260405   1.866   2.100   6.089  1.9109  1.8829 -0.6599
12972TIP3   OH260406   6.512   5.818   6.267  0.1077 -0.3676 -0.5457
12972TIP3    H160407   6.468   5.898   6.239  1.2755  0.2993 -0.5118
12972TIP3    H260408   6.553   5.840   6.351  0.0908 -1.1192 -0.3341
12973TIP3   OH260409   4.856   0.029   1.491  0.3657 -0.0705  0.0146
12973TIP3    H160410   4.951   0.036   1.496  0.5336 -2.1683  0.3243
12973TIP3    H260411   4.826   0.029   1.582  0.2076 -0.9218 -0.0322
12974TIP3   OH260412   3.075   2.809  14.918 -0.1574 -0.4188  0.1310
12974TIP3    H160413   3.025   2.884  14.948  1.5476 -0.0402  2.1562
12974TIP3    H260414   3.116   2.839  14.836 -0.1182  0.5992  0.5153
12975TIP3   OH260415   3.961   4.971   0.497  0.2630 -0.4948  0.0280
12975TIP3    H160416   3.949   5.040   0.432  0.4613  0.2102  0.7362
12975TIP3    H260417   3.999   4.898   0.447 -0.0252 -0.1285 -0.7385
12976TIP3   OH260418   6.020   0.927   4.231  0.0713 -0.5403  0.3696
12976TIP3    H160419   5.968   1.007   4.230 -0.6831 -1.0329 -0.8570
12976TIP3    H260420   5.998   0.885   4.314 -0.3724 -0.0304  0.5113
12977TIP3   OH260421   4.592   5.295   2.838 -0.2934 -0.5067 -0.7369
12977TIP3    H160422   4.573   5.316   2.747 -0.7593  0.8002 -0.3599
12977TIP3    H260423   4.526   5.345   2.888  0.1608 -0.9420  0.3198
12978TIP3   OH260424   5.262   0.192  11.632  0.1515  0.1380  0.7854
12978TIP3    H160425   5.357   0.201  11.623 -0.0356 -0.1927 -2.4154
12978TIP3    H260426   5.227   0.274  11.597 -0.7531 -0.4976  0.1627
12979TIP3   OH260427   0.193   1.359   4.703  0.8255  0.4075  0.2887
12979TIP3    H160428   0.163   1.379   4.614  1.3746 -2.7857 -0.6732
12979TIP3    H260429   0.146   1.421   4.758 -0.4342  1.6619 -2.1058
12980TIP3   OH260430   0.516   5.438   3.874  0.2506 -0.2416 -0.2865
12980TIP3    H160431   0.425   5.465   3.875 -0.5163 -2.6526 -0.2479
12980TIP3    H260432   0.545   5.451   3.784 -0.0049  0.9323 -0.1986
12981TIP3   OH260433   0.310   5.657  15.993  0.6548 -0.4739  0.5544
12981TIP3    H160434   0.294   5.643  15.900  0.8980  1.3854  0.2300
12981TIP3    H260435   0.250   5.596  16.037  1.2611 -2.0797 -0.8065
12982TIP3   OH260436   2.558   5.691  15.008  0.0505  0.1880  0.5208
12982TIP3    H160437   2.524   5.762  14.954  1.4582 -0.3354 -1.1209
12982TIP3    H260438   2.600   5.735  15.082  1.6167  1.1577 -0.8825
12983TIP3   OH260439   0.188   2.619   2.567  0.2766  0.3459 -0.4357
12983TIP3    H160440   0.141   2.601   2.649  2.0600  0.5386  0.6716
12983TIP3    H260441   0.133   2.580   2.499 -1.5076  0.6459  0.7896
12984TIP3   OH260442   1.701   2.811  15.206  0.3978  0.3440  0.5319
12984TIP3    H160443   1.785   2.787  15.245  0.0220 -0.4604  0.8438
12984TIP3    H260444   1.707   2.906  15.194  1.2117  0.3423  0.8860
12985TIP3   OH260445   6.464   6.536   0.668 -0.7000  0.1454  0.5838
12985TIP3    H160446   6.390   6.493   0.624 -1.0002  1.1134  0.1279
12985TIP3    H260447   6.487   6.476   0.740 -2.5133  0.2532  1.2936
12986TIP3   OH260448   0.076   3.453  16.253  0.1174  0.4519 -0.3502
12986TIP3    H160449   0.016   3.507  16.303  2.0752 -0.2257  2.8715
12986TIP3    H260450   0.039   3.365  16.256 -0.6035  0.7054 -1.5236
12987TIP3   OH260451   4.833   1.051   0.203  0.1918  0.2671  0.1157
12987TIP3    H160452   4.893   1.123   0.187 -1.3586  1.1920 -1.7363
12987TIP3    H260453   4.802   1.025   0.116 -0.5468 -1.5103  0.8818
12988TIP3   OH260454   1.748   4.499   0.966 -0.3101 -0.7873  0.3564
12988TIP3    H160455   1.757   4.468   0.876  1.3044  0.1297  0.1757
12988TIP3    H260456   1.835   4.533   0.989 -0.6302 -1.2332  2.3537
12989TIP3   OH260457   0.075   0.162   4.462  0.8892  0.7068 -0.0704
12989TIP3    H160458   0.129   0.218   4.517 -0.3789  0.6452  1.2984
12989TIP3    H260459  -0.015   0.192   4.478  0.5403  1.2379 -2.7812
12990TIP3   OH260460   1.722   5.607  14.286  0.2432  0.5770  0.1479
12990TIP3    H160461   1.739   5.524  14.242  0.4329  1.1889 -0.9313
12990TIP3    H260462   1.647   5.644  14.240 -1.3361 -0.0622  2.1047
12991TIP3   OH260463   2.347   1.142  12.768  0.4653  0.7437  0.2925
12991TIP3    H160464   2.349   1.237  12.762 -3.3195  0.8790 -0.2807
12991TIP3    H260465   2.299   1.125  12.850  1.6080 -0.6730  0.6786
12992TIP3   OH260466   6.083   5.351  13.611 -0.0982 -0.3696 -0.0262
12992TIP3    H160467   6.084   5.283  13.544 -0.0849 -0.3066 -0.0899
12992TIP3    H260468   6.057   5.430  13.565 -0.3898 -0.3890  0.1035
12993TIP3   OH260469   6.160   1.697   1.208  0.0253  0.8641  0.3995
12993TIP3    H160470   6.088   1.758   1.196  1.8783  3.2480  0.9853
12993TIP3    H260471   6.229   1.729   1.150  0.1080 -2.2551 -1.3045
12994TIP3   OH260472   2.549   6.168   3.343  0.7060 -0.6924 -0.7886
12994TIP3    H160473   2.506   6.250   3.317  0.0164 -1.4393 -2.0340
12994TIP3    H260474   2.526   6.158   3.436 -0.6323 -0.3396 -1.0621
12995TIP3   OH260475   0.356   4.929   6.026 -0.2738  0.4851  1.0185
12995TIP3    H160476   0.345   4.966   6.114  1.7982 -0.4020  1.6994
12995TIP3    H260477   0.306   4.847   6.028  1.0207 -0.3132  1.9235
12996TIP3   OH260478   3.520   2.738   5.236 -0.1109  0.3465  0.2746
12996TIP3    H160479   3.529   2.699   5.323  0.6594 -2.2301 -0.8982
12996TIP3    H260480   3.604   2.782   5.222  1.7136 -3.3079 -1.0091
12997TIP3   OH260481   6.095   2.504   1.982 -0.4768 -0.4533  0.4465
12997TIP3    H160482   6.127   2.484   2.070 -0.3699  1.8988  0.9677
12997TIP3    H260483   6.166   2.551   1.940 -0.8206 -0.8900 -0.6569
12998TIP3   OH260484   4.237   3.290  17.075  0.5454  0.1721  0.6396
12998TIP3    H160485   4.332   3.297  17.067  0.5934 -0.0515  0.9988
12998TIP3    H260486   4.223   3.207  17.119  0.1889  0.2954  0.7562
12999TIP3   OH260487   5.339   5.779  14.208 -0.5628  0.4324  0.5375
12999TIP3    H160488   5.347   5.874  14.201 -0.0685  0.3949  0.5736
12999TIP3    H260489   5.299   5.752  14.126  0.3968  0.5520  0.0164
13000TIP3   OH260490   5.639   3.233  14.629 -0.3492  0.1865 -0.6117
13000TIP3    H160491   5.717   3.189  14.595 -1.6676 -1.5735 -1.4001
13000TIP3    H260492   5.613   3.292  14.558  0.1773  0.6888 -0.3962
13001TIP3   OH260493   0.345   3.108   3.406  0.1771 -0.5708  0.1815
13001TIP3    H160494   0.258   3.147   3.399 -0.0229 -0.6809  1.7610
13001TIP3    H260495   0.352   3.050   3.331 -1.8635 -1.9954  1.0598
13002TIP3   OH260496   2.661   5.753   5.961 -0.1494  0.3760  0.8045
13002TIP3    H160497   2.629   5.691   5.896 -1.0499  0.5658  1.0624
13002TIP3    H260498   2.756   5.750   5.952 -0.2817  0.6155 -0.7146
13003TIP3   OH260499   1.621   1.527  15.079 -0.3815 -0.0183  0.4717
13003TIP3    H160500   1.565   1.589  15.126 -1.3575 -1.9233  1.9083
13003TIP3    H260501   1.562   1.485  15.017  0.6592  1.6729 -1.7326
13004TIP3   OH260502   0.127   2.698  12.048 -0.3444 -1.0514 -0.2057
13004TIP3    H160503   0.112   2.746  12.129  1.5300 -1.5429  0.4481
13004TIP3    H260504   0.039   2.681  12.014 -1.0886  1.8636  0.0907
13005TIP3   OH260505   2.849   2.758   5.808  0.2684 -0.1047  0.2954
13005TIP3    H160506   2.841   2.784   5.900  0.4697 -0.5094  0.4298
13005TIP3    H260507   2.911   2.685   5.810  0.1378 -0.2242 -0.1445
13006TIP3   OH260508   0.497   0.220  11.662  0.4622  0.1491 -0.2481
13006TIP3    H160509   0.436   0.212  11.736 -1.5846  0.4687 -1.8390
13006TIP3    H260510   0.564   0.280  11.692  0.9447 -1.5266  2.1747
13007TIP3   OH260511   6.103   2.504   0.800 -0.4190 -0.2781  0.2873
13007TIP3    H160512   6.037   2.487   0.866  0.8299 -2.2204  1.0604
13007TIP3    H260513   6.166   2.562   0.843 -0.6518  0.0726  0.1546
13008TIP3   OH260514   6.168   4.313  14.289 -0.2380  0.5518  0.6963
13008TIP3    H160515   6.106   4.380  14.260  0.4745  1.1169  0.4624
13008TIP3    H260516   6.220   4.357  14.357  0.2631  0.2483  0.5116
13009TIP3   OH260517   4.925   6.114  13.484  0.1623 -0.2686  0.4308
13009TIP3    H160518   5.017   6.122  13.458  0.3550  0.5331  1.3107
13009TIP3    H260519   4.893   6.204  13.486 -0.2886 -0.4419  1.3494
13010TIP3   OH260520   3.261   1.252  15.417  0.0996 -0.2152  0.4953
13010TIP3    H160521   3.225   1.202  15.344  1.2686 -0.5244  0.1225
13010TIP3    H260522   3.187   1.303  15.450 -0.9969 -1.8488  0.6043
13011TIP3   OH260523   4.060   4.948  13.738  0.4313  0.5237 -0.0113
13011TIP3    H160524   4.123   5.018  13.722  1.3147 -0.3934 -0.5529
13011TIP3    H260525   3.975   4.988  13.717  0.8826  1.5560  0.0848
13012TIP3   OH260526   5.254   5.680  14.445 -0.1741 -0.4448 -0.0437
13012TIP3    H160527   5.286   5.718  14.364 -1.1039  1.0622  0.2636
13012TIP3    H260528   5.262   5.751  14.509 -2.3571 -0.5873  0.4450
13013TIP3   OH260529   0.541   3.681   5.038 -0.2866 -0.3551 -0.7294
13013TIP3    H160530   0.581   3.768   5.039  0.2209 -0.5900 -0.1197
13013TIP3    H260531   0.448   3.698   5.021 -0.5409  0.4635  1.2987
13014TIP3   OH260532   0.240   2.778   1.132  0.3697 -0.3570 -0.2172
13014TIP3    H160533   0.235   2.871   1.113  1.3110 -0.3456 -0.4430
13014TIP3    H260534   0.286   2.774   1.217 -1.1077 -0.5403  0.5833
13015TIP3   OH260535   5.765   1.872   5.854  0.4529 -0.0100  0.1369
13015TIP3    H160536   5.698   1.805   5.872 -0.6655  1.2238  0.6982
13015TIP3    H260537   5.786   1.908   5.940  0.7135  0.6687 -0.2085
13016TIP3   OH260538   6.171   0.503   3.159 -0.0015  0.4732  0.2556
13016TIP3    H160539   6.186   0.472   3.070 -0.4366 -0.1341  0.3870
13016TIP3    H260540   6.081   0.479   3.178  0.3773 -0.2594  1.1927
13017TIP3   OH260541   6.495   0.363  11.273 -0.0218 -0.3672 -0.0376
13017TIP3    H160542   6.417   0.411  11.246  0.2454 -0.0982 -0.3266
13017TIP3    H260543   6.539   0.340  11.192 -0.0421 -0.9220  0.1106
13018TIP3   OH260544   4.815   3.044  14.047 -0.6190  0.0884  0.1587
13018TIP3    H160545   4.838   2.955  14.075 -0.6189  0.4902  1.5021
13018TIP3    H260546   4.874   3.100  14.097  0.7830  0.7706 -2.2040
13019TIP3   OH260547   5.375   3.465  11.435 -0.5140  0.2493  0.5185
13019TIP3    H160548   5.351   3.379  11.401 -0.9076  0.5578  0.0167
13019TIP3    H260549   5.453   3.448  11.489  0.7236 -0.1158 -1.3122
13020TIP3   OH260550   4.999   4.941  16.828 -0.7635 -0.2271  0.4170
13020TIP3    H160551   4.968   5.031  16.828  0.5923  0.2540  0.8877
13020TIP3    H260552   5.075   4.942  16.887 -0.5414 -1.6015  0.1703
13021TIP3   OH260553   0.611   3.388  16.211 -0.3171 -0.6815  0.3389
13021TIP3    H160554   0.706   3.387  16.200 -0.0199  0.5685  2.4843
13021TIP3    H260555   0.585   3.296  16.207  1.0356 -1.0546  0.1706
13022TIP3   OH260556   0.541   1.192  12.202  0.5795 -0.5857  0.3842
13022TIP3    H160557   0.557   1.106  12.162  2.0124  0.2473 -0.8539
13022TIP3    H260558   0.472   1.175  12.266  1.2250 -2.7815  0.5556
13023TIP3   OH260559   5.984   5.835  13.221  0.4944  0.3689  0.6140
13023TIP3    H160560   6.002   5.863  13.311  0.3096  0.1105  0.7315
13023TIP3    H260561   5.889   5.825  13.218  0.5025  0.3639  0.3928
13024TIP3   OH260562   2.092   2.431   1.227 -0.1617 -0.5757 -0.3616
13024TIP3    H160563   2.038   2.423   1.306 -1.2606  0.7112 -0.9471
13024TIP3    H260564   2.166   2.485   1.254  0.0232 -1.0421  0.0645
13025TIP3   OH260565   2.869   3.829  13.299 -0.6755  0.0001  0.3030
13025TIP3    H160566   2.854   3.904  13.241 -1.7546  0.0437  0.6291
13025TIP3    H260567   2.944   3.854  13.353 -0.2894  0.3611 -0.3948
13026TIP3   OH260568   3.730   2.040  16.541 -0.0204  0.6721  0.2570
13026TIP3    H160569   3.679   2.092  16.604  1.8898  2.2908  0.5248
13026TIP3    H260570   3.736   2.096  16.464 -1.0223 -0.6790 -0.8372
13027TIP3   OH260571   0.777   5.992  16.312 -0.8589 -0.0621 -0.0072
13027TIP3    H160572   0.774   6.005  16.407 -0.1187 -1.5805  0.2339
13027TIP3    H260573   0.776   5.897  16.301  0.3872  0.0800 -1.4717
13028TIP3   OH260574   4.466   6.543   1.355 -0.1006 -0.3994 -0.1813
13028TIP3    H160575   4.462   6.533   1.260  1.0060  4.2347 -0.8615
13028TIP3    H260576   4.375   6.556   1.382 -0.2991 -0.4747 -0.8071
13029TIP3   OH260577   4.218   0.424  14.235 -0.0479  0.2435 -0.4697
13029TIP3    H160578   4.175   0.434  14.150 -0.7283 -1.3954 -0.3319
13029TIP3    H260579   4.151   0.388  14.293  0.3984  1.4092  0.7828
13030TIP3   OH260580   5.673   3.991   6.272  0.0824 -0.5022 -0.4033
13030TIP3    H160581   5.671   4.041   6.353  2.9388  2.3344 -1.9691
13030TIP3    H260582   5.633   4.049   6.207  1.4531 -1.0742 -1.8096
13031TIP3   OH260583   3.299   5.419   1.061  0.0717 -0.3164 -0.3930
13031TIP3    H160584   3.292   5.326   1.041  1.2870  0.0009 -2.4382
13031TIP3    H260585   3.209   5.451   1.061 -0.2919 -1.3545 -0.4342
13032TIP3   OH260586   0.180   4.538  12.609  0.0270 -0.2762  0.8761
13032TIP3    H160587   0.112   4.603  12.591  0.0835  0.0945  1.9826
13032TIP3    H260588   0.262   4.582  12.587 -0.0652 -0.6316 -0.2000
13033TIP3   OH260589   0.165   4.018  12.242 -0.7634 -0.6088 -0.2235
13033TIP3    H160590   0.180   4.112  12.254  1.3485 -1.1355  1.4245
13033TIP3    H260591   0.168   4.005  12.147  1.3622  0.5935 -0.3335
13034TIP3   OH260592   1.393   6.213  13.211  0.1188 -0.1001 -0.3848
13034TIP3    H160593   1.345   6.184  13.134  1.2851 -2.4025 -0.2928
13034TIP3    H260594   1.485   6.216  13.183  0.2533  1.7482  0.1605
13035TIP3   OH260595   2.239   3.144   4.671  0.3601 -0.1851  0.3087
13035TIP3    H160596   2.222   3.086   4.597  1.4449  1.5623 -1.3472
13035TIP3    H260597   2.330   3.171   4.660 -0.0115  1.5219  1.2626
13036TIP3   OH260598   1.141   1.381   3.704  0.1574 -0.0187 -0.2181
13036TIP3    H160599   1.204   1.323   3.747  0.4921 -0.4203 -1.2296
13036TIP3    H260600   1.086   1.413   3.775  0.5554 -0.8515  0.4790
13037TIP3   OH260601   5.162   1.226   2.116  0.4139  0.1367 -0.3278
13037TIP3    H160602   5.229   1.255   2.054  0.5383 -0.1710 -0.3401
13037TIP3    H260603   5.124   1.307   2.151 -0.4626  0.3169 -1.6707
13038TIP3   OH260604   3.708   4.820   1.659  0.2736 -0.3544  0.0662
13038TIP3    H160605   3.647   4.888   1.630  0.1802  0.2696  1.7124
13038TIP3    H260606   3.652   4.751   1.695  0.4689 -0.5282  0.0376
13039TIP3   OH260607   1.699   1.709   4.144 -0.0089  0.1597  0.0785
13039TIP3    H160608   1.778   1.762   4.129  0.3655 -0.2345  0.6649
13039TIP3    H260609   1.656   1.751   4.218  0.2545 -0.3152  0.5023
13040TIP3   OH260610   2.972   5.952  14.347 -0.0350  0.6534  0.3231
13040TIP3    H160611   2.881   5.947  14.377 -0.7290 -0.7003 -1.8976
13040TIP3    H260612   3.019   5.888  14.400 -1.1316 -1.3172 -1.0204
13041TIP3   OH260613   4.864   2.066  11.709  0.0022 -0.1462 -0.3754
13041TIP3    H160614   4.794   2.025  11.759  0.1343 -0.8003 -0.7296
13041TIP3    H260615   4.923   2.102  11.776  0.5174 -1.5894 -0.0529
13042TIP3   OH260616   1.173   5.403  13.401 -0.9760 -0.1991 -0.0367
13042TIP3    H160617   1.211   5.342  13.338 -0.4825 -0.5317  0.5789
13042TIP3    H260618   1.192   5.490  13.365 -2.2762 -0.4043 -1.2618
13043TIP3   OH260619   3.711   3.641  12.972 -0.2906 -0.5979  0.2590
13043TIP3    H160620   3.729   3.658  12.880 -1.1606 -0.4806  0.1152
13043TIP3    H260621   3.651   3.566  12.973 -0.1263 -0.7306  0.7364
13044TIP3   OH260622   0.913   2.298  13.417 -0.1660 -0.3066 -0.3892
13044TIP3    H160623   0.849   2.227  13.423 -0.2822 -0.0464  1.5669
13044TIP3    H260624   0.998   2.253  13.414 -0.3138 -0.5672 -0.9027
13045TIP3   OH260625   2.486   3.116  13.920  0.3955  0.7404  0.5888
13045TIP3    H160626   2.408   3.099  13.866  0.7803  0.3275  0.1495
13045TIP3    H260627   2.552   3.057  13.884  1.7455  3.0593 -0.8692
13046TIP3   OH260628   2.304   0.007  13.206 -0.4220 -0.0279 -0.0379
13046TIP3    H160629   2.364   0.080  13.224  1.0448 -1.5780  1.4840
13046TIP3    H260630   2.231   0.021  13.266  1.4701 -1.6557  2.7534
13047TIP3   OH260631   3.611   3.301   4.138  0.2021  0.5812  0.4095
13047TIP3    H160632   3.607   3.205   4.134  0.1934  0.6028 -0.2225
13047TIP3    H260633   3.704   3.321   4.134  0.1695  0.6230 -0.2010
13048TIP3   OH260634   6.101   4.295  15.896  0.0049 -0.1914 -0.2800
13048TIP3    H160635   6.173   4.356  15.883 -0.7911  0.8530  0.1723
13048TIP3    H260636   6.035   4.321  15.831 -1.1365  0.6863  1.1979
13049TIP3   OH260637   5.000   1.012   5.290 -0.1585  0.3607  0.3689
13049TIP3    H160638   5.005   0.917   5.290  3.0621  0.4881 -1.0387
13049TIP3    H260639   4.962   1.035   5.205  0.2121  0.4047  0.2184
13050TIP3   OH260640   5.386   1.344   5.627 -0.3006 -0.0262 -0.1498
13050TIP3    H160641   5.320   1.371   5.564  0.1147 -0.2257 -0.6742
13050TIP3    H260642   5.425   1.427   5.657  1.8970 -0.0395 -2.7499
13051TIP3   OH260643   2.193   2.038   5.751  0.4784 -0.4156 -0.2145
13051TIP3    H160644   2.192   1.946   5.723  3.3695 -0.2762 -0.9430
13051TIP3    H260645   2.177   2.088   5.671 -0.0923 -0.2540 -0.0004
13052TIP3   OH260646   3.998   3.660  13.843 -0.1374  0.2960 -0.8037
13052TIP3    H160647   4.012   3.734  13.902  0.1890 -0.5465  0.1972
13052TIP3    H260648   4.082   3.650  13.797  1.1896 -1.9271  1.9478
13053TIP3   OH260649   5.036   5.473   5.483 -0.1250 -0.8749 -0.2944
13053TIP3    H160650   5.015   5.563   5.510  2.7157 -0.8883  2.1900
13053TIP3    H260651   5.091   5.484   5.406  2.5708 -0.3258  1.6544
13054TIP3   OH260652   1.396   3.310  14.565  0.0772 -0.0843  0.9776
13054TIP3    H160653   1.422   3.249  14.633 -0.5068  0.8617  2.0637
13054TIP3    H260654   1.302   3.295  14.552 -0.1381  0.7836  1.4733
13055TIP3   OH260655   2.146   1.883  16.536 -1.1311 -0.1549  0.3628
13055TIP3    H160656   2.151   1.975  16.560  2.6110 -0.4630  1.0234
13055TIP3    H260657   2.167   1.881  16.443 -3.2713 -0.1692 -0.1373
13056TIP3   OH260658   3.789   2.933   3.541  0.5235  0.0527  0.1277
13056TIP3    H160659   3.822   2.869   3.604  0.4036  0.9684  1.1213
13056TIP3    H260660   3.732   2.991   3.592  1.7946  1.8487 -0.4539
13057TIP3   OH260661   3.314   1.131  11.607  0.6083  1.0417 -0.1998
13057TIP3    H160662   3.397   1.087  11.627  0.4014 -0.1100 -1.8063
13057TIP3    H260663   3.332   1.224  11.624  0.7869  0.2958  4.0264
13058TIP3   OH260664   0.059   6.381  14.142  0.3098 -0.0859  0.1858
13058TIP3    H160665   0.099   6.424  14.066 -1.0067  0.8829  0.0162
13058TIP3    H260666   0.057   6.448  14.210 -2.4911  0.4566 -0.3362
13059TIP3   OH260667   4.599   3.592   1.438  0.0889  0.1545  0.0015
13059TIP3    H160668   4.647   3.651   1.380 -1.2600  0.5553 -0.7245
13059TIP3    H260669   4.650   3.511   1.437  1.5848  1.0798  0.4824
13060TIP3   OH260670   6.668   1.435   5.286  0.0305 -0.2681  0.9669
13060TIP3    H160671   6.612   1.512   5.288  0.6013  0.1354  1.5845
13060TIP3    H260672   6.608   1.361   5.276 -0.3767  0.4054 -1.9440
13061TIP3   OH260673   2.460   4.872   0.012 -0.7784 -0.3049 -0.2238
13061TIP3    H160674   2.468   4.872   0.107  1.7909 -0.4490 -0.3928
13061TIP3    H260675   2.530   4.929  -0.018  0.1750 -2.3782 -2.1114
13062TIP3   OH260676   3.208   3.427   4.817  0.5904  0.4264 -0.0957
13062TIP3    H160677   3.277   3.486   4.787  2.2701 -1.2141  0.4267
13062TIP3    H260678   3.172   3.390   4.736  2.3143 -0.8836 -0.2964
13063TIP3   OH260679   0.971   6.639   2.268 -0.4460 -0.0608 -0.0229
13063TIP3    H160680   0.924   6.669   2.189 -1.3241  1.0306  0.8942
13063TIP3    H260681   0.930   6.688   2.339 -0.4964 -1.9823  1.2786
13064TIP3   OH260682   6.483   3.810   0.239 -0.1787  0.1028  0.9067
13064TIP3    H160683   6.436   3.800   0.322 -1.3671  2.2018  0.5317
13064TIP3    H260684   6.552   3.874   0.258 -0.3712  0.4899  0.3159
13065TIP3   OH260685   6.073   2.563   2.806  0.2204  0.5086 -0.1442
13065TIP3    H160686   6.108   2.567   2.895  0.4728 -0.4808 -0.1925
13065TIP3    H260687   6.005   2.496   2.810 -0.6436  1.3568 -0.4050
13066TIP3   OH260688   2.465   3.220   0.388 -0.6219 -0.1481  0.0789
13066TIP3    H160689   2.374   3.240   0.366 -1.5182 -3.1430  0.9179
13066TIP3    H260690   2.463   3.198   0.481  0.7520 -1.4748 -0.1938
13067TIP3   OH260691   2.829   6.419   4.314 -0.5250  0.3442  0.2746
13067TIP3    H160692   2.801   6.335   4.349 -1.9201  0.0701 -1.4370
13067TIP3    H260693   2.850   6.402   4.222 -1.0205  1.8797 -0.1505
13068TIP3   OH260694   1.384   4.469   0.278 -0.1707  0.2751 -0.1494
13068TIP3    H160695   1.433   4.400   0.234  0.2850 -0.8621  2.0910
13068TIP3    H260696   1.294   4.456   0.250  0.1503 -0.2778 -0.9350
13069TIP3   OH260697   0.955   0.252  15.016  0.3135  0.8184 -0.0726
13069TIP3    H160698   0.962   0.156  15.010 -0.5198  0.7707 -0.3551
13069TIP3    H260699   1.035   0.279  15.061  1.3944  0.1478 -1.5267
13070TIP3   OH260700   0.068   6.099  14.166  0.4803 -0.3129  0.2457
13070TIP3    H160701  -0.024   6.083  14.143  0.7730 -1.9532  0.1626
13070TIP3    H260702   0.075   6.195  14.170 -1.8048 -0.1570  2.5484
13071TIP3   OH260703   1.931   4.799  14.920  0.1427 -0.1289 -0.1373
13071TIP3    H160704   1.966   4.838  14.840  1.1009 -0.7467 -0.0314
13071TIP3    H260705   1.970   4.850  14.991  3.4375 -2.7820  0.0966
13072TIP3   OH260706   1.288   1.524   4.725 -0.0672 -0.5407  0.0993
13072TIP3    H160707   1.331   1.478   4.797  0.9189  0.0622 -0.0961
13072TIP3    H260708   1.219   1.575   4.767  1.0104  0.4267  0.7245
13073TIP3   OH260709   6.343   0.607  13.527  0.2728  0.6152  0.0289
13073TIP3    H160710   6.327   0.516  13.554  1.6879  0.4655  0.4277
13073TIP3    H260711   6.421   0.602  13.470  0.0604  1.5117 -0.3520
13074TIP3   OH260712   4.323   6.092   2.763  0.3214 -0.1848  0.2532
13074TIP3    H160713   4.330   6.172   2.711 -0.7121  0.0928  0.5121
13074TIP3    H260714   4.411   6.055   2.764  0.5356  0.2798 -0.9381
13075TIP3   OH260715   2.014   3.326  12.351 -0.4318  0.2100  0.0514
13075TIP3    H160716   1.990   3.415  12.326 -0.8295  0.1591  0.2451
13075TIP3    H260717   2.030   3.331  12.446 -0.1853  0.1310  0.0148
13076TIP3   OH260718   2.917   5.772  12.645  0.7400  0.0878  0.1866
13076TIP3    H160719   2.983   5.723  12.695  0.0020  0.1052  1.1955
13076TIP3    H260720   2.904   5.720  12.566 -1.4133 -2.4288  2.0862
13077TIP3   OH260721   1.729   0.084  12.085  0.1255  0.1885 -0.8906
13077TIP3    H160722   1.722   0.005  12.032 -1.9448  0.7191 -1.4578
13077TIP3    H260723   1.748   0.153  12.022  0.6476  0.3392 -0.5632
13078TIP3   OH260724   1.745   5.842   0.143  0.2088 -0.3653 -0.0371
13078TIP3    H160725   1.839   5.849   0.126  0.0985 -0.6591 -0.7848
13078TIP3    H260726   1.738   5.769   0.204  0.5719  0.4417  0.9775
13079TIP3   OH260727   4.251   4.172  11.971  0.3923  0.2414 -0.2935
13079TIP3    H160728   4.296   4.088  11.978  0.9180  0.6749  2.2451
13079TIP3    H260729   4.252   4.207  12.061 -2.3368  1.6402 -0.7586
13080TIP3   OH260730   6.048   3.497   4.762  0.5398 -0.5788 -0.0266
13080TIP3    H160731   5.978   3.462   4.817  0.3932  0.7677  0.6676
13080TIP3    H260732   6.004   3.527   4.683  0.1413  1.1990  0.8242
13081TIP3   OH260733   3.321   3.294   1.916  0.1325 -0.1459 -0.2048
13081TIP3    H160734   3.340   3.200   1.913  0.6176 -0.0083 -1.4688
13081TIP3    H260735   3.401   3.333   1.952 -0.3518 -0.2789  1.0647
13082TIP3   OH260736   0.383   1.971  13.442 -0.5043  0.2990 -0.1204
13082TIP3    H160737   0.388   1.876  13.434 -0.2642  0.3524 -0.6307
13082TIP3    H260738   0.289   1.990  13.434 -0.4945  0.1551 -0.5812
13083TIP3   OH260739   3.943   0.862  11.740  0.0708  0.3821 -0.0990
13083TIP3    H160740   3.990   0.866  11.824  0.2518 -0.1921 -0.1717
13083TIP3    H260741   3.878   0.932  11.746  0.1592  0.4193  0.4777
13084TIP3   OH260742   0.169   5.710  14.173  0.0478  0.0015 -0.2354
13084TIP3    H160743   0.104   5.760  14.125  1.0206 -0.0678 -1.6418
13084TIP3    H260744   0.153   5.732  14.265 -0.9883  1.1275 -0.6730
13085TIP3   OH260745   2.775   0.063   5.535 -1.5246  0.9678  0.6096
13085TIP3    H160746   2.807   0.152   5.518 -0.2127 -0.0420 -2.4664
13085TIP3    H260747   2.840   0.025   5.593  0.2448  0.6053 -1.5680
13086TIP3   OH260748   1.875   3.548   0.201 -0.1504 -0.0217  0.0430
13086TIP3    H160749   1.827   3.582   0.126  3.3214  0.6948 -1.9628
13086TIP3    H260750   1.858   3.454   0.200 -1.5834  0.2376 -0.5278
13087TIP3   OH260751   4.538   3.901  13.980  0.8492  0.4375 -0.0802
13087TIP3    H160752   4.537   3.825  13.922  1.0653 -1.0300  1.7817
13087TIP3    H260753   4.463   3.953  13.952  0.5633 -0.5749 -1.2561
13088TIP3   OH260754   4.001   2.300   4.696  0.0100  0.3203 -0.1893
13088TIP3    H160755   3.982   2.241   4.623  0.0867 -0.8504  0.7355
13088TIP3    H260756   4.048   2.373   4.655  1.7326 -1.2193 -1.0157
13089TIP3   OH260757   0.840   5.718  13.696 -1.0301 -0.2846 -0.0757
13089TIP3    H160758   0.885   5.641  13.732 -0.4041 -0.2281 -0.7129
13089TIP3    H260759   0.759   5.724  13.746 -1.0330 -1.2954  0.0645
13090TIP3   OH260760   5.664   4.853   1.720  0.0682 -0.0665 -0.0138
13090TIP3    H160761   5.751   4.814   1.730 -0.2860 -0.5786  1.2018
13090TIP3    H260762   5.650   4.900   1.802 -1.1956 -0.7960  0.2051
13091TIP3   OH260763   2.096   5.549   0.549 -0.2075  0.0190 -0.4494
13091TIP3    H160764   2.079   5.545   0.643 -0.5335 -1.4853 -0.5595
13091TIP3    H260765   2.047   5.626   0.520 -0.1826  0.4417  0.5857
13092TIP3   OH260766   4.791   6.307  12.314  0.1428  0.7980  0.1766
13092TIP3    H160767   4.819   6.283  12.225  0.4418  1.1335  0.1840
13092TIP3    H260768   4.767   6.399  12.307  0.9803  1.0541  0.6473
13093TIP3   OH260769   2.645   1.659   1.387  0.0191 -0.4636  0.4485
13093TIP3    H160770   2.590   1.708   1.326  0.7186  0.2786  0.4021
13093TIP3    H260771   2.662   1.577   1.342 -0.6325 -0.4951  0.2465
13094TIP3   OH260772   0.164   5.904   1.429  0.2930 -0.7093  0.0492
13094TIP3    H160773   0.142   5.969   1.495  2.3861  0.4494 -0.3342
13094TIP3    H260774   0.082   5.857   1.412 -0.6682  0.1605  2.1456
13095TIP3   OH260775   2.989   6.395   2.413  0.5361 -1.0359  0.2303
13095TIP3    H160776   2.955   6.459   2.351  3.1924 -0.5833 -0.8150
13095TIP3    H260777   2.927   6.323   2.409 -1.1578  0.4232 -0.4118
13096TIP3   OH260778   0.720   3.172   5.383 -0.3696 -0.6096 -0.3863
13096TIP3    H160779   0.776   3.249   5.374  0.8381 -1.3272  0.8921
13096TIP3    H260780   0.762   3.119   5.451 -2.0241 -1.6623 -0.1572
13097TIP3   OH260781   2.980   4.236   0.031  0.2411 -0.4388  0.0178
13097TIP3    H160782   2.996   4.213  -0.061  0.2900 -0.3405  0.0030
13097TIP3    H260783   3.025   4.168   0.081 -0.7919 -1.1810 -0.0463
13098TIP3   OH260784   1.129   4.296   1.906  0.7119 -0.0067  0.4715
13098TIP3    H160785   1.103   4.388   1.915  0.8618 -0.1089  2.1611
13098TIP3    H260786   1.058   4.248   1.948 -0.0044 -0.7713 -1.5352
13099TIP3   OH260787   0.645   4.767  16.312 -0.0901 -0.3536  0.1988
13099TIP3    H160788   0.642   4.796  16.221  0.6515  1.5422  0.7535
13099TIP3    H260789   0.556   4.740  16.332 -0.6622  0.9590 -0.5505
13100TIP3   OH260790   2.165   2.242  16.043 -0.4106 -0.7750  0.3633
13100TIP3    H160791   2.170   2.239  16.139 -0.4310  0.1930  0.4026
13100TIP3    H260792   2.157   2.151  16.016  1.6175 -1.2211  1.1834
13101TIP3   OH260793   2.857   3.773  16.032  0.1659 -0.2686 -0.5099
13101TIP3    H160794   2.803   3.701  16.001  0.2990 -0.7830  0.4497
13101TIP3    H260795   2.936   3.769  15.978  0.0175 -0.6155 -0.7000
13102TIP3   OH260796   1.037   1.574  14.330  0.4365 -0.2270  0.2579
13102TIP3    H160797   1.107   1.509  14.339 -0.8465 -1.4288  1.8726
13102TIP3    H260798   1.043   1.603  14.238  1.6719 -1.8787 -0.2109
13103TIP3   OH260799   5.393   6.007  12.692 -0.3783 -0.4989  0.0029
13103TIP3    H160800   5.332   6.041  12.757 -0.2837  0.1151 -0.2298
13103TIP3    H260801   5.377   5.912  12.692 -1.4073 -0.3305 -0.1376
13104TIP3   OH260802   2.617   2.934   3.106  0.2629  0.2531 -0.1870
13104TIP3    H160803   2.645   2.952   3.016  1.2824 -0.0936  0.0574
13104TIP3    H260804   2.667   2.996   3.159 -2.1572  2.1710 -0.0659
13105TIP3   OH260805   3.952   5.117  16.044 -0.2846 -0.1252 -0.2666
13105TIP3    H160806   4.007   5.066  15.985 -1.0476 -0.6396 -0.5478
13105TIP3    H260807   3.878   5.060  16.063 -2.4618  1.7444 -2.6441
13106TIP3   OH260808   5.079   0.848   4.680 -0.2504 -0.3800 -0.0213
13106TIP3    H160809   5.039   0.785   4.741 -0.6101  0.3730  0.5319
13106TIP3    H260810   5.171   0.852   4.707 -0.6281  0.7191  1.1473
13107TIP3   OH260811   1.319   0.101  14.674  0.1653 -0.3021  0.1520
13107TIP3    H160812   1.223   0.095  14.671  0.1804 -0.4725  0.0274
13107TIP3    H260813   1.336   0.162  14.746 -0.1086  2.2284 -1.8493
13108TIP3   OH260814   2.333   1.322   6.510 -0.4300 -0.0835  0.2196
13108TIP3    H160815   2.324   1.382   6.584 -0.4178 -0.1520  0.2774
13108TIP3    H260816   2.368   1.376   6.439  0.3430 -0.2007  0.5072
13109TIP3   OH260817   2.814   0.545   4.830  0.4973 -0.2867 -0.2096
13109TIP3    H160818   2.876   0.607   4.868  0.6822 -0.1030 -0.8168
13109TIP3    H260819   2.729   0.589   4.840  0.2550 -1.1777  1.9854
13110TIP3   OH260820   6.739   6.502   0.456 -0.4201 -0.2530 -0.5054
13110TIP3    H160821   6.697   6.444   0.519  0.4752 -0.6483 -0.2690
13110TIP3    H260822   6.805   6.549   0.506 -0.6608  0.4660 -0.8489
13111TIP3   OH260823   0.931   0.921  12.405  0.3206 -0.2693  0.0461
13111TIP3    H160824   0.992   0.852  12.431 -1.5362 -2.3742 -0.9731
13111TIP3    H260825   0.932   0.918  12.309  0.0194  0.9572 -0.0012
13112TIP3   OH260826   0.469   5.365  11.189  0.1166 -0.2118  0.2436
13112TIP3    H160827   0.373   5.372  11.196 -0.0885  0.4133 -2.5185
13112TIP3    H260828   0.497   5.453  11.165  1.1244 -0.9416 -1.3028
13113TIP3   OH260829   1.118   6.814   0.318  0.0548 -0.7533 -0.1413
13113TIP3    H160830   1.151   6.736   0.274 -0.3879 -0.6156 -0.7198
13113TIP3    H260831   1.031   6.828   0.281  0.6010  0.7051 -0.9132
13114TIP3   OH260832   5.328   6.070   3.906 -0.0572 -0.4492  0.3399
13114TIP3    H160833   5.313   6.101   3.996 -0.6537 -1.2814  0.5352
13114TIP3    H260834   5.254   6.105   3.856  0.2187 -0.0746  0.1926
13115TIP3   OH260835   5.615   5.480  13.544  0.3672  0.2306 -0.1496
13115TIP3    H160836   5.697   5.431  13.553  1.3245  1.4897 -1.7596
13115TIP3    H260837   5.614   5.510  13.453 -2.1155 -0.1410 -0.2768
13116TIP3   OH260838   2.548   0.235   5.057 -0.4455 -0.0575  0.5634
13116TIP3    H160839   2.523   0.155   5.011 -0.3744 -0.5420  1.3570
13116TIP3    H260840   2.637   0.216   5.089  0.3392  1.0528 -0.8851
13117TIP3   OH260841   0.606   1.086   5.606  0.6074 -0.2610  0.5996
13117TIP3    H160842   0.663   1.134   5.667  0.3443  0.0273  0.6218
13117TIP3    H260843   0.666   1.045   5.544  0.8635 -0.3482  0.9071
13118TIP3   OH260844   6.165   5.061  16.850 -0.5790 -0.1515 -0.0774
13118TIP3    H160845   6.251   5.096  16.874 -1.0896  0.5772  0.7581
13118TIP3    H260846   6.177   5.022  16.764  0.5019  0.2830 -0.1263
13119TIP3   OH260847   5.838   3.244   3.597 -0.5011 -0.1008 -0.3142
13119TIP3    H160848   5.747   3.215   3.591 -0.3878 -0.6332  0.4356
13119TIP3    H260849   5.850   3.262   3.691  0.8616 -2.3283 -0.0378
13120TIP3   OH260850   4.119   6.124  16.916  0.3723 -0.0358  0.0062
13120TIP3    H160851   4.128   6.203  16.969  1.0656  0.4148 -0.7797
13120TIP3    H260852   4.195   6.070  16.939  0.2412 -0.1986  0.0652
13121TIP3   OH260853   2.899   4.580   0.840  0.3585 -0.0202  0.4014
13121TIP3    H160854   2.934   4.566   0.928 -0.3802  0.6103  0.8056
13121TIP3    H260855   2.822   4.523   0.836 -0.5190  1.1237  0.7319
13122TIP3   OH260856   6.680   3.430   4.285  0.0194 -0.2586  0.3593
13122TIP3    H160857   6.713   3.519   4.297 -0.5816  0.0612 -0.2997
13122TIP3    H260858   6.696   3.386   4.369  0.4079  0.4439  0.6493
13123TIP3   OH260859   2.395   1.083   4.815 -0.5487  0.8243 -0.1926
13123TIP3    H160860   2.487   1.109   4.816 -0.7525  1.5574  0.5842
13123TIP3    H260861   2.384   1.031   4.895 -0.3711 -0.8851 -1.2508
13124TIP3   OH260862   5.213   3.180  16.608  0.0358  0.6084 -0.2167
13124TIP3    H160863   5.218   3.085  16.618 -1.5484  0.5999  0.6269
13124TIP3    H260864   5.270   3.214  16.677  0.3387  0.2730 -0.3033
13125TIP3   OH260865   1.461   2.576  15.965  0.2885 -0.2346 -0.1955
13125TIP3    H160866   1.517   2.543  15.894 -1.7591  0.1182 -2.0158
13125TIP3    H260867   1.496   2.662  15.986  0.6799 -0.1958 -1.0163
13126TIP3   OH260868   0.986   6.442  10.473  0.0976  0.1340 -0.6168
13126TIP3    H160869   0.905   6.407  10.436  0.0599 -0.7523  0.2643
13126TIP3    H260870   1.056   6.408  10.417  0.0947 -1.7172  0.4359
13127TIP3   OH260871   2.747   3.144  15.843  0.4476 -0.3503 -0.1847
13127TIP3    H160872   2.680   3.152  15.912 -1.3551 -1.7687 -1.7032
13127TIP3    H260873   2.719   3.207  15.776  0.4177 -1.2229 -0.9987
13128TIP3   OH260874   4.420   1.282   1.776 -0.5205 -0.1396  0.0667
13128TIP3    H160875   4.476   1.234   1.838  0.9525  3.5021  1.6796
13128TIP3    H260876   4.339   1.299   1.825  0.4191  2.2325  0.8627
13129TIP3   OH260877   3.443   6.613  17.233  0.4854  0.1471 -0.0431
13129TIP3    H160878   3.534   6.587  17.220  0.8665  1.4795 -0.1556
13129TIP3    H260879   3.413   6.635  17.145  0.2288  0.2373  0.0675
13130TIP3   OH260880   3.300   5.385  11.764 -0.1586 -0.4313 -0.5297
13130TIP3    H160881   3.243   5.458  11.790  0.3700 -1.0221  2.4647
13130TIP3    H260882   3.245   5.331  11.707 -1.4275  0.9138 -0.6097
13131TIP3   OH260883   1.295   1.357   5.618 -0.5714 -0.6106  0.4956
13131TIP3    H160884   1.219   1.383   5.567 -0.8524 -2.7800 -0.2592
13131TIP3    H260885   1.322   1.273   5.580  1.3837 -0.5199  1.6115
13132TIP3   OH260886   0.594   0.087  14.396  0.0641 -0.4630  0.1346
13132TIP3    H160887   0.498   0.082  14.407  0.0372 -1.3070 -0.4446
13132TIP3    H260888   0.617   0.174  14.427 -0.6748 -0.9136  2.0544
13133TIP3   OH260889   2.119   4.047  15.390  0.1087 -0.5425  0.6172
13133TIP3    H160890   2.202   4.092  15.404  0.7072 -1.5256  0.2069
13133TIP3    H260891   2.060   4.115  15.358  0.0312  0.7433  3.3004
13134TIP3   OH260892   4.360   0.378  12.339  0.0334  0.0617 -0.1300
13134TIP3    H160893   4.417   0.401  12.266  0.3423  0.2622  0.1681
13134TIP3    H260894   4.399   0.298  12.375 -1.7051 -1.6247 -1.8848
13135TIP3   OH260895   2.853   4.998  12.905  0.2625 -0.9883  0.6323
13135TIP3    H160896   2.816   5.062  12.965  2.1454  0.7414  0.0259
13135TIP3    H260897   2.911   4.944  12.959  0.8130 -0.3775  0.6614
13136TIP3   OH260898   3.011   4.525  14.700 -0.3826  0.6462  0.0452
13136TIP3    H160899   2.947   4.506  14.631  0.2398 -0.5954 -0.2029
13136TIP3    H260900   2.998   4.618  14.720 -1.2658  0.7624 -1.0251
13137TIP3   OH260901   4.829   2.775   5.644 -0.4405  0.0967  0.2707
13137TIP3    H160902   4.799   2.686   5.661  3.1441 -1.0757  0.9321
13137TIP3    H260903   4.800   2.825   5.720  1.7303 -1.6520  2.3506
13138TIP3   OH260904   1.084   4.036   5.319  0.1002 -0.2133 -0.1645
13138TIP3    H160905   0.991   4.049   5.335 -0.0620  0.4255 -1.6200
13138TIP3    H260906   1.126   4.112   5.358  0.0173 -0.5017  0.4923
13139TIP3   OH260907   4.286   1.210   0.870  0.3157  1.1021  0.2517
13139TIP3    H160908   4.376   1.198   0.840 -0.8718 -1.7202 -2.5985
13139TIP3    H260909   4.279   1.303   0.891  2.8160  2.2670 -3.4779
13140TIP3   OH260910   2.524   2.039   0.803  0.2693  0.1490  0.0436
13140TIP3    H160911   2.577   2.112   0.773 -0.4826 -0.3925 -2.7450
13140TIP3    H260912   2.446   2.041   0.747 -1.0626 -1.1024  1.7865
13141TIP3   OH260913   4.214   5.288  11.775  0.0941 -0.3858 -0.0323
13141TIP3    H160914   4.222   5.375  11.736 -1.4342  0.4983  1.5689
13141TIP3    H260915   4.124   5.284  11.808  1.0360 -1.4625  2.5004
13142TIP3   OH260916   3.841   3.851  15.793 -0.3430 -0.5913  0.1702
13142TIP3    H160917   3.750   3.865  15.817 -1.3441 -1.9568 -2.6204
13142TIP3    H260918   3.865   3.928  15.741 -0.0475 -0.4410  0.5297
13143TIP3   OH260919   2.998   4.248  14.399 -0.1843 -0.2354  0.3388
13143TIP3    H160920   3.033   4.252  14.310 -1.8174 -0.9162 -0.3666
13143TIP3    H260921   2.904   4.235  14.386 -0.4331 -0.3173  2.1728
13144TIP3   OH260922   1.301   1.703  12.298  0.2363  0.6596 -0.5250
13144TIP3    H160923   1.210   1.688  12.322  0.2422 -0.4909 -1.1782
13144TIP3    H260924   1.307   1.672  12.207  1.2783  0.7108 -0.4767
13145TIP3   OH260925   0.799   5.975  16.586  0.1997  0.6565 -0.9605
13145TIP3    H160926   0.789   6.069  16.602 -0.0530  0.5470 -0.4786
13145TIP3    H260927   0.876   5.950  16.637 -0.7675  0.2544  0.3377
13146TIP3   OH260928   2.274   5.032   2.910  0.2821  0.2032  0.1166
13146TIP3    H160929   2.358   5.061   2.945  0.4377  0.4473 -0.4508
13146TIP3    H260930   2.220   5.112   2.909 -0.1604 -0.0843  1.0760
13147TIP3   OH260931   3.506   4.999   5.283  0.1165  0.0282  0.3439
13147TIP3    H160932   3.465   4.913   5.275  2.0315 -1.2641  3.4996
13147TIP3    H260933   3.453   5.046   5.348 -0.2896  0.8672 -0.5709
13148TIP3   OH260934   1.767   3.714   3.162 -0.4603 -0.4689  0.0040
13148TIP3    H160935   1.766   3.665   3.245  0.1595 -0.1323  0.2155
13148TIP3    H260936   1.684   3.762   3.162 -0.7191 -0.9043  0.1630
13149TIP3   OH260937   0.649   6.018  17.272 -0.6438 -0.4548 -0.5848
13149TIP3    H160938   0.617   6.106  17.253 -1.8930 -0.7008  0.2832
13149TIP3    H260939   0.569   5.965  17.281  0.0640 -1.4917 -0.2623
13150TIP3   OH260940   5.005   6.153  12.850 -0.2142 -0.2782  0.2125
13150TIP3    H160941   4.918   6.184  12.826  0.7803  1.6351 -1.0300
13150TIP3    H260942   5.051   6.230  12.883  1.1665 -1.1499  0.3896
13151TIP3   OH260943   0.854   0.010  15.532  0.4416 -0.3356 -0.0365
13151TIP3    H160944   0.787  -0.054  15.508 -0.9688  1.2815 -0.5312
13151TIP3    H260945   0.863   0.000  15.627 -1.3302  0.1865  0.2147
13152TIP3   OH260946   4.155   1.313  12.371  0.1766 -0.1506 -0.3608
13152TIP3    H160947   4.183   1.289  12.459 -2.3154  0.0499  0.5375
13152TIP3    H260948   4.173   1.235  12.318  2.4520  0.0209  0.1145
13153TIP3   OH260949   4.188   1.754  13.893 -0.4958  0.1159  0.1249
13153TIP3    H160950   4.200   1.800  13.977  2.4693 -0.8924  0.3283
13153TIP3    H260951   4.124   1.686  13.912 -0.8564  0.7384  1.2208
13154TIP3   OH260952   4.643   6.743   2.812 -0.1176  0.6593  0.1522
13154TIP3    H160953   4.644   6.665   2.868  2.1803 -0.0452 -0.8030
13154TIP3    H260954   4.554   6.777   2.819 -1.3626 -2.4293  0.0776
13155TIP3   OH260955   0.594   1.598   0.590  0.0878  0.1794  0.2494
13155TIP3    H160956   0.597   1.625   0.682 -1.1507  0.8490  0.1043
13155TIP3    H260957   0.510   1.631   0.558 -0.1984 -1.4294 -0.7020
13156TIP3   OH260958   0.097   0.169  12.924  0.4836  0.7800  0.5851
13156TIP3    H160959   0.174   0.163  12.867 -0.2216 -0.8294 -0.2382
13156TIP3    H260960   0.050   0.246  12.892  0.2063  0.0124 -0.9029
13157TIP3   OH260961   4.170   2.146  11.480  0.6116  0.5977  0.0742
13157TIP3    H160962   4.114   2.213  11.441  0.7839  0.8702  0.2966
13157TIP3    H260963   4.137   2.135  11.569 -0.9098 -1.2847 -0.6920
13158TIP3   OH260964   1.830   2.497  17.245 -0.5974  0.0734  0.5849
13158TIP3    H160965   1.857   2.563  17.309 -0.1268  1.0319 -0.5991
13158TIP3    H260966   1.905   2.489  17.186 -1.2935 -0.3237 -0.2478
13159TIP3   OH260967   3.801   1.979  11.571 -1.0331 -0.4614  0.1763
13159TIP3    H160968   3.894   1.955  11.569 -1.1235 -0.7277 -2.4184
13159TIP3    H260969   3.775   1.979  11.479 -3.0794  1.6850  0.7230
13160TIP3   OH260970   3.533   2.789  12.443  0.5041  1.0862  0.8042
13160TIP3    H160971   3.469   2.859  12.425  0.7730  0.8208 -1.3888
13160TIP3    H260972   3.612   2.818  12.398  0.4361 -0.9075 -0.6386
13161TIP3   OH260973   0.519   2.449   3.295  0.3701  0.3709 -0.7038
13161TIP3    H160974   0.434   2.417   3.264  0.1886 -0.5995  0.7506
13161TIP3    H260975   0.510   2.545   3.292 -0.2994  0.2919 -1.8047
13162TIP3   OH260976   4.563   5.055  13.377  0.4783  0.0741 -0.0501
13162TIP3    H160977   4.587   5.110  13.452 -0.2271  0.1544  0.1160
13162TIP3    H260978   4.486   5.006  13.407  0.4797 -0.2389 -0.5586
13163TIP3   OH260979   5.259   3.677   3.571 -0.5432 -0.4969 -0.3464
13163TIP3    H160980   5.190   3.702   3.632 -2.3709  0.3354 -2.6988
13163TIP3    H260981   5.244   3.584   3.555 -1.2923 -0.2742 -1.0088
13164TIP3   OH260982   0.169   5.853   1.806  0.2712  0.0400  0.1784
13164TIP3    H160983   0.152   5.888   1.893 -1.4933 -1.6161  0.5641
13164TIP3    H260984   0.150   5.925   1.747 -0.4961  0.5871  1.0774
13165TIP3   OH260985   3.126   3.558  11.206  0.2548 -0.4279  0.9002
13165TIP3    H160986   3.125   3.552  11.302  0.5767 -0.1144  0.9257
13165TIP3    H260987   3.037   3.539  11.179 -0.2968  1.3826  1.3782
13166TIP3   OH260988   4.917   1.129  11.273 -0.1066  0.1968 -0.0582
13166TIP3    H160989   4.977   1.093  11.208 -0.1510  0.4092 -0.2145
13166TIP3    H260990   4.946   1.091  11.356 -0.2676 -0.3546 -0.2490
13167TIP3   OH260991   4.851   0.714   2.778 -0.3364 -0.7313 -0.2201
13167TIP3    H160992   4.827   0.653   2.848 -0.1542 -1.1064 -0.4835
13167TIP3    H260993   4.918   0.668   2.728  0.5616  0.0951  0.1901
13168TIP3   OH260994   0.611   2.795  15.184 -0.0350  0.2539  0.3466
13168TIP3    H160995   0.644   2.742  15.256 -0.8437  0.3071  0.7709
13168TIP3    H260996   0.688   2.817  15.132  0.8450  1.8191  2.2570
13169TIP3   OH260997   0.422   6.311   2.948  0.0873 -0.2058 -0.2473
13169TIP3    H160998   0.415   6.325   2.853 -0.6742  1.2967  0.0206
13169TIP3    H260999   0.441   6.397   2.984 -1.0560 -0.5081  1.1069
13170TIP3   OH261000   3.249   2.805   0.098  0.4291 -0.3423  0.5829
13170TIP3    H161001   3.292   2.877   0.053 -0.2440 -0.5133 -0.3273
13170TIP3    H261002   3.251   2.830   0.191  1.1933  0.3149  0.3944
13171TIP3   OH261003   0.104   4.906   5.291 -0.1265  0.7943 -0.3185
13171TIP3    H161004   0.166   4.934   5.359 -1.5813  0.9217  0.9875
13171TIP3    H261005   0.153   4.844   5.238  0.2864 -1.3678  2.4333
13172TIP3   OH261006   3.255   0.738   3.080 -0.2703 -0.1789 -0.1883
13172TIP3    H161007   3.166   0.759   3.109 -0.6559 -0.3789 -1.2024
13172TIP3    H261008   3.310   0.805   3.121 -0.8577 -0.1490  0.5790
13173TIP3   OH261009   5.450   5.458   3.262  0.2987 -0.3590  0.0744
13173TIP3    H161010   5.499   5.459   3.180 -0.8596  1.2784 -0.5987
13173TIP3    H261011   5.499   5.516   3.320 -0.6182  0.9777 -0.4772
13174TIP3   OH261012   4.059   6.759  12.039 -0.2705  0.0080  0.7334
13174TIP3    H161013   4.037   6.830  12.099 -0.4518 -1.1279  2.0438
13174TIP3    H261014   4.107   6.696  12.093  1.3249 -0.1196 -0.7903
13175TIP3   OH261015   2.911   2.022  12.959  0.2599  0.5648 -0.3807
13175TIP3    H161016   2.863   1.984  13.032 -0.7244  2.0678 -0.1993
13175TIP3    H261017   2.918   2.115  12.981  0.0400  1.0204 -2.1252
13176TIP3   OH261018   4.398   2.815  15.552 -0.3529 -0.1799  0.0125
13176TIP3    H161019   4.333   2.865  15.602  0.6006  1.6742 -0.5439
13176TIP3    H261020   4.350   2.782  15.477 -1.6838 -2.5662  1.8398
13177TIP3   OH261021   6.378   2.363  13.743  0.3596  0.0871 -0.9764
13177TIP3    H161022   6.328   2.346  13.663 -2.5293 -1.6425  1.0894
13177TIP3    H261023   6.415   2.278  13.767  1.4751  0.6638 -0.6470
13178TIP3   OH261024   1.256   3.057  12.989 -0.3014 -0.4805 -0.1654
13178TIP3    H161025   1.246   3.099  12.904 -1.7469 -3.5550 -1.5965
13178TIP3    H261026   1.173   3.073  13.034 -0.4119 -0.8277 -0.2473
13179TIP3   OH261027   3.894   5.560   1.505 -0.0203 -0.3039 -0.3922
13179TIP3    H161028   3.886   5.643   1.457 -3.7770 -0.3900 -0.0018
13179TIP3    H261029   3.927   5.499   1.439  1.0571  1.0293 -1.1474
13180TIP3   OH261030   3.047   4.505  11.504  0.2518 -0.2700  0.2220
13180TIP3    H161031   3.066   4.451  11.426  0.3877  1.5043 -1.0032
13180TIP3    H261032   2.953   4.524  11.498  0.4745  0.7724 -0.1187
13181TIP3   OH261033   0.986   4.998  11.091  0.5231 -0.5699  0.4484
13181TIP3    H161034   1.047   4.987  11.164 -0.9652 -1.9490  1.5463
13181TIP3    H261035   1.025   4.947  11.020  2.0237  0.8441  0.2327
13182TIP3   OH261036   0.505   0.474  13.937 -0.1240  0.6422 -0.4219
13182TIP3    H161037   0.430   0.463  13.878  0.6626 -2.1221 -0.9476
13182TIP3    H261038   0.582   0.464  13.881  0.6315 -0.4920  0.7932
13183TIP3   OH261039   5.745   3.932   0.137  0.1300 -0.1093  0.6277
13183TIP3    H161040   5.800   3.984   0.196  0.5688  0.4164 -0.2219
13183TIP3    H261041   5.656   3.960   0.156  0.3170  0.4911  0.6352
13184TIP3   OH261042   5.679   2.245   5.497  0.1759 -0.4528  1.1188
13184TIP3    H161043   5.584   2.251   5.503  0.1656 -1.6193  2.3644
13184TIP3    H261044   5.698   2.267   5.406 -1.0035  2.7258  1.5638
13185TIP3   OH261045   1.165   6.450  12.272  0.7708 -0.6655 -0.0022
13185TIP3    H161046   1.175   6.545  12.277  0.2059 -0.6567  1.1432
13185TIP3    H261047   1.119   6.435  12.189 -1.0481  0.2362  0.8111
13186TIP3   OH261048   1.269   0.272  16.702 -0.1375 -0.4276  0.2988
13186TIP3    H161049   1.311   0.222  16.632  0.0067  1.8865 -1.3612
13186TIP3    H261050   1.310   0.240  16.782  0.9413 -1.9581 -0.8308
13187TIP3   OH261051   3.441   6.518  15.805 -0.0434  0.3568 -0.5817
13187TIP3    H161052   3.471   6.517  15.714  0.1113  0.1488 -0.5283
13187TIP3    H261053   3.387   6.440  15.814  1.8195 -0.8896  0.1317
13188TIP3   OH261054   4.585   3.883   2.880 -0.4399 -0.0989  0.3065
13188TIP3    H161055   4.572   3.884   2.975  1.7135  0.9470  0.6283
13188TIP3    H261056   4.527   3.952   2.847 -0.7043 -0.0188  0.9326
13189TIP3   OH261057   1.218   0.501  13.053  0.6003 -0.2181 -0.2449
13189TIP3    H161058   1.200   0.440  12.982  0.0955  0.3569 -0.6158
13189TIP3    H261059   1.274   0.452  13.113  0.0466 -1.1032 -0.4426
13190TIP3   OH261060   1.002   3.625   0.706 -0.2669  0.3485 -0.1929
13190TIP3    H161061   0.932   3.677   0.746 -0.7647 -0.1786 -0.3764
13190TIP3    H261062   0.970   3.535   0.710  0.1994  0.1621 -0.7101
13191TIP3   OH261063   3.938   3.681  10.770 -0.0389 -0.0761  0.3011
13191TIP3    H161064   3.985   3.654  10.691 -1.1344 -0.0640 -0.3668
13191TIP3    H261065   4.006   3.713  10.829  0.4662  3.5032 -2.0551
13192TIP3   OH261066   6.793   6.069   0.046 -0.2809 -0.4898 -0.1697
13192TIP3    H161067   6.866   6.036   0.099 -0.2783 -1.4720 -0.7756
13192TIP3    H261068   6.822   6.058  -0.044  0.2626  2.4248 -0.3847
13193TIP3   OH261069   6.471   2.308   4.728 -0.9025 -0.0936 -0.1301
13193TIP3    H161070   6.498   2.323   4.818  1.2756  0.0437 -0.7844
13193TIP3    H261071   6.551   2.319   4.676 -1.9932 -0.7526 -2.0180
13194TIP3   OH261072   1.508   5.889  13.183 -0.3237  0.2491 -0.0328
13194TIP3    H161073   1.520   5.800  13.215  2.5488  0.1172 -1.2966
13194TIP3    H261074   1.431   5.883  13.125  0.0701 -1.4836 -0.4104
13195TIP3   OH261075   6.570   6.168   6.335 -0.1161 -0.1481  0.1820
13195TIP3    H161076   6.572   6.255   6.296  0.3450 -0.4733 -0.5210
13195TIP3    H261077   6.638   6.170   6.403  0.8975 -0.4142 -0.8104
13196TIP3   OH261078   6.308   6.793  15.579  0.0269 -0.8617  0.0019
13196TIP3    H161079   6.258   6.826  15.505 -0.8086 -4.0376 -0.9419
13196TIP3    H261080   6.244   6.780  15.648  0.5952  0.8969  0.8701
13197TIP3   OH261081   0.199   1.222  14.370 -0.2024  0.0491  0.4718
13197TIP3    H161082   0.184   1.204  14.277  0.0621 -0.3368  0.4992
13197TIP3    H261083   0.112   1.225  14.409 -0.3559  0.9108  0.0903
13198TIP3   OH261084   4.191   1.552  14.179 -0.0056  0.4092  0.5640
13198TIP3    H161085   4.170   1.523  14.268  1.6239  0.5136  1.0005
13198TIP3    H261086   4.270   1.504  14.156  0.1035  1.0664 -0.4713
13199TIP3   OH261087   4.137   0.027   3.559  0.1947 -0.2861  0.0705
13199TIP3    H161088   4.088   0.085   3.501  0.6290  0.4239  0.4019
13199TIP3    H261089   4.098   0.041   3.645 -0.3915 -1.2703 -0.0325
13200TIP3   OH261090   6.813   0.273   5.274 -0.3488 -0.2480  0.1044
13200TIP3    H161091   6.753   0.314   5.336 -1.0904 -0.3936 -0.5080
13200TIP3    H261092   6.895   0.265   5.322  0.0215  2.5391  0.0345
13201TIP3   OH261093   5.657   2.707   6.346 -0.0595 -0.2592  0.7326
13201TIP3    H161094   5.742   2.745   6.368  0.4898 -0.7052 -0.5788
13201TIP3    H261095   5.676   2.616   6.324 -1.0456 -0.6780  1.5886
13202TIP3   OH261096   1.057   1.731  12.998 -0.4424 -0.4081 -0.8173
13202TIP3    H161097   1.026   1.821  12.988 -3.3994 -1.2234  0.2677
13202TIP3    H261098   1.120   1.734  13.069 -0.6175  0.7983 -0.7124
13203TIP3   OH261099   5.364   2.370  13.564  0.0698  0.0377 -0.1873
13203TIP3    H161100   5.354   2.384  13.658  2.8516  1.5819 -0.0768
13203TIP3    H261101   5.454   2.340  13.553 -0.3900 -0.6811 -2.3075
13204TIP3   OH261102   5.639   5.998   2.393  0.5158 -0.5477 -0.2535
13204TIP3    H161103   5.688   5.924   2.358 -0.1676 -1.2550  0.2736
13204TIP3    H261104   5.599   6.039   2.316  0.2322 -1.2073 -0.4634
13205TIP3   OH261105   4.901   3.506   1.137  0.4162  0.2721 -0.0462
13205TIP3    H161106   4.970   3.506   1.204  1.5227  1.0889 -1.1526
13205TIP3    H261107   4.947   3.526   1.055 -0.9793 -0.2634 -0.9879
13206TIP3   OH261108   1.200   2.302   5.807  0.2080  0.5097 -0.5004
13206TIP3    H161109   1.134   2.295   5.738 -1.1093  1.1454  0.6567
13206TIP3    H261110   1.162   2.255   5.881  1.1234  0.7540  0.1367
13207TIP3   OH261111   3.324   0.463  11.827 -0.4730 -0.3879 -0.3569
13207TIP3    H161112   3.253   0.417  11.782  0.1536 -1.9220  0.2126
13207TIP3    H261113   3.301   0.456  11.920  0.8224 -1.5811 -0.1160
13208TIP3   OH261114   6.630   3.201  12.619 -0.2976  0.5185 -0.0971
13208TIP3    H161115   6.585   3.174  12.699  1.4400 -0.5324  0.5273
13208TIP3    H261116   6.701   3.139  12.608  0.9621  2.1012 -1.1599
13209TIP3   OH261117   1.510   4.371   2.370  0.4224  0.1604  0.3584
13209TIP3    H161118   1.443   4.437   2.387  1.1229  0.4835  1.9223
13209TIP3    H261119   1.494   4.343   2.280  0.2378  2.5891 -0.4012
13210TIP3   OH261120   0.021   1.785   0.224  0.3736  0.2579  0.3016
13210TIP3    H161121  -0.024   1.869   0.213  0.2602  0.3658  1.5077
13210TIP3    H261122   0.110   1.801   0.192  0.5420  1.0287  1.1607
13211TIP3   OH261123   0.677   1.644  16.873  0.1574  0.0970  0.2047
13211TIP3    H161124   0.716   1.653  16.786  3.1337 -1.2856  1.3326
13211TIP3    H261125   0.687   1.730  16.913  1.7412 -0.1448  0.3456
13212TIP3   OH261126   0.477   1.364  13.621 -0.0635 -0.2128  0.2741
13212TIP3    H161127   0.444   1.400  13.703 -1.9855 -1.2912 -0.0057
13212TIP3    H261128   0.564   1.331  13.643 -0.1736  0.3772  1.6366
13213TIP3   OH261129   2.683   2.112   5.835 -0.3503 -0.3115  0.0882
13213TIP3    H161130   2.598   2.155   5.846  0.3804  1.3335 -0.5412
13213TIP3    H261131   2.743   2.183   5.814  1.1684 -1.4805  0.4011
13214TIP3   OH261132   4.663   0.935   4.937  0.4191  0.7014 -0.2460
13214TIP3    H161133   4.601   0.921   5.008  1.1434  1.2590  0.5072
13214TIP3    H261134   4.683   0.847   4.904  0.1028  0.4432  0.2512
13215TIP3   OH261135   4.300   6.514  14.729 -0.3050  0.2316 -0.0808
13215TIP3    H161136   4.327   6.519  14.637  1.4576 -0.9200  0.3534
13215TIP3    H261137   4.361   6.571  14.775 -0.5533  0.0228  0.5073
13216TIP3   OH261138   6.026   0.877   1.505  0.0016  0.0826  0.3050
13216TIP3    H161139   6.107   0.872   1.556 -0.4555 -0.2991  0.9954
13216TIP3    H261140   5.979   0.951   1.543 -0.3202 -0.1746  0.4013
13217TIP3   OH261141   1.417   1.622   6.052 -0.0245 -0.7486 -0.4905
13217TIP3    H161142   1.416   1.636   5.958  1.4866  1.3524 -0.2262
13217TIP3    H261143   1.507   1.594   6.071 -0.3582 -1.3119  0.3158
13218TIP3   OH261144   4.333   5.296   3.736  0.1056 -0.5848 -0.2957
13218TIP3    H161145   4.356   5.326   3.824 -0.5032 -1.5843  0.2302
13218TIP3    H261146   4.406   5.323   3.681  0.0969  0.8164  0.3538
13219TIP3   OH261147   6.587   3.271   4.878 -0.3585 -0.6991  0.0887
13219TIP3    H161148   6.659   3.236   4.932  0.0858 -0.0144 -0.0488
13219TIP3    H261149   6.625   3.280   4.791 -0.5189 -0.0352  0.0853
13220TIP3   OH261150   0.820   4.235   1.186 -0.0308 -1.0233  0.6422
13220TIP3    H161151   0.877   4.308   1.211  0.4211 -1.5721  1.2330
13220TIP3    H261152   0.878   4.175   1.138 -0.2671 -1.2626  0.6532
13221TIP3   OH261153   2.583   2.323  11.847 -0.1299 -0.3108 -0.9018
13221TIP3    H161154   2.552   2.241  11.809  0.4881 -1.5476  1.1338
13221TIP3    H261155   2.664   2.342  11.801  0.5613 -1.7307 -0.3002
13222TIP3   OH261156   4.976   0.513  15.215 -0.0661  0.8652  0.1484
13222TIP3    H161157   4.949   0.457  15.141 -0.1733  2.0994 -0.7626
13222TIP3    H261158   5.021   0.587  15.174  3.0670 -0.1664  1.5113
13223TIP3   OH261159   0.602   4.348  16.005 -0.5552 -1.1068  0.2259
13223TIP3    H161160   0.535   4.416  16.010 -2.7271 -3.1772  0.1741
13223TIP3    H261161   0.591   4.310  15.918 -0.0102 -2.1579  0.6139
13224TIP3   OH261162   5.303   0.806  12.433  0.1406 -0.0917  0.1296
13224TIP3    H161163   5.389   0.789  12.396  0.8882  0.0813  1.7406
13224TIP3    H261164   5.313   0.787  12.526 -1.3625  0.6508  0.4582
13225TIP3   OH261165   3.658   6.390  12.560 -0.0155 -0.5310 -0.1921
13225TIP3    H161166   3.713   6.443  12.502  0.9964 -1.1095  0.2215
13225TIP3    H261167   3.570   6.398  12.525  0.2879  0.6821 -0.6716
13226TIP3   OH261168   5.619   3.559   3.467 -0.0920 -0.3071 -1.1022
13226TIP3    H161169   5.700   3.611   3.467 -0.1523 -0.2095 -2.5111
13226TIP3    H261170   5.566   3.597   3.398 -2.0771  0.7193  0.9145
13227TIP3   OH261171   3.639   4.033  11.653  0.4768  0.0060 -0.4078
13227TIP3    H161172   3.643   4.088  11.575  2.4930 -0.9447 -0.9940
13227TIP3    H261173   3.567   3.972  11.636 -1.8866  2.4922  0.3200
13228TIP3   OH261174   5.493   6.311  12.304 -0.4352  0.1194  0.2878
13228TIP3    H161175   5.454   6.295  12.218  1.3100 -0.4260 -0.4146
13228TIP3    H261176   5.586   6.324  12.287 -0.4514  2.4997  1.8310
13229TIP3   OH261177   4.866   2.253  15.773 -0.4157 -0.1097  0.1380
13229TIP3    H161178   4.864   2.162  15.802  0.3336 -0.3681 -0.5919
13229TIP3    H261179   4.840   2.304  15.850  0.0269 -0.8848  0.8012
13230TIP3   OH261180   4.734   5.704   2.440 -0.6149 -0.2578  0.3504
13230TIP3    H161181   4.749   5.610   2.447 -1.4537 -0.2422  2.5253
13230TIP3    H261182   4.662   5.722   2.500 -1.1322  1.6312 -0.7779
13231TIP3   OH261183   5.419   5.652   5.787  0.0891  0.4236 -0.1818
13231TIP3    H161184   5.395   5.744   5.791 -0.1683  0.3850 -0.6992
13231TIP3    H261185   5.376   5.612   5.863 -1.9103  0.2684 -1.3514
13232TIP3   OH261186   6.176   1.036  12.676  0.6109  0.0604  0.0465
13232TIP3    H161187   6.162   1.012  12.585 -1.5915  1.2667  0.0189
13232TIP3    H261188   6.223   1.119  12.672  1.5557 -0.4674  0.0414
13233TIP3   OH261189   0.502   4.221   4.582  0.3081 -0.2707 -0.1986
13233TIP3    H161190   0.465   4.282   4.646  0.9106 -0.0109 -0.0957
13233TIP3    H261191   0.434   4.155   4.570  0.0923 -0.1828  0.5265
13234TIP3   OH261192   6.751   0.666  13.125 -0.3560  0.4423  0.3923
13234TIP3    H161193   6.815   0.595  13.132  0.3750  0.8858 -1.5134
13234TIP3    H261194   6.693   0.639  13.055 -0.1802  1.6383 -0.2325
13235TIP3   OH261195   1.279   2.237  15.212 -0.0861 -0.7775 -0.3260
13235TIP3    H161196   1.190   2.271  15.210  0.0669 -0.1963  1.8592
13235TIP3    H261197   1.303   2.228  15.120 -1.6685  0.9667 -0.9406
13236TIP3   OH261198   2.347   3.686  14.604 -0.2562  0.4326 -0.1134
13236TIP3    H161199   2.382   3.715  14.520 -1.4477  2.4443  0.0325
13236TIP3    H261200   2.284   3.617  14.582  1.1762 -0.7241 -0.6496
13237TIP3   OH261201   4.043   3.001   1.208 -0.8757  0.5104 -0.3065
13237TIP3    H161202   4.078   3.082   1.246 -2.2810  0.4136  1.2078
13237TIP3    H261203   4.008   3.028   1.123 -0.8333  1.3911 -0.0489
13238TIP3   OH261204   4.110   3.993   4.491 -0.2353 -0.2146  0.4704
13238TIP3    H161205   4.112   3.953   4.404  0.7184  2.1793 -0.6364
13238TIP3    H261206   4.201   3.992   4.521 -0.5090 -0.7249  1.3126
13239TIP3   OH261207   5.419   4.847  17.250 -0.3139 -0.0515  0.1304
13239TIP3    H161208   5.483   4.780  17.225 -1.7583 -1.4349  0.0769
13239TIP3    H261209   5.339   4.823  17.203 -1.0619  1.3010  0.6737
13240TIP3   OH261210   5.922   6.720   2.405 -0.1700  0.0690  0.4316
13240TIP3    H161211   5.957   6.796   2.451  2.3800 -0.9580  0.2700
13240TIP3    H261212   5.897   6.659   2.475  0.9202 -0.2958  0.5030
13241TIP3   OH261213   5.110   2.548   6.370  0.0411 -0.6048 -0.0508
13241TIP3    H161214   5.098   2.631   6.417 -1.4354 -0.4611 -0.6471
13241TIP3    H261215   5.204   2.542   6.355  0.1934  0.8006  0.2822
13242TIP3   OH261216   0.924   6.517  17.097  0.4688  0.2333 -0.4898
13242TIP3    H161217   0.981   6.454  17.053 -2.7112 -3.2808  0.1158
13242TIP3    H261218   0.926   6.491  17.189 -0.5151  1.3199 -0.1474
13243TIP3   OH261219   2.795   3.090   1.412 -0.7861  0.2470  0.0747
13243TIP3    H161220   2.863   3.054   1.469 -0.8838 -1.3732 -0.8168
13243TIP3    H261221   2.716   3.040   1.434 -1.2927  0.9730 -0.0856
13244TIP3   OH261222   0.176   1.393   3.978  0.1914  0.0039  0.2203
13244TIP3    H161223   0.198   1.444   4.056  1.3453  0.1374 -0.1651
13244TIP3    H261224   0.139   1.457   3.917  0.3141  0.1112  0.2585
13245TIP3   OH261225   3.327   4.333  10.434 -0.3867 -0.0519  0.0652
13245TIP3    H161226   3.264   4.306  10.367  1.7764  0.2915 -2.1650
13245TIP3    H261227   3.394   4.265  10.434  0.8479  1.1413  0.2086
13246TIP3   OH261228   4.899   3.454   5.397 -0.2694 -0.6239 -0.1172
13246TIP3    H161229   4.811   3.426   5.420  0.2247 -1.3264  0.9603
13246TIP3    H261230   4.894   3.477   5.305 -1.8189  0.3252  0.1974
13247TIP3   OH261231   5.046   2.389  16.978  0.1494 -0.2523 -0.0553
13247TIP3    H161232   5.037   2.316  16.917 -0.6544 -0.6210  0.4897
13247TIP3    H261233   5.103   2.452  16.933  0.9912 -1.2903 -0.4590
13248TIP3   OH261234   3.034   0.087  15.825 -0.1726  0.8389  0.7707
13248TIP3    H161235   2.954   0.125  15.789  0.6404  0.6802 -1.2863
13248TIP3    H261236   3.068   0.154  15.884  0.6861  2.9565 -2.0232
13249TIP3   OH261237   2.585   5.053   6.486 -0.0285  0.2407 -0.2078
13249TIP3    H161238   2.664   5.021   6.529 -0.4571 -0.0225  0.3981
13249TIP3    H261239   2.611   5.135   6.445  0.1162  1.0733  1.5163
13250TIP3   OH261240   5.676   1.640  15.965 -0.2658  0.1043  0.3600
13250TIP3    H161241   5.616   1.659  15.893 -0.0739  0.2521  0.2389
13250TIP3    H261242   5.667   1.546  15.980  0.0369 -0.0093 -0.1671
13251TIP3   OH261243   0.519   2.437   5.613  0.1564  0.0699  0.2009
13251TIP3    H161244   0.469   2.374   5.665 -1.4326 -0.0777 -1.4561
13251TIP3    H261245   0.496   2.523   5.650 -2.4039  0.1095 -1.3739
13252TIP3   OH261246   2.562   1.772  14.417  0.5083  0.3235  0.2025
13252TIP3    H161247   2.609   1.698  14.378 -1.7987  0.4786 -3.0336
13252TIP3    H261248   2.535   1.740  14.503  0.6082 -2.2031 -0.6479
13253TIP3   OH261249   2.194   2.084   6.373  0.0491 -0.0115  0.1948
13253TIP3    H161250   2.158   2.173   6.373 -1.7058 -0.6960  0.8662
13253TIP3    H261251   2.268   2.088   6.432 -0.9931  0.6431  1.4947
13254TIP3   OH261252   4.502   4.325   0.560  0.2251 -0.1976 -0.3733
13254TIP3    H161253   4.501   4.308   0.654  0.8145  0.2459 -0.2836
13254TIP3    H261254   4.413   4.307   0.531  1.0046 -4.3997 -0.4422
13255TIP3   OH261255   1.945   5.729   4.393 -0.2028 -0.2995  0.1088
13255TIP3    H161256   1.965   5.806   4.340 -0.2613 -0.9948 -0.9268
13255TIP3    H261257   1.974   5.654   4.341  2.1153 -0.8893  2.1434
13256TIP3   OH261258   2.197   2.954   4.164 -0.4832  0.5719  0.1619
13256TIP3    H161259   2.272   3.009   4.189  0.5055 -1.3708  1.6466
13256TIP3    H261260   2.205   2.945   4.069  0.9088  0.7417  0.2513
13257TIP3   OH261261   0.820   2.929  11.329 -0.2516 -0.3925  0.0386
13257TIP3    H161262   0.868   2.890  11.256  0.7527 -0.8796  0.9364
13257TIP3    H261263   0.760   2.860  11.356 -0.6918 -0.1771 -0.3880
13258TIP3   OH261264   3.976   3.428   5.438  0.6877  0.1812 -0.0248
13258TIP3    H161265   3.908   3.365   5.415  0.1999  0.6525  0.1239
13258TIP3    H261266   4.009   3.459   5.354  0.2952  0.4066 -0.0966
13259TIP3   OH261267   1.932   2.703   0.121  0.1788  0.2986 -0.4301
13259TIP3    H161268   2.003   2.761   0.095  1.5888 -0.7254  1.0540
13259TIP3    H261269   1.916   2.723   0.213  1.1590 -2.0851  0.3081
13260TIP3   OH261270   4.604   0.102   1.400 -0.2788  0.4784 -0.6272
13260TIP3    H161271   4.689   0.058   1.401 -1.0246 -1.0332 -1.7341
13260TIP3    H261272   4.625   0.195   1.401  1.3263  0.2036  3.7803
13261TIP3   OH261273   5.399   0.766   5.214  0.3314 -0.5900  0.1998
13261TIP3    H161274   5.491   0.739   5.213  0.6307  0.4752 -2.0574
13261TIP3    H261275   5.351   0.686   5.237  1.7795 -1.1715  1.2939
13262TIP3   OH261276   3.431   2.404  15.082  0.6355  0.0524 -0.8806
13262TIP3    H161277   3.364   2.468  15.057  2.1596  2.0702  0.0726
13262TIP3    H261278   3.418   2.391  15.176 -1.6713 -3.4850 -1.6078
13263TIP3   OH261279   6.417   6.507   1.663  0.5912 -0.3701 -0.9656
13263TIP3    H161280   6.511   6.507   1.643  1.1278 -1.7308  1.3862
13263TIP3    H261281   6.400   6.420   1.699 -1.5896 -0.1332 -1.3507
13264TIP3   OH261282   2.424   4.480  11.315 -0.1774 -0.3026 -0.3278
13264TIP3    H161283   2.338   4.515  11.292  0.4356  1.1823 -0.4107
13264TIP3    H261284   2.429   4.396  11.268 -1.2924 -0.0860 -0.8596
13265TIP3   OH261285   0.957   5.914  10.679  0.8282  0.1002  0.1445
13265TIP3    H161286   0.871   5.903  10.719 -0.0662 -0.0040 -1.7555
13265TIP3    H261287   0.995   5.826  10.680  1.0176  0.1888  1.1944
13266TIP3   OH261288   5.226   5.293  16.074 -0.3952 -0.0025  0.2586
13266TIP3    H161289   5.226   5.329  16.163  0.5589 -0.0117  0.2688
13266TIP3    H261290   5.181   5.359  16.021  0.1766  0.6049  0.5212
13267TIP3   OH261291   3.798   5.579   4.513  1.0690 -0.8610 -0.9383
13267TIP3    H161292   3.838   5.516   4.453  0.7622 -1.0376 -0.9593
13267TIP3    H261293   3.776   5.527   4.590 -1.6544 -1.3827 -1.9959
13268TIP3   OH261294   6.110   5.721  15.623  0.5559  0.0037 -0.0414
13268TIP3    H161295   6.172   5.649  15.636 -1.0351 -1.1821  1.2860
13268TIP3    H261296   6.111   5.769  15.705 -0.0774  0.1352 -0.1053
13269TIP3   OH261297   3.284   3.669  11.788  0.1404  0.0260 -0.1184
13269TIP3    H161298   3.379   3.659  11.789 -0.0451 -2.2374 -1.5369
13269TIP3    H261299   3.269   3.757  11.823  2.5956 -0.5614  2.6511
13270TIP3   OH261300   2.102   2.934  16.381 -0.5633  0.2726 -0.7540
13270TIP3    H161301   2.027   2.878  16.363 -2.3562  2.7624 -1.4183
13270TIP3    H261302   2.153   2.933  16.300 -0.0551 -1.1788 -0.4163
13271TIP3   OH261303   3.814   3.274  15.643  0.2149 -0.4313 -0.2724
13271TIP3    H161304   3.877   3.205  15.627  0.9710 -0.1353  1.3153
13271TIP3    H261305   3.812   3.283  15.738 -0.2556  1.3664 -0.4289
13272TIP3   OH261306   4.860   5.244   1.416  0.0676  0.4851 -0.6251
13272TIP3    H161307   4.884   5.154   1.393  2.7279  0.5540  1.6067
13272TIP3    H261308   4.802   5.272   1.346 -0.7098 -2.9334 -1.4292
13273TIP3   OH261309   1.748   0.883  14.524  0.1073  0.6627 -0.0840
13273TIP3    H161310   1.766   0.873  14.430 -3.2786 -0.7358 -0.6612
13273TIP3    H261311   1.779   0.801  14.563  0.3089  0.6883 -0.1902
13274TIP3   OH261312   6.804   3.136   1.167  0.5941  0.8427 -0.0299
13274TIP3    H161313   6.873   3.155   1.103  0.9320 -0.4745 -0.0596
13274TIP3    H261314   6.842   3.159   1.252  0.5018  1.6166 -0.1873
13275TIP3   OH261315   2.580   5.140  12.134 -0.2816  0.1027  0.1028
13275TIP3    H161316   2.499   5.096  12.162  0.7560 -0.9087  1.5977
13275TIP3    H261317   2.606   5.192  12.210  0.8438 -0.1338 -0.1143
13276TIP3   OH261318   1.072   5.684  17.012  0.2177 -0.6603 -0.5380
13276TIP3    H161319   1.073   5.601  16.965 -1.8178 -0.7004 -0.5885
13276TIP3    H261320   1.047   5.660  17.102 -1.2857 -0.0294 -0.7747
13277TIP3   OH261321   4.956   4.010  15.682  0.5925  0.2669 -0.0686
13277TIP3    H161322   4.878   4.063  15.700  1.4141  1.1144  1.0247
13277TIP3    H261323   4.926   3.945  15.619  0.0138  3.1555 -2.9047
13278TIP3   OH261324   3.804   0.542   4.382 -0.3000 -0.4795  1.1114
13278TIP3    H161325   3.755   0.461   4.394 -1.4723 -0.1982 -1.5114
13278TIP3    H261326   3.776   0.598   4.454 -1.4039 -1.4819  1.4799
13279TIP3   OH261327   0.671   4.263  11.273  0.6887 -0.1400  0.2603
13279TIP3    H161328   0.760   4.247  11.303  0.7841 -0.2112 -0.0587
13279TIP3    H261329   0.616   4.210  11.331  0.9771 -1.3839 -0.5853
13280TIP3   OH261330   4.916   3.245   6.591  0.0645  0.4490 -0.8647
13280TIP3    H161331   4.853   3.218   6.658  0.7206  2.2001  0.5088
13280TIP3    H261332   4.996   3.199   6.614  0.8138  2.4459  0.7036
13281TIP3   OH261333   2.781   5.812  16.768  0.1015 -0.7619  0.1915
13281TIP3    H161334   2.778   5.729  16.721 -0.8853 -0.5081 -0.1978
13281TIP3    H261335   2.739   5.794  16.852 -1.9760 -0.1518 -0.6957
13282TIP3   OH261336   3.221   3.040  17.102 -0.5205 -0.5415  0.2194
13282TIP3    H161337   3.148   3.048  17.163 -0.2696  1.3530  0.3188
13282TIP3    H261338   3.295   3.014  17.156 -1.2396 -3.0550  0.0217
13283TIP3   OH261339   3.252   3.274  16.674 -0.5988 -0.0145  0.0265
13283TIP3    H161340   3.226   3.229  16.755 -2.0031 -0.1125 -0.4531
13283TIP3    H261341   3.192   3.239  16.608  1.3757 -0.8966 -1.3354
13284TIP3   OH261342   3.714   5.535  14.959 -0.0654 -0.4356 -0.5800
13284TIP3    H161343   3.801   5.502  14.938 -0.1187 -1.4266  0.7064
13284TIP3    H261344   3.679   5.473  15.023 -1.9394 -0.3637 -1.5076
13285TIP3   OH261345   6.248   2.791   3.600  0.3633  0.7699  0.4819
13285TIP3    H161346   6.226   2.874   3.558  2.1350  0.0189 -2.0266
13285TIP3    H261347   6.254   2.813   3.694 -2.1174  2.8070  0.2259
13286TIP3   OH261348   4.816   1.074   1.040  0.3626  0.6248 -0.4839
13286TIP3    H161349   4.840   0.986   1.012  1.7313  0.2852  1.6568
13286TIP3    H261350   4.891   1.128   1.014  0.8986  0.5971  0.9701
13287TIP3   OH261351   0.234   6.619  12.419  0.2488 -0.0302 -0.2462
13287TIP3    H161352   0.250   6.684  12.488  0.6066 -0.2193 -0.1526
13287TIP3    H261353   0.310   6.626  12.362  0.7687 -1.0827  0.3162
13288TIP3   OH261354   6.475   5.805  13.916 -0.5015  0.3458 -0.1819
13288TIP3    H161355   6.523   5.777  13.838 -0.6164  0.0853 -0.1613
13288TIP3    H261356   6.446   5.894  13.896 -1.5671 -0.1503 -0.9288
13289TIP3   OH261357   6.015   2.088  14.683 -0.6528 -0.5918 -0.4161
13289TIP3    H161358   5.979   2.071  14.770 -1.3032  0.6556 -0.4169
13289TIP3    H261359   6.074   2.016  14.666 -1.6518 -1.6275  0.4439
13290TIP3   OH261360   0.029   2.266  11.067 -0.1086  0.5732  0.4622
13290TIP3    H161361   0.122   2.254  11.051  0.0934  2.9511 -0.4805
13290TIP3    H261362  -0.012   2.255  10.981 -0.4299  1.5363  0.4790
13291TIP3   OH261363   3.244   2.104   2.346  0.2805  0.1351 -0.2509
13291TIP3    H161364   3.304   2.059   2.406 -0.5473 -0.8710 -0.1474
13291TIP3    H261365   3.160   2.059   2.359 -0.3510  1.1336 -0.8199
13292TIP3   OH261366   2.367   1.535  12.416 -0.0441  0.0477  0.3377
13292TIP3    H161367   2.325   1.555  12.333  0.4301  1.7015  0.4718
13292TIP3    H261368   2.386   1.621  12.455  0.9681 -0.6859  1.5170
13293TIP3   OH261369   1.300   3.045  11.627 -0.1688  0.2759 -0.2514
13293TIP3    H161370   1.391   3.056  11.598 -0.0127 -3.0023 -1.2039
13293TIP3    H261371   1.260   2.992  11.558 -2.2234 -0.1169  1.2320
13294TIP3   OH261372   4.727   4.612  11.641 -0.7208  0.3182  0.3092
13294TIP3    H161373   4.752   4.702  11.663 -0.9746  0.3544  0.4530
13294TIP3    H261374   4.745   4.562  11.720  1.1607 -0.1086 -0.3688
13295TIP3   OH261375   4.292   5.044   5.548 -0.4180  0.1924 -0.1416
13295TIP3    H161376   4.316   5.106   5.617  3.0759 -1.5681  0.3633
13295TIP3    H261377   4.204   5.015   5.571 -0.3637  1.6644  2.0511
13296TIP3   OH261378   6.362   1.274  17.167  0.2322 -0.2007 -0.1339
13296TIP3    H161379   6.431   1.309  17.223 -0.2090  1.1654 -0.4426
13296TIP3    H261380   6.308   1.220  17.226  1.5184 -1.2555  0.1163
13297TIP3   OH261381   4.181   3.926  11.381 -0.1626 -0.1904  0.0043
13297TIP3    H161382   4.154   4.008  11.340  0.2998  1.0946  2.1913
13297TIP3    H261383   4.272   3.940  11.406 -0.1470 -1.2907  0.6009
13298TIP3   OH261384   4.541   1.615  11.848 -0.3143 -0.2599  0.4511
13298TIP3    H161385   4.564   1.620  11.941  0.1530  1.3615  0.2714
13298TIP3    H261386   4.455   1.657  11.842 -0.7192 -1.1099  0.2684
13299TIP3   OH261387   1.842   0.363   5.767  0.9026 -0.6821  0.4823
13299TIP3    H161388   1.890   0.301   5.712 -0.3277 -0.0258 -1.3972
13299TIP3    H261389   1.761   0.317   5.789  1.1700 -0.7463  1.3833
13300TIP3   OH261390   5.218   3.406   3.568  0.1169 -0.6638  0.0865
13300TIP3    H161391   5.149   3.398   3.502 -0.8763  0.4957  0.9751
13300TIP3    H261392   5.180   3.368   3.647  0.5113 -0.0398  0.5773
13301TIP3   OH261393   3.228   3.242  15.277 -0.6652  0.3355  0.8101
13301TIP3    H161394   3.269   3.324  15.251 -2.8816  0.5970 -2.1168
13301TIP3    H261395   3.287   3.174  15.244 -1.2555  0.7423 -1.1588
13302TIP3   OH261396   5.310   2.653  15.644 -0.8996 -0.5402  0.3095
13302TIP3    H161397   5.219   2.680  15.656 -0.1862  1.4658  1.5651
13302TIP3    H261398   5.336   2.618  15.729  0.1548  1.0133  0.6389
13303TIP3   OH261399   4.511   1.898   6.606  0.0744  0.0386  0.6111
13303TIP3    H161400   4.451   1.890   6.681 -0.3407 -0.7305  0.2088
13303TIP3    H261401   4.541   1.809   6.590  0.1256  0.1957 -0.1741
13304TIP3   OH261402   1.279   6.763   2.089 -0.0941 -0.4620  0.7399
13304TIP3    H161403   1.267   6.736   1.998  1.5683 -0.2395  0.4238
13304TIP3    H261404   1.198   6.808   2.112 -0.4000 -0.2270 -0.7391
13305TIP3   OH261405   3.229   1.349  12.623  0.7648  0.0352 -0.4408
13305TIP3    H161406   3.269   1.406  12.558 -2.0521  0.6873 -1.6819
13305TIP3    H261407   3.135   1.360  12.611  0.1461 -2.9166  1.0237
13306TIP3   OH261408   4.111   2.803   6.080  0.0417  1.0902 -0.2473
13306TIP3    H161409   4.182   2.855   6.117  2.7024 -2.4873 -0.0591
13306TIP3    H261410   4.088   2.740   6.150 -2.5784  1.4628 -0.7089
13307TIP3   OH261411   5.053   5.936   3.579 -0.0859  0.2182 -1.5185
13307TIP3    H161412   4.992   5.949   3.506  0.4483  1.5100 -1.7564
13307TIP3    H261413   5.132   5.983   3.553  0.7964 -0.9123 -0.9337
13308TIP3   OH261414   2.566   3.930  14.386 -0.3145 -0.0193  0.5111
13308TIP3    H161415   2.652   3.961  14.416 -0.1292 -1.6231  1.7560
13308TIP3    H261416   2.505   3.961  14.452 -0.4564 -0.2178  0.4747
13309TIP3   OH261417   2.553   3.868   2.988 -0.2068 -0.8885 -0.3512
13309TIP3    H161418   2.571   3.811   2.914 -0.0842 -1.6643  0.2726
13309TIP3    H261419   2.474   3.916   2.963  1.0145  0.3928 -1.8586
13310TIP3   OH261420   2.598   4.206  11.645  0.5968 -0.4101  0.1989
13310TIP3    H161421   2.506   4.226  11.627  0.1167 -3.8775 -1.7263
13310TIP3    H261422   2.645   4.286  11.624 -1.7376  0.6521 -1.1946
13311TIP3   OH261423   2.403   1.180   4.486  0.6073 -0.0321  0.0605
13311TIP3    H161424   2.327   1.158   4.432  0.2440 -0.1697  0.6242
13311TIP3    H261425   2.378   1.261   4.531  1.0493  0.2819 -0.2437
13312TIP3   OH261426   1.816   2.562   1.549  0.2335 -0.5391  0.1569
13312TIP3    H161427   1.796   2.586   1.459  1.4861  3.2018  0.7569
13312TIP3    H261428   1.890   2.501   1.542  0.2627 -0.3462 -1.3551
13313TIP3   OH261429   0.391   4.644  12.486  0.1191  0.6651 -0.1096
13313TIP3    H161430   0.436   4.581  12.430 -0.9190  0.4557 -0.7382
13313TIP3    H261431   0.411   4.729  12.447 -0.1592  0.5594 -0.4960
13314TIP3   OH261432   0.192   1.530   3.556  0.9946 -0.1264 -0.2646
13314TIP3    H161433   0.128   1.515   3.626 -0.6689  0.6619 -1.5770
13314TIP3    H261434   0.149   1.593   3.498  1.6366 -2.1327 -2.9566
13315TIP3   OH261435   4.335   5.480   5.089 -0.4086  1.0884 -0.0654
13315TIP3    H161436   4.307   5.424   5.161  0.8137  1.5914  0.8202
13315TIP3    H261437   4.329   5.569   5.123 -1.5390  1.4551 -1.1864
13316TIP3   OH261438   4.266   0.055  11.475  0.3771 -0.3128  0.4550
13316TIP3    H161439   4.295   0.045  11.385  0.0311  0.4178  0.2587
13316TIP3    H261440   4.176   0.087  11.468  0.0013 -1.2013  1.0592
13317TIP3   OH261441   1.722   0.638  15.586  0.4423  0.0025 -0.2800
13317TIP3    H161442   1.789   0.699  15.616 -2.1216  1.8121  2.0851
13317TIP3    H261443   1.659   0.692  15.538 -0.4031 -1.2633 -0.6427
13318TIP3   OH261444   1.718   2.365   4.238 -0.5829 -0.5179  0.0155
13318TIP3    H161445   1.752   2.406   4.158 -2.1608  2.6872  0.9001
13318TIP3    H261446   1.795   2.325   4.278  1.0252  1.3140 -1.1039
13319TIP3   OH261447   2.637   5.047   2.921  0.0291 -0.1011  0.4826
13319TIP3    H161448   2.704   4.987   2.890  3.1471  3.5264 -0.1172
13319TIP3    H261449   2.654   5.056   3.015 -2.6929 -2.7731  1.3323
13320TIP3   OH261450   1.331   0.919   4.447 -0.4619  0.6631 -0.6280
13320TIP3    H161451   1.282   0.976   4.507 -0.8096  0.3187 -0.5851
13320TIP3    H261452   1.298   0.942   4.360 -1.6473 -0.4871 -0.4954
13321TIP3   OH261453   6.134   6.695   0.712 -0.7279  0.3727 -0.1362
13321TIP3    H161454   6.060   6.664   0.763 -1.1943 -1.3111 -1.7749
13321TIP3    H261455   6.105   6.780   0.677 -1.0700  0.7045  0.9473
13322TIP3   OH261456   6.028   5.234   2.566  0.1093  0.2170 -0.0943
13322TIP3    H161457   5.960   5.171   2.592  0.7385 -0.0945  0.8302
13322TIP3    H261458   6.084   5.185   2.506  0.9743 -0.3416  1.1252
13323TIP3   OH261459   0.212   0.326   1.017 -0.2931  0.5227  0.4218
13323TIP3    H161460   0.289   0.271   1.033 -0.7083 -0.5291 -1.0904
13323TIP3    H261461   0.230   0.369   0.933 -1.0145  0.8802  0.4465
13324TIP3   OH261462   6.535   2.492   1.594  1.0450 -0.8391  0.7065
13324TIP3    H161463   6.578   2.556   1.651  1.2712 -0.4603  0.1114
13324TIP3    H261464   6.510   2.542   1.516 -0.2557 -1.1199  0.9444
13325TIP3   OH261465   1.366   2.615   6.065 -0.7402 -0.2150  0.1303
13325TIP3    H161466   1.279   2.602   6.027 -0.0571 -1.5878 -1.0272
13325TIP3    H261467   1.379   2.539   6.121  0.5389 -1.1119 -1.3419
13326TIP3   OH261468   0.682   4.196  13.916 -0.1322 -0.4454  0.0227
13326TIP3    H161469   0.714   4.285  13.928 -0.4275 -0.4076  0.5464
13326TIP3    H261470   0.653   4.193  13.825  2.3093 -0.7922 -0.7830
13327TIP3   OH261471   2.235   2.431  12.949 -0.1771 -0.0421  0.2204
13327TIP3    H161472   2.290   2.509  12.954  0.3957 -0.4808  1.0298
13327TIP3    H261473   2.270   2.372  13.017 -1.0782 -0.6904  0.1472
13328TIP3   OH261474   3.709   2.434  14.624  0.0704 -0.2582  0.1877
13328TIP3    H161475   3.734   2.397  14.709 -1.1765 -0.9335  0.2749
13328TIP3    H261476   3.623   2.472  14.639 -0.0142 -0.0829 -0.6961
13329TIP3   OH261477   1.989   5.042  11.893 -0.1420 -0.5353 -0.2168
13329TIP3    H161478   2.035   5.126  11.885 -0.6133 -0.2776 -0.2641
13329TIP3    H261479   1.911   5.052  11.838 -0.0547 -1.1052 -0.4398
13330TIP3   OH261480   6.250   4.284   5.422 -0.2176 -0.6668  0.7492
13330TIP3    H161481   6.189   4.347   5.384  0.7931  0.2375  0.5825
13330TIP3    H261482   6.237   4.291   5.516 -0.4561 -0.5556  0.7068
13331TIP3   OH261483   2.427   5.697   0.074 -0.2557 -0.1986  0.2483
13331TIP3    H161484   2.512   5.652   0.080 -0.7925 -1.2224  0.2972
13331TIP3    H261485   2.365   5.627   0.050 -1.1896  0.4312  0.8246
13332TIP3   OH261486   5.107   3.741  17.158 -0.0872  0.1650 -0.4857
13332TIP3    H161487   5.203   3.734  17.163 -0.2335 -1.6665  0.1926
13332TIP3    H261488   5.083   3.786  17.239  0.1944  0.5940 -0.6372
13333TIP3   OH261489   1.934   4.949  12.137  0.3733  0.2774  0.5341
13333TIP3    H161490   1.953   4.990  12.052 -1.7704  0.4966  0.1335
13333TIP3    H261491   2.004   4.885  12.149  0.8115  0.3872 -1.3006
13334TIP3   OH261492   6.135   0.270   0.892 -0.1491 -0.3702 -0.7225
13334TIP3    H161493   6.167   0.350   0.933  0.7129 -0.8436 -0.4479
13334TIP3    H261494   6.200   0.203   0.916 -0.7715 -1.1115 -1.0781
13335TIP3   OH261495   0.113   6.051  14.813  0.8024 -0.2686 -0.0497
13335TIP3    H161496   0.154   5.964  14.808  1.5400  0.0654  0.1389
13335TIP3    H261497   0.064   6.058  14.732 -0.0400 -1.2492  0.3569
13336TIP3   OH261498   1.889   0.929   4.611 -0.0005 -0.0858  0.0303
13336TIP3    H161499   1.927   0.933   4.523  1.2443 -1.9626  0.4441
13336TIP3    H261500   1.798   0.905   4.597 -0.3187  1.5260 -0.8257
13337TIP3   OH261501   3.257   6.318   1.261 -0.4705  0.1357 -0.0824
13337TIP3    H161502   3.200   6.243   1.240 -0.6925  0.5687 -1.0776
13337TIP3    H261503   3.215   6.392   1.217  1.1394  0.3764 -1.2323
13338TIP3   OH261504   5.532   0.333   3.074 -0.0439  0.2976 -0.0548
13338TIP3    H161505   5.523   0.244   3.108 -1.6377  0.0147 -1.1632
13338TIP3    H261506   5.444   0.370   3.078  0.1883  1.0851 -1.5741
13339TIP3   OH261507   3.077   5.194   3.311 -0.2398  0.6127 -0.2962
13339TIP3    H161508   3.165   5.177   3.346  0.7669  1.9043 -2.1266
13339TIP3    H261509   3.073   5.290   3.303 -1.8708  0.5696 -0.1307
13340TIP3   OH261510   6.323   6.263  14.595  0.3433 -0.1557 -0.5374
13340TIP3    H161511   6.396   6.201  14.598 -0.9625 -1.6652  0.9402
13340TIP3    H261512   6.364   6.348  14.610  2.0457 -0.7367 -1.6473
13341TIP3   OH261513   2.571   0.339  17.020  0.1615  0.2464  0.0208
13341TIP3    H161514   2.531   0.426  17.020  0.9142  0.6361  2.0376
13341TIP3    H261515   2.541   0.300  17.102  1.6726 -0.4967  0.2391
13342TIP3   OH261516   3.123   2.702   4.683  0.2488 -0.0863 -0.0325
13342TIP3    H161517   3.097   2.617   4.648  0.3168 -0.1863  0.1598
13342TIP3    H261518   3.095   2.700   4.774 -0.4255  0.3851 -0.2281
13343TIP3   OH261519   0.104   5.215   4.066  0.0913  0.4297 -0.1136
13343TIP3    H161520   0.188   5.171   4.058 -0.1633 -0.5664  2.1883
13343TIP3    H261521   0.117   5.279   4.136 -0.7083  1.0919 -0.5699
13344TIP3   OH261522   5.560   6.610  12.204  0.5086 -0.4029  0.1523
13344TIP3    H161523   5.528   6.670  12.137 -0.9175 -0.2032  0.9815
13344TIP3    H261524   5.566   6.525  12.160  3.0684  0.4013 -1.1862
13345TIP3   OH261525   2.187   3.788   0.431 -0.1926 -0.1452 -0.4534
13345TIP3    H161526   2.190   3.715   0.493 -1.1446  0.0658 -0.1547
13345TIP3    H261527   2.246   3.853   0.468  0.0124 -0.4242 -0.2868
13346TIP3   OH261528   2.580   4.074   3.484 -0.0983 -0.3198  0.3039
13346TIP3    H161529   2.656   4.017   3.491  0.1008  0.0180  1.0118
13346TIP3    H261530   2.581   4.125   3.565  0.0145  1.0297 -0.5184
13347TIP3   OH261531   3.244   0.491  14.681  0.0556 -0.3169  0.0661
13347TIP3    H161532   3.164   0.539  14.702 -0.4765 -1.6838  1.2125
13347TIP3    H261533   3.219   0.399  14.685  1.2073 -0.7194 -1.5841
13348TIP3   OH261534   3.219   0.640  13.280 -0.6424 -0.6409 -0.7413
13348TIP3    H161535   3.214   0.689  13.198  1.8429 -0.4088 -0.8133
13348TIP3    H261536   3.153   0.571  13.271 -1.0424 -0.0571 -2.5425
13349TIP3   OH261537   4.718   3.493   4.978  0.5378  0.4121 -0.6259
13349TIP3    H161538   4.795   3.500   5.033  0.0131 -1.6923  0.4325
13349TIP3    H261539   4.736   3.418   4.920 -1.2714 -1.0560  0.6419
13350TIP3   OH261540   2.063   3.181  14.157  0.3624  0.2937 -0.3270
13350TIP3    H161541   2.134   3.223  14.206  0.6031  1.1596 -1.3999
13350TIP3    H261542   2.006   3.144  14.225  1.8791 -0.5152  0.5658
13351TIP3   OH261543   3.913   3.289  14.635  0.3330 -0.4140  0.3106
13351TIP3    H161544   4.001   3.263  14.662  0.0940 -3.3002 -1.4270
13351TIP3    H261545   3.926   3.334  14.551  0.2424 -0.0512  0.4922
13352TIP3   OH261546   5.749   6.740   5.918  0.2513  0.3118  0.0179
13352TIP3    H161547   5.776   6.649   5.904 -1.6449 -0.2599  0.0242
13352TIP3    H261548   5.671   6.735   5.973 -0.1197  1.9307 -0.3179
13353TIP3   OH261549   2.706   0.777   6.146 -0.8449 -0.5863  0.2702
13353TIP3    H161550   2.642   0.708   6.164 -2.4135  1.4673  3.0476
13353TIP3    H261551   2.735   0.805   6.233  1.7484  0.4667 -0.8836
13354TIP3   OH261552   4.007   1.757   3.209 -0.1850 -0.1507 -0.0158
13354TIP3    H161553   4.019   1.670   3.247 -1.3433 -0.7624 -1.0127
13354TIP3    H261554   4.031   1.748   3.117 -1.2151  0.3474 -0.3436
13355TIP3   OH261555   2.653   1.512  14.309  0.8598  0.7314  0.5527
13355TIP3    H161556   2.610   1.473  14.233 -0.0847  1.0907  0.8989
13355TIP3    H261557   2.657   1.442  14.374  1.3991  0.5108  0.2887
13356TIP3   OH261558   1.914   2.234  13.543 -0.3376  0.5566  0.6975
13356TIP3    H161559   1.892   2.206  13.454  0.3705 -0.9255  0.9773
13356TIP3    H261560   1.845   2.198  13.598 -0.7465  1.4276  0.7562
13357TIP3   OH261561   2.204   5.762   1.617 -0.0099  0.3775 -0.7701
13357TIP3    H161562   2.294   5.782   1.591  0.3208  0.0391  0.1034
13357TIP3    H261563   2.162   5.847   1.624  0.4201  0.5743 -0.5439
13358TIP3   OH261564   2.580   0.065  12.326  0.3822  0.7123  0.1398
13358TIP3    H161565   2.528   0.074  12.406  1.5249 -0.5110  1.0400
13358TIP3    H261566   2.550   0.137  12.271  0.3857  2.2838  2.1208
13359TIP3   OH261567   4.810   6.282   2.140 -0.1284 -0.6774 -0.1219
13359TIP3    H161568   4.900   6.286   2.174  0.4551  0.7240 -1.7589
13359TIP3    H261569   4.777   6.371   2.149 -0.7164 -0.7815 -1.1957
13360TIP3   OH261570   6.077   3.246   1.437  0.0963  0.6491 -0.0651
13360TIP3    H161571   6.082   3.155   1.408 -0.7288  0.3222  0.7684
13360TIP3    H261572   5.983   3.266   1.437  0.4022  2.1955 -2.2752
13361TIP3   OH261573   6.383   0.542   0.322 -0.0020  0.5573  0.2877
13361TIP3    H161574   6.476   0.547   0.341  0.4199 -2.6567 -0.5857
13361TIP3    H261575   6.352   0.467   0.373 -1.6643  0.2944 -1.0509
13362TIP3   OH261576   6.739   5.897   3.466 -0.4173  0.0966 -0.0139
13362TIP3    H161577   6.762   5.834   3.398  2.0021  1.5900 -0.6164
13362TIP3    H261578   6.774   5.981   3.434  0.9745  0.7764  3.1871
13363TIP3   OH261579   4.253   5.131  13.751  0.1833 -0.0146 -0.1715
13363TIP3    H161580   4.258   5.226  13.744  0.9694 -0.0067  0.3798
13363TIP3    H261581   4.267   5.112  13.844 -1.3574 -0.5941 -0.0511
13364TIP3   OH261582   1.488   0.917  14.428  0.2570  0.5971  0.1981
13364TIP3    H161583   1.455   1.002  14.454  0.8402  0.7486  0.4607
13364TIP3    H261584   1.578   0.915  14.462  0.6045  0.3058 -0.7258
13365TIP3   OH261585   6.547   1.720  13.664  0.2339 -0.0301 -0.5305
13365TIP3    H161586   6.550   1.804  13.711 -1.3845  0.8886 -1.9887
13365TIP3    H261587   6.581   1.656  13.726  1.1487  1.6583  0.7467
13366TIP3   OH261588   6.403   2.568   0.426 -0.3012  0.3540 -0.2977
13366TIP3    H161589   6.491   2.540   0.402 -0.4305  1.6036 -2.3044
13366TIP3    H261590   6.349   2.490   0.414  0.4003 -0.2586  0.3856
13367TIP3   OH261591   5.653   2.602  16.834  0.1066 -0.5826 -0.2566
13367TIP3    H161592   5.688   2.515  16.855 -1.0521 -1.0459 -0.1867
13367TIP3    H261593   5.655   2.649  16.917  1.3601 -0.3077 -0.4296
13368TIP3   OH261594   6.701   0.031   5.553  0.3398  0.1358 -0.2613
13368TIP3    H161595   6.650   0.111   5.552 -1.7665 -1.1810 -0.7071
13368TIP3    H261596   6.653  -0.028   5.611  2.9468 -0.1500  1.7081
13369TIP3   OH261597   5.084   2.660  12.328  0.2568  0.2051 -0.2874
13369TIP3    H161598   5.000   2.623  12.356  0.7265 -1.1112 -0.5807
13369TIP3    H261599   5.073   2.755  12.338  0.6503 -0.1859  5.0102
13370TIP3   OH261600   1.596   1.523  10.452  0.6049  0.5149  0.2259
13370TIP3    H161601   1.539   1.588  10.409 -0.6451  1.1400  2.7470
13370TIP3    H261602   1.546   1.494  10.528  1.4779 -2.8664 -0.4180
13371TIP3   OH261603   0.262   0.090  13.177 -0.2721  0.4436 -0.0307
13371TIP3    H161604   0.289   0.051  13.260  3.7771  2.8005 -0.1252
13371TIP3    H261605   0.321   0.051  13.112 -2.2379 -0.0509 -1.5959
13372TIP3   OH261606   5.237   0.394  13.561 -0.1120 -0.0583 -0.0879
13372TIP3    H161607   5.260   0.481  13.592 -1.2725 -0.1979  1.2011
13372TIP3    H261608   5.316   0.362  13.516  0.0989  1.9066 -1.1610
13373TIP3   OH261609   5.389   4.917  15.409 -0.5532  0.5739  0.6857
13373TIP3    H161610   5.341   4.840  15.441 -0.4619  0.1238 -0.2448
13373TIP3    H261611   5.429   4.954  15.488  1.0924 -1.5282  0.9079
13374TIP3   OH261612   4.355   0.132  16.739  0.2900 -0.4220 -0.1479
13374TIP3    H161613   4.329   0.047  16.774  0.2733 -1.1814 -1.9201
13374TIP3    H261614   4.381   0.113  16.648 -0.4401  1.5838 -0.7970
13375TIP3   OH261615   6.430   6.539   3.239  0.0386  0.0291 -0.3476
13375TIP3    H161616   6.499   6.481   3.272  0.0948  0.6894  0.7394
13375TIP3    H261617   6.351   6.509   3.285  0.1503  1.0772  0.5638
13376TIP3   OH261618   2.844   3.227  14.371  0.1383  0.3247 -0.6828
13376TIP3    H161619   2.772   3.227  14.434 -1.0493  0.9883 -2.0039
13376TIP3    H261620   2.840   3.313  14.329  3.0182  1.1898  0.6555
13377TIP3   OH261621   0.238   5.547   3.854  0.6522 -0.7790  0.0998
13377TIP3    H161622   0.146   5.537   3.879  0.4189  1.5761  0.3736
13377TIP3    H261623   0.246   5.501   3.771 -0.6394 -1.4849  0.3503
13378TIP3   OH261624   3.207   1.996   3.574 -1.0199  0.1521  0.1445
13378TIP3    H161625   3.245   2.083   3.560 -1.8278  0.4136 -0.4896
13378TIP3    H261626   3.193   1.991   3.668  1.9287 -0.5337  0.6106
13379TIP3   OH261627   0.293   2.795   0.787  0.8470 -0.1621  0.2012
13379TIP3    H161628   0.327   2.739   0.716  2.2621  0.8960  0.0141
13379TIP3    H261629   0.331   2.758   0.867 -0.9660 -1.5193  0.4562
13380TIP3   OH261630   5.565   4.145   4.030 -0.3505  0.5248  0.0112
13380TIP3    H161631   5.601   4.162   4.117 -1.5072  0.1902  0.5665
13380TIP3    H261632   5.629   4.182   3.970 -0.6179  2.8364  1.0684
13381TIP3   OH261633   2.188   5.647   1.078 -0.0335  0.5956  0.2776
13381TIP3    H161634   2.163   5.709   1.146 -0.6473  2.7182 -1.7936
13381TIP3    H261635   2.264   5.687   1.036  1.4481 -1.5591  0.8494
13382TIP3   OH261636   2.271   3.523   2.203 -0.1857  0.3134 -0.0577
13382TIP3    H161637   2.237   3.505   2.115  0.0959 -0.4877 -0.0077
13382TIP3    H261638   2.219   3.467   2.260  1.3585 -1.0932 -0.0024
13383TIP3   OH261639   2.182   1.551  13.504  0.7871  0.1233 -0.2038
13383TIP3    H161640   2.123   1.580  13.434  0.9013 -0.9234 -0.7445
13383TIP3    H261641   2.188   1.626  13.563 -0.5031  0.4920 -0.5289
13384TIP3   OH261642   3.970   2.209   5.994 -0.1827 -1.1200  0.2205
13384TIP3    H161643   3.979   2.189   5.900  0.7543  0.9390 -0.1720
13384TIP3    H261644   4.059   2.231   6.021 -0.9138  1.1988  0.8698
13385TIP3   OH261645   4.305   3.831   3.037 -0.2268 -0.0018  0.0513
13385TIP3    H161646   4.294   3.898   2.969 -0.7331 -1.0589 -0.9416
13385TIP3    H261647   4.262   3.754   3.000  2.4092 -1.5705  0.1499
13386TIP3   OH261648   4.473   2.619   3.225  0.0880  0.3008 -0.1774
13386TIP3    H161649   4.485   2.542   3.282 -1.2652  0.6109  0.5504
13386TIP3    H261650   4.537   2.683   3.258  1.9733 -0.8496 -1.4633
13387TIP3   OH261651   4.989   0.541   0.575  0.1222 -0.4536  0.3999
13387TIP3    H161652   4.968   0.624   0.532  1.4337 -0.8149 -0.9573
13387TIP3    H261653   4.960   0.473   0.514  0.4442 -0.9842  0.8272
13388TIP3   OH261654   3.831   2.147   3.416 -0.1290 -0.1216  0.2385
13388TIP3    H161655   3.737   2.166   3.409 -0.3052 -0.8762  0.5002
13388TIP3    H261656   3.837   2.082   3.486  0.5343 -0.5166 -0.1804
13389TIP3   OH261657   2.130   2.803  13.063  0.2951 -0.1913 -0.0762
13389TIP3    H161658   2.141   2.726  13.119  0.6849  0.9896  1.4992
13389TIP3    H261659   2.035   2.813  13.057  0.2490 -0.0343  0.7901
13390TIP3   OH261660   6.568   3.596   4.903 -0.0554 -0.3985 -0.4334
13390TIP3    H161661   6.563   3.621   4.996  1.6366 -0.8879 -0.2019
13390TIP3    H261662   6.492   3.539   4.890 -0.1541 -0.5477  0.7182
13391TIP3   OH261663   1.470   4.095   6.238  0.2267 -0.1802  0.2687
13391TIP3    H161664   1.441   4.186   6.245  0.2041 -0.0302 -1.4817
13391TIP3    H261665   1.396   4.044   6.271  0.6856  0.4575  2.3655
13392TIP3   OH261666   2.657   4.802  12.632  0.9980  0.1327  0.2504
13392TIP3    H161667   2.673   4.798  12.538 -0.2253  0.5879  0.0159
13392TIP3    H261668   2.679   4.892  12.657 -1.5377  0.8866 -0.1525
13393TIP3   OH261669   1.631   4.545   4.348  0.0894  0.0834 -0.3710
13393TIP3    H161670   1.544   4.564   4.382 -0.8361 -1.4275 -1.8139
13393TIP3    H261671   1.668   4.481   4.408 -0.3324 -0.2655 -0.4788
13394TIP3   OH261672   2.956   3.108  11.980  0.2352 -0.0055 -0.3707
13394TIP3    H161673   2.959   3.168  12.054  0.3295  0.1229 -0.4778
13394TIP3    H261674   3.046   3.104  11.949  0.0206  0.7652 -1.1273
13395TIP3   OH261675   1.514   3.759  12.386  0.0608  0.2063 -0.7032
13395TIP3    H161676   1.535   3.753  12.293  1.9839 -0.3274 -0.2757
13395TIP3    H261677   1.513   3.853  12.405  1.3887  0.2739 -0.9209
13396TIP3   OH261678   1.618   0.332   1.071 -0.5704  0.1097 -0.3072
13396TIP3    H161679   1.537   0.376   1.045 -0.2912  0.8943  0.1282
13396TIP3    H261680   1.641   0.277   0.996 -1.4042  0.0267 -0.5042
13397TIP3   OH261681   6.707   2.237   0.602 -0.8400  0.5449  0.1075
13397TIP3    H161682   6.754   2.154   0.600  0.3284  1.2025  0.2888
13397TIP3    H261683   6.722   2.277   0.517 -2.7653 -0.1609 -0.5978
13398TIP3   OH261684   0.627   3.280   2.526  0.1340 -0.2125  0.4358
13398TIP3    H161685   0.590   3.261   2.613 -0.1212 -0.6615  0.2293
13398TIP3    H261686   0.705   3.225   2.521 -0.7883 -1.4630 -0.2941
13399TIP3   OH261687   0.346   3.009   0.616 -0.1240 -0.3499 -0.0435
13399TIP3    H161688   0.442   3.006   0.613 -0.2136 -3.1696 -1.5832
13399TIP3    H261689   0.322   2.938   0.676 -1.3028 -0.6695 -0.8987
13400TIP3   OH261690   3.992   3.842   1.188  0.1605 -0.1751 -0.6786
13400TIP3    H161691   4.047   3.783   1.240 -1.0254 -0.1262  0.6757
13400TIP3    H261692   4.023   3.930   1.210  1.2672 -0.2462 -1.9307
13401TIP3   OH261693   6.623   2.479  13.733 -0.5966 -0.2373  0.5354
13401TIP3    H161694   6.661   2.439  13.812 -1.8164  1.0190  1.7828
13401TIP3    H261695   6.549   2.423  13.712  0.1968 -1.0275 -0.2029
13402TIP3   OH261696   0.429   4.764   4.510 -0.2051 -0.2363 -0.3919
13402TIP3    H161697   0.404   4.689   4.564 -0.4974  1.0477  1.3045
13402TIP3    H261698   0.523   4.753   4.496 -0.4124 -1.4063 -0.9628
13403TIP3   OH261699   5.909   4.266   5.733  0.0934  0.1253 -0.1558
13403TIP3    H161700   5.814   4.274   5.723  0.1572 -0.2782 -1.1297
13403TIP3    H261701   5.945   4.316   5.659  0.6259 -0.2035 -0.1199
13404TIP3   OH261702   4.630   1.139  14.840  0.3229  0.0561 -0.2300
13404TIP3    H161703   4.655   1.145  14.932  0.1674 -0.3881 -0.1558
13404TIP3    H261704   4.674   1.060  14.808  0.6721  0.4130 -0.6326
13405TIP3   OH261705   1.605   2.852  16.526  0.3578  0.0254 -0.3201
13405TIP3    H161706   1.658   2.930  16.542 -0.8579  0.9522 -0.7637
13405TIP3    H261707   1.656   2.781  16.564  1.8746  0.9099 -0.6341
13406TIP3   OH261708   1.643   6.653  11.256 -0.4531 -0.1746 -0.2576
13406TIP3    H161709   1.718   6.612  11.212  0.5834  2.1770 -0.7779
13406TIP3    H261710   1.672   6.664  11.346 -0.4656  0.0245 -0.2773
13407TIP3   OH261711   6.186   0.736   0.433 -0.2664 -0.5460  0.2600
13407TIP3    H161712   6.256   0.691   0.385  0.6012 -0.3583  1.3395
13407TIP3    H261713   6.232   0.791   0.497 -1.4060 -0.5607  1.1038
13408TIP3   OH261714   3.579   2.749   0.254 -0.3732  0.2257 -0.0063
13408TIP3    H161715   3.607   2.724   0.342 -0.2025  0.8178  0.1091
13408TIP3    H261716   3.497   2.796   0.267  0.2457  1.3381 -0.0541
13409TIP3   OH261717   6.574   1.370   0.038  0.1957 -0.5086  0.4106
13409TIP3    H161718   6.529   1.404   0.115 -1.7207 -0.3925 -0.7233
13409TIP3    H261719   6.646   1.431   0.024 -0.5168  0.5071  1.0494
13410TIP3   OH261720   2.209   0.653  17.131  0.1588 -0.2925 -0.0211
13410TIP3    H161721   2.132   0.637  17.076 -1.6026  2.6572  1.4374
13410TIP3    H261722   2.181   0.626  17.219  0.2755  1.9949  0.7540
13411TIP3   OH261723   3.153   1.683   4.431  0.1729 -0.0772  0.1624
13411TIP3    H161724   3.156   1.599   4.477  1.4374  0.7597  1.6634
13411TIP3    H261725   3.176   1.662   4.341  0.0526 -1.4094  0.4357
13412TIP3   OH261726   0.861   2.428   3.803 -0.2814 -0.3331  0.1715
13412TIP3    H161727   0.950   2.461   3.814 -0.8987  1.9096 -1.2540
13412TIP3    H261728   0.806   2.498   3.838 -1.5826 -0.2713 -1.9354
13413TIP3   OH261729   6.590   4.613   0.163 -0.0027 -0.3599  0.2691
13413TIP3    H161730   6.630   4.613   0.250  0.7648  1.1056 -0.0523
13413TIP3    H261731   6.661   4.587   0.104 -0.2268 -0.3110 -0.0239
13414TIP3   OH261732   0.039   5.424   1.394  0.0676 -0.3045 -0.4932
13414TIP3    H161733  -0.048   5.437   1.431  0.2525 -1.4232  0.3748
13414TIP3    H261734   0.045   5.486   1.322 -1.6298 -0.5606 -0.8510
13415TIP3   OH261735   3.213   6.781   1.949  0.6981  0.7305 -0.3726
13415TIP3    H161736   3.248   6.845   2.010  2.9672  0.3991 -1.2689
13415TIP3    H261737   3.234   6.816   1.862  2.4338 -1.4101 -0.8729
13416TIP3   OH261738   2.479   5.099   5.265 -0.1976 -0.6806 -0.2275
13416TIP3    H161739   2.432   5.027   5.307  0.6150 -0.9307  0.2604
13416TIP3    H261740   2.417   5.172   5.267 -0.6270 -1.0547  0.2614
13417TIP3   OH261741   5.111   0.669   2.904 -0.3656  0.4334  0.4036
13417TIP3    H161742   5.102   0.609   2.830  1.6818  1.1045 -0.4301
13417TIP3    H261743   5.022   0.677   2.939 -0.8546 -2.2710 -0.0835
13418TIP3   OH261744   1.900   3.880   1.392  0.6442 -0.1066  0.0136
13418TIP3    H161745   1.810   3.894   1.362  0.6653  2.5622  1.1030
13418TIP3    H261746   1.954   3.928   1.329  1.1120  0.4888  0.8658
13419TIP3   OH261747   3.956   5.182   0.146 -0.7672 -0.5908  0.1568
13419TIP3    H161748   3.939   5.137   0.064 -0.6959 -1.5172  0.6440
13419TIP3    H261749   4.043   5.153   0.173 -1.1824 -1.0462  1.0395
13420TIP3   OH261750   3.789   4.486  16.039 -0.1601 -0.0183 -0.0506
13420TIP3    H161751   3.856   4.450  16.096 -1.7681 -1.6198  0.8761
13420TIP3    H261752   3.724   4.524  16.099 -1.0529 -0.2499 -0.8587
13421TIP3   OH261753   5.116   5.915   0.998 -0.3632 -0.4712  0.1590
13421TIP3    H161754   5.194   5.915   1.054  0.3851  0.3737 -0.8710
13421TIP3    H261755   5.043   5.900   1.059  0.6663 -2.2932  1.0070
13422TIP3   OH261756   4.713   2.139   4.624  0.3379 -0.0972  0.9514
13422TIP3    H161757   4.626   2.155   4.661  0.2861  0.0957  0.7463
13422TIP3    H261758   4.697   2.079   4.551  0.1575  1.3105 -0.1849
13423TIP3   OH261759   5.262   6.491  12.168  0.2309  0.2356  0.6718
13423TIP3    H161760   5.234   6.479  12.259 -0.1930 -0.8286  0.4022
13423TIP3    H261761   5.303   6.408  12.145  0.3113  0.4956 -0.1246
13424TIP3   OH261762   2.177   1.224  16.929  0.0413  0.2027 -0.0954
13424TIP3    H161763   2.160   1.264  16.844  2.0334 -1.0709 -1.1280
13424TIP3    H261764   2.155   1.292  16.993  2.2609  2.5865 -1.7624
13425TIP3   OH261765   5.483   1.671   6.229 -0.1320  0.2424  0.2829
13425TIP3    H161766   5.409   1.631   6.183  0.7036 -0.5039 -0.4068
13425TIP3    H261767   5.453   1.760   6.247 -1.7787 -0.4911  1.3178
13426TIP3   OH261768   2.472   1.870   5.357 -0.0504  0.0051  0.6186
13426TIP3    H161769   2.425   1.872   5.274  1.1418 -1.1134 -0.1125
13426TIP3    H261770   2.448   1.951   5.401 -1.1159  0.3538 -0.5872
13427TIP3   OH261771   5.752   3.780   1.195  0.1588 -0.3570  0.2036
13427TIP3    H161772   5.733   3.695   1.156  2.3293 -1.8262  2.1838
13427TIP3    H261773   5.667   3.814   1.223 -0.5291 -2.7134  1.0530
13428TIP3   OH261774   1.846   4.987   5.697 -0.1131  0.5019  0.4096
13428TIP3    H161775   1.818   4.918   5.757 -0.8622 -0.2460 -0.7696
13428TIP3    H261776   1.924   5.025   5.738  0.4554 -1.2023  0.9483
13429TIP3   OH261777   6.005   2.015  16.672  0.1310  0.2711  0.2735
13429TIP3    H161778   5.953   1.940  16.699 -0.0540  0.1997 -0.2797
13429TIP3    H261779   6.057   2.038  16.750 -0.9920  0.5824  0.9344
13430TIP3   OH261780   1.257   1.984  11.470 -0.0451  0.4654  0.3455
13430TIP3    H161781   1.230   1.974  11.379  1.6172  0.7173 -0.1921
13430TIP3    H261782   1.201   1.923  11.519 -0.8109  0.1906 -0.8651
13431TIP3   OH261783   3.036   4.591   3.893  0.6617 -0.3176 -0.7304
13431TIP3    H161784   3.034   4.504   3.851 -2.7393 -0.2152 -0.9719
13431TIP3    H261785   3.019   4.573   3.986  0.2219  0.0466 -0.7378
13432TIP3   OH261786   1.010   2.132  16.782 -0.1848  0.5478 -0.0056
13432TIP3    H161787   1.037   2.057  16.729  0.9738  0.2378  1.0069
13432TIP3    H261788   1.043   2.208  16.734 -1.3582  0.4435 -1.0344
13433TIP3   OH261789   4.866   2.574  15.934  0.0170  0.4246  0.9198
13433TIP3    H161790   4.850   2.486  15.968  0.1394 -0.6546 -1.6416
13433TIP3    H261791   4.854   2.632  16.009 -1.0711 -1.6828  2.4256
13434TIP3   OH261792   3.549   5.787   5.443 -0.4567 -0.1749  0.6357
13434TIP3    H161793   3.525   5.715   5.385  1.6075  0.4204 -1.0495
13434TIP3    H261794   3.638   5.811   5.415 -0.0527  1.2163  2.9792
13435TIP3   OH261795   4.454   1.700  14.470 -0.5109  1.1231  0.2199
13435TIP3    H161796   4.418   1.776  14.424  0.2561  1.6679  0.5032
13435TIP3    H261797   4.391   1.681  14.539 -1.1780  0.9123 -0.4432
13436TIP3   OH261798   4.624   2.289  14.614  0.1184  0.2983  0.1320
13436TIP3    H161799   4.637   2.249  14.528 -0.1830  0.0797  0.1858
13436TIP3    H261800   4.539   2.254  14.643  0.6643 -0.3717  0.9377
13437TIP3   OH261801   5.304   6.396   0.042  0.0111 -0.9955 -0.3040
13437TIP3    H161802   5.292   6.318  -0.012 -0.1209 -0.1404 -1.5574
13437TIP3    H261803   5.269   6.467  -0.012 -0.8297 -0.2155  1.2393
13438TIP3   OH261804   2.529   4.913   5.684  0.2513  0.7250  0.0411
13438TIP3    H161805   2.578   4.831   5.698  0.9572  0.9884 -0.8228
13438TIP3    H261806   2.516   4.949   5.772  0.8317  0.1967  0.3462
13439TIP3   OH261807   3.412   4.802  14.483  0.7631 -0.1178 -0.5933
13439TIP3    H161808   3.357   4.852  14.422  0.4615  0.1275 -0.1243
13439TIP3    H261809   3.471   4.867  14.521  1.5440 -0.4213 -1.2704
13440TIP3   OH261810   5.128   4.505  10.805 -0.1899 -0.1945 -0.2044
13440TIP3    H161811   5.062   4.568  10.832 -2.0186 -1.8683 -0.5883
13440TIP3    H261812   5.124   4.507  10.709 -0.5280 -1.1089 -0.2209
13441TIP3   OH261813   2.330   6.782   6.432 -0.8004  0.1699 -0.7080
13441TIP3    H161814   2.252   6.784   6.487  0.7359 -0.1064  1.5683
13441TIP3    H261815   2.317   6.854   6.370 -2.5990  0.4756 -0.0209
13442TIP3   OH261816   5.096   0.842  11.295  0.2752 -0.0198 -0.3034
13442TIP3    H161817   5.117   0.840  11.201  3.5099  0.3635  0.3429
13442TIP3    H261818   5.130   0.927  11.325 -1.5852  0.2738  1.0590
13443TIP3   OH261819   3.302   3.673   2.388  0.2249  0.0778 -0.1382
13443TIP3    H161820   3.297   3.705   2.478 -0.1839 -0.9906  0.2321
13443TIP3    H261821   3.213   3.681   2.355  0.5105  1.1000 -0.6785
13444TIP3   OH261822   2.506   6.806   5.494 -0.1296 -0.0056 -0.5662
13444TIP3    H161823   2.486   6.745   5.423  0.0363 -1.1165  0.3131
13444TIP3    H261824   2.600   6.823   5.486 -0.0497 -0.3741 -0.4384
13445TIP3   OH261825   2.564   1.476   5.120 -0.0439 -0.1972 -0.0997
13445TIP3    H161826   2.557   1.547   5.184 -0.3582 -0.1536 -0.1789
13445TIP3    H261827   2.653   1.443   5.130 -0.3420 -0.7234  0.9217
13446TIP3   OH261828   0.144   6.038   1.120  0.4638 -0.3953  0.2077
13446TIP3    H161829   0.096   6.080   1.191 -1.1762 -2.6650  0.4835
13446TIP3    H261830   0.103   5.953   1.110  2.5125 -1.2226 -1.5853
13447TIP3   OH261831   4.137   5.878  11.268 -0.3787  0.5794 -0.0188
13447TIP3    H161832   4.154   5.785  11.256  1.7625  0.6233  2.2473
13447TIP3    H261833   4.060   5.896  11.214 -1.8170 -2.8436  0.8204
13448TIP3   OH261834   3.405   2.428   4.570  0.4377 -0.4737 -0.0037
13448TIP3    H161835   3.437   2.493   4.508  0.5807 -1.4183 -0.9254
13448TIP3    H261836   3.480   2.410   4.627  0.9097 -1.0920 -0.8162
13449TIP3   OH261837   4.666   4.219  12.950 -0.4427 -0.3704 -0.3085
13449TIP3    H161838   4.748   4.269  12.950 -1.6107  1.5991 -0.7106
13449TIP3    H261839   4.672   4.162  13.027  0.9416  0.3607  0.1299
13450TIP3   OH261840   3.463   1.620  11.732 -0.3270  0.1494 -0.2658
13450TIP3    H161841   3.475   1.715  11.729  0.2936  0.0742 -0.2201
13450TIP3    H261842   3.551   1.584  11.723 -0.2491 -0.3700  2.0807
13451TIP3   OH261843   5.364   2.092   2.536 -0.2306 -0.8989 -0.7376
13451TIP3    H161844   5.450   2.092   2.578  0.1157 -2.0346 -1.4148
13451TIP3    H261845   5.354   2.181   2.502  0.7344 -0.7944 -0.7677
13452TIP3   OH261846   2.412   4.053  13.774  0.0049 -0.5411 -0.1110
13452TIP3    H161847   2.332   4.105  13.765  0.1864 -0.4978 -1.4944
13452TIP3    H261848   2.387   3.966  13.743  0.5006 -0.5250 -0.5505
13453TIP3   OH261849   0.494   0.268   3.081 -0.5747 -0.1065  0.6210
13453TIP3    H161850   0.432   0.291   3.013  0.2579 -1.1657 -0.5198
13453TIP3    H261851   0.570   0.325   3.065 -1.0892  0.9323  1.7877
13454TIP3   OH261852   2.127   4.968   2.095  0.0798 -0.6753  0.3935
13454TIP3    H161853   2.125   4.901   2.026  1.3292 -0.4880  0.1656
13454TIP3    H261854   2.068   5.036   2.063 -1.3792 -1.7515  0.7303
13455TIP3   OH261855   6.587   6.668   1.064 -0.4039  0.2607  0.4067
13455TIP3    H161856   6.540   6.736   1.111  0.7294  1.3106  0.0710
13455TIP3    H261857   6.589   6.699   0.973  0.7068  0.1231  0.3763
13456TIP3   OH261858   2.372   5.904   2.862 -0.0177 -0.2138 -0.5761
13456TIP3    H161859   2.281   5.926   2.884  0.7233  1.2807  1.1127
13456TIP3    H261860   2.367   5.816   2.826 -2.1667 -0.0836 -0.6703
13457TIP3   OH261861   2.976   1.691   2.926  0.0306 -0.3106 -0.0708
13457TIP3    H161862   2.904   1.683   2.863  0.5133  0.6156 -0.7709
13457TIP3    H261863   3.055   1.691   2.871  0.7636 -3.9366  0.8609
13458TIP3   OH261864   0.842   3.406   4.510 -0.4961 -0.4154 -0.0470
13458TIP3    H161865   0.766   3.421   4.567  0.1315  0.0447  0.6725
13458TIP3    H261866   0.917   3.404   4.569  0.2444  0.7306 -0.9293
13459TIP3   OH261867   4.597   5.296  16.454 -0.0339 -0.2810  0.2432
13459TIP3    H161868   4.516   5.334  16.490 -0.6643 -1.4069  0.0403
13459TIP3    H261869   4.667   5.348  16.492 -0.8917  1.1254 -0.0781
13460TIP3   OH261870   0.733   0.445   3.072  0.2167  0.4780  0.0281
13460TIP3    H161871   0.702   0.444   3.162  0.1885 -1.6732  0.0230
13460TIP3    H261872   0.815   0.493   3.075 -0.1069  0.9618  1.0967
13461TIP3   OH261873   2.110   4.091  17.117 -0.4128  0.5650 -1.0770
13461TIP3    H161874   2.019   4.115  17.105 -0.7718  0.1381  0.6014
13461TIP3    H261875   2.132   4.125  17.204  0.6714 -0.3637 -0.9811
13462TIP3   OH261876   3.880   4.388   5.355 -0.4270 -0.3894 -0.7347
13462TIP3    H161877   3.787   4.367   5.357 -0.2859 -0.9654  0.2878
13462TIP3    H261878   3.905   4.396   5.448  0.0648  1.9167 -1.0171
13463TIP3   OH261879   2.571   0.132  16.849 -0.0115  0.6703  0.4060
13463TIP3    H161880   2.485   0.091  16.861  0.1299  0.1443 -0.3891
13463TIP3    H261881   2.565   0.214  16.899 -1.5155  1.3802 -0.8834
13464TIP3   OH261882   2.335   1.625  14.313  0.0795 -0.2279 -0.0934
13464TIP3    H161883   2.385   1.705  14.330  0.1971  0.2688 -2.5371
13464TIP3    H261884   2.401   1.560  14.290 -0.2360 -0.1698 -1.1759
13465TIP3   OH261885   6.811   4.698  13.230  0.3550 -0.0100 -0.1027
13465TIP3    H161886   6.871   4.700  13.305 -0.5628 -0.0964  0.6455
13465TIP3    H261887   6.867   4.714  13.154  1.1800  0.8735  0.6766
13466TIP3   OH261888   0.016   1.685   4.347 -0.3905 -0.0791 -0.1530
13466TIP3    H161889  -0.067   1.654   4.311 -1.2615 -0.1371  1.8620
13466TIP3    H261890  -0.009   1.739   4.422  1.3961 -0.3820  0.6757
13467TIP3   OH261891   0.188   3.976   4.756 -0.2091  0.0041 -0.0949
13467TIP3    H161892   0.248   4.017   4.817  0.0328 -1.1273  0.4356
13467TIP3    H261893   0.122   3.934   4.811 -1.0939  0.6198 -0.6535
13468TIP3   OH261894   0.135   3.345  15.337 -0.4124 -0.7941  0.2048
13468TIP3    H161895   0.088   3.413  15.386  1.4639  0.0087  0.9825
13468TIP3    H261896   0.103   3.353  15.247 -1.1617  0.2541  0.5542
13469TIP3   OH261897   3.155   2.024   3.876  0.1342  0.4141  0.3864
13469TIP3    H161898   3.196   2.019   3.962 -0.7556  2.2291  0.9185
13469TIP3    H261899   3.130   2.115   3.866 -1.5610 -0.1724 -0.9788
13470TIP3   OH261900   6.224   2.430  15.059 -0.3421  0.1290  0.7335
13470TIP3    H161901   6.152   2.371  15.081 -0.1482 -0.2418  0.3829
13470TIP3    H261902   6.193   2.479  14.983  0.3228 -1.0413 -0.3022
13471TIP3   OH261903   1.270   2.382  13.199  0.0946  0.0339  0.3376
13471TIP3    H161904   1.270   2.347  13.110  0.3212  0.3937  0.1935
13471TIP3    H261905   1.362   2.378  13.226  0.0189 -0.1224  0.5757
13472TIP3   OH261906   3.997   3.264  12.884  0.5411 -0.0509 -0.3742
13472TIP3    H161907   4.083   3.247  12.923 -0.3557 -1.6922  0.9436
13472TIP3    H261908   3.939   3.280  12.958 -0.5476 -0.1728 -1.1809
13473TIP3   OH261909   3.786   3.284   5.687 -0.5331 -0.3039  0.2463
13473TIP3    H161910   3.787   3.244   5.600 -0.0110  0.8402 -0.2803
13473TIP3    H261911   3.706   3.250   5.727 -0.3639 -1.4812 -0.3660
13474TIP3   OH261912   6.111   0.600   5.064  0.3434  0.4235 -0.3810
13474TIP3    H161913   6.139   0.617   5.154  2.4110 -0.0450 -0.9109
13474TIP3    H261914   6.076   0.684   5.034  1.1534  1.0287  0.3396
13475TIP3   OH261915   3.526   2.504  12.120 -0.8690 -0.2213 -0.0217
13475TIP3    H161916   3.432   2.494  12.102 -0.8987 -3.2871  1.5723
13475TIP3    H261917   3.569   2.449  12.055 -0.1804  0.6362 -0.3061
13476TIP3   OH261918   1.124   2.508  12.427  0.2924 -0.2287  0.5882
13476TIP3    H161919   1.057   2.442  12.443  0.1581 -0.3356 -0.3841
13476TIP3    H261920   1.086   2.563  12.358  0.8746  0.1836  0.5971
13477TIP3   OH261921   2.520   2.123   3.965  0.0103 -0.5240  0.6830
13477TIP3    H161922   2.431   2.119   4.000  0.2774 -0.7554  1.3447
13477TIP3    H261923   2.570   2.169   4.032  0.5497 -1.0595  0.6494
13478TIP3   OH261924   0.967   3.447  14.628 -0.1074 -0.9414  0.2965
13478TIP3    H161925   0.969   3.528  14.576 -0.5775 -0.9528  0.2636
13478TIP3    H261926   0.894   3.459  14.689 -0.2595 -1.3998  0.2012
13479TIP3   OH261927   1.368   1.752   2.768  0.0404 -0.3177  0.3730
13479TIP3    H161928   1.443   1.710   2.727  0.2379  2.0672 -1.7897
13479TIP3    H261929   1.405   1.827   2.815 -0.7953 -0.0810  0.6641
13480TIP3   OH261930   4.723   6.257   0.638  0.5785 -0.6105 -0.2651
13480TIP3    H161931   4.806   6.225   0.604 -0.1510 -1.3632 -1.3557
13480TIP3    H261932   4.666   6.180   0.639 -1.1426  0.5798 -2.7253
13481TIP3   OH261933   4.569   5.118  15.466 -0.7770 -0.0590 -0.1282
13481TIP3    H161934   4.552   5.119  15.372 -2.5038  0.1166  0.1653
13481TIP3    H261935   4.548   5.208  15.494  1.0793  0.2846  0.2023
13482TIP3   OH261936   2.607   6.310  11.110 -0.4590 -0.5531  0.0817
13482TIP3    H161937   2.651   6.230  11.139 -0.5370 -0.8589 -0.6327
13482TIP3    H261938   2.524   6.280  11.073  0.0469 -0.2588 -1.3113
13483TIP3   OH261939   6.697   4.119  12.639 -0.1992  0.2220 -0.1316
13483TIP3    H161940   6.676   4.102  12.548 -1.4732  1.5291 -0.0953
13483TIP3    H261941   6.768   4.183  12.636 -0.0056  0.0029 -0.2102
13484TIP3   OH261942   5.542   5.586  12.327  0.3634  0.2410 -0.4077
13484TIP3    H161943   5.537   5.551  12.237  1.6955 -1.3557  0.0931
13484TIP3    H261944   5.634   5.613  12.336 -0.3278  2.6429 -0.2993
13485TIP3   OH261945   0.217   3.337   2.580 -0.2321  0.1206 -0.0672
13485TIP3    H161946   0.149   3.319   2.645  0.8674 -1.4862  0.6564
13485TIP3    H261947   0.291   3.370   2.630 -0.6091  2.3098 -0.9068
13486TIP3   OH261948   6.631   0.062   4.823  0.1613 -0.0527  0.7006
13486TIP3    H161949   6.566   0.062   4.753  2.0436 -0.3493 -1.0603
13486TIP3    H261950   6.686   0.138   4.806  1.4152 -0.8489  1.1277
13487TIP3   OH261951   0.456   2.803   3.903 -0.2708  0.5601 -0.1711
13487TIP3    H161952   0.516   2.748   3.852  0.1951  0.3054  0.6447
13487TIP3    H261953   0.394   2.837   3.838  1.0428  1.2143 -1.0930
13488TIP3   OH261954   3.345   4.118  12.318 -0.1923  0.0488 -0.4801
13488TIP3    H161955   3.419   4.134  12.376 -0.6466  2.2777 -0.4417
13488TIP3    H261956   3.271   4.161  12.362 -0.8418  0.5418 -1.9950
13489TIP3   OH261957   2.311   1.315   4.204 -0.2812  0.3294 -0.5025
13489TIP3    H161958   2.222   1.336   4.175 -0.6425 -0.6196 -0.1261
13489TIP3    H261959   2.365   1.325   4.126 -0.3945  2.8247 -0.2828
13490TIP3   OH261960   1.045   4.071   3.023 -0.3647 -0.4429  0.2631
13490TIP3    H161961   1.093   4.153   3.021 -0.9258 -0.1160 -0.1123
13490TIP3    H261962   1.100   4.010   2.974 -0.0732 -0.2162  0.3075
13491TIP3   OH261963   4.278   0.054   6.630  0.3557  0.3490 -0.4774
13491TIP3    H161964   4.343   0.065   6.700 -0.8064 -1.3188  0.9044
13491TIP3    H261965   4.195   0.046   6.676 -0.9584  3.0933 -2.2622
13492TIP3   OH261966   1.346   0.267   0.536  0.5628 -0.2600  0.2248
13492TIP3    H161967   1.417   0.226   0.487 -0.8647 -0.0943 -2.0896
13492TIP3    H261968   1.363   0.361   0.529  0.5517 -0.2471  0.3671
13493TIP3   OH261969   5.363   4.763  16.277  0.2629 -0.1340  0.1273
13493TIP3    H161970   5.291   4.797  16.330  0.1924  0.7916 -0.5616
13493TIP3    H261971   5.367   4.670  16.300 -0.4707  0.0288  0.9505
13494TIP3   OH261972   0.188   5.372  15.914  0.0747  0.4374 -0.0631
13494TIP3    H161973   0.203   5.398  15.823  2.2719  0.8771  0.3955
13494TIP3    H261974   0.127   5.438  15.947 -0.0878  0.7711 -0.9873
13495TIP3   OH261975   1.676   4.478   3.799 -0.8794 -0.4082 -0.0921
13495TIP3    H161976   1.631   4.444   3.721 -1.9292  0.1361  0.2589
13495TIP3    H261977   1.675   4.573   3.788  0.6740 -0.4059 -0.3259
13496TIP3   OH261978   5.116   4.094  11.834 -0.9399  0.6198  0.1201
13496TIP3    H161979   5.071   4.178  11.827 -1.6450  0.1811 -0.5875
13496TIP3    H261980   5.203   4.110  11.796 -1.0907  1.0071 -0.0662
13497TIP3   OH261981   6.311   1.125   2.753 -0.0526  0.4271  0.0534
13497TIP3    H161982   6.228   1.148   2.794 -0.5022  2.9109 -2.1577
13497TIP3    H261983   6.290   1.113   2.660  1.7695 -0.5074 -0.2717
13498TIP3   OH261984   2.528   4.146   5.968 -0.1588 -0.3634 -0.0950
13498TIP3    H161985   2.620   4.146   5.992 -0.2434 -3.4304  0.4385
13498TIP3    H261986   2.481   4.165   6.049 -0.0777 -1.6624  0.2721
13499TIP3   OH261987   4.814   2.206   5.867  0.4284 -0.3670  0.2623
13499TIP3    H161988   4.788   2.287   5.911  0.3031 -0.2051 -0.1038
13499TIP3    H261989   4.909   2.201   5.880  0.6925  0.6647 -1.0463
13500TIP3   OH261990   6.540   0.978   5.481  0.2943  0.0514 -0.1943
13500TIP3    H161991   6.615   1.002   5.535  0.1165  0.5590 -0.1726
13500TIP3    H261992   6.468   1.031   5.516 -0.1679 -0.7417  0.0631
13501TIP3   OH261993   6.232   4.919   4.930 -0.1824  0.2350 -0.1677
13501TIP3    H161994   6.254   4.833   4.966 -0.7621 -0.1009 -0.6122
13501TIP3    H261995   6.308   4.974   4.950  0.0482 -0.2943  0.4058
13502TIP3   OH261996   4.381   1.805   4.477  0.0461 -0.6314 -0.2969
13502TIP3    H161997   4.382   1.801   4.573  1.0566 -0.7409 -0.2994
13502TIP3    H261998   4.399   1.716   4.449  0.3734 -0.4779 -0.5782
13503TIP3   OH261999   1.958   5.493  12.208 -0.5710 -0.4539 -0.3118
13503TIP3    H162000   2.000   5.492  12.122 -1.0945 -0.6394 -0.5711
13503TIP3    H262001   1.992   5.415  12.252  0.3340  0.0942 -0.0385
13504TIP3   OH262002   4.518   4.799  15.849 -0.2496  0.0738 -0.0672
13504TIP3    H162003   4.554   4.877  15.808  2.6468 -0.4957  1.2870
13504TIP3    H262004   4.519   4.733  15.780  1.8360 -0.0807  0.1002
13505TIP3   OH262005   6.802   3.986  14.097  0.0360 -0.0607  0.1293
13505TIP3    H162006   6.773   4.074  14.073 -1.4634 -0.1718  1.4843
13505TIP3    H262007   6.888   3.977  14.055  0.1877  2.0329 -0.0600
13506TIP3   OH262008   1.090   3.003  16.871  0.2991 -0.1071  0.2654
13506TIP3    H162009   1.165   2.994  16.812  0.8448  0.5177  0.8679
13506TIP3    H262010   1.067   2.914  16.894  0.3186 -0.3416 -0.6059
13507TIP3   OH262011   2.831   6.491   5.804  0.1476 -0.2039 -0.3735
13507TIP3    H162012   2.767   6.446   5.748 -2.1735  1.9951  0.3940
13507TIP3    H262013   2.892   6.532   5.743 -1.7824  1.3525 -1.3078
13508TIP3   OH262014   0.500   5.953  15.997 -0.1339 -0.1168  0.4639
13508TIP3    H162015   0.538   6.032  15.959  0.7475 -0.5640  0.4204
13508TIP3    H262016   0.565   5.922  16.059 -1.9551  1.1518  3.1088
13509TIP3   OH262017   5.259   5.430   2.389  0.5010 -0.4580 -0.7443
13509TIP3    H162018   5.320   5.503   2.379  0.0394  0.1446  0.6253
13509TIP3    H262019   5.218   5.420   2.303 -1.8611  3.0879 -0.1555
13510TIP3   OH262020   5.425   5.524  14.030  0.0852 -0.3800 -0.0408
13510TIP3    H162021   5.411   5.617  14.012  0.2105  0.2119  2.7252
13510TIP3    H262022   5.484   5.495  13.960  0.3512  1.7150 -0.7140
13511TIP3   OH262023   4.463   5.029  12.786 -0.2009 -0.0100  0.0906
13511TIP3    H162024   4.441   5.088  12.715  0.3572  0.3536  0.2110
13511TIP3    H262025   4.428   5.071  12.864  1.5094  0.9399  0.3828
13512TIP3   OH262026   4.331   2.233   2.813 -0.1778 -0.1823 -0.1658
13512TIP3    H162027   4.330   2.328   2.798  1.2448 -0.2525 -0.7331
13512TIP3    H262028   4.365   2.224   2.902  0.2863 -0.1892 -0.3439
13513TIP3   OH262029   6.775   1.902   1.098 -0.6191  0.0280 -0.8063
13513TIP3    H162030   6.744   1.988   1.124 -0.0414  0.0188 -0.0805
13513TIP3    H262031   6.705   1.842   1.123 -0.4615  0.1309 -0.1006
13514TIP3   OH262032   5.950   1.466  11.890 -0.2462 -0.2410  0.0781
13514TIP3    H162033   5.941   1.557  11.920 -0.7766 -0.4987  0.7138
13514TIP3    H262034   5.965   1.473  11.795 -0.2992  0.5038  0.1240
13515TIP3   OH262035   4.782   1.679  14.318 -0.2056  0.0747  0.0636
13515TIP3    H162036   4.752   1.594  14.289 -0.5316  0.5101 -0.9080
13515TIP3    H262037   4.877   1.668  14.330 -0.3353 -0.5697  0.4777
13516TIP3   OH262038   5.890   4.532  17.180 -0.2396 -0.2618  0.2594
13516TIP3    H162039   5.922   4.486  17.102 -1.4126 -1.3304  0.4065
13516TIP3    H262040   5.961   4.591  17.203  0.1351  0.0609 -1.6218
13517TIP3   OH262041   4.004   6.571  13.935 -0.3193  0.2033 -0.0600
13517TIP3    H162042   3.938   6.545  13.999 -1.5145  0.3587 -1.2239
13517TIP3    H262043   3.963   6.640  13.884  0.5431 -0.1003 -1.1730
13518TIP3   OH262044   2.179   3.082  15.794  0.0364  0.4715  0.4494
13518TIP3    H162045   2.110   3.051  15.853 -0.5381 -2.3210 -1.5562
13518TIP3    H262046   2.259   3.042  15.828 -0.2859 -1.0895 -0.5611
13519TIP3   OH262047   5.868   3.459  12.012 -0.0257  0.2106 -0.2708
13519TIP3    H162048   5.914   3.376  12.007  0.6884  0.6931 -1.9846
13519TIP3    H262049   5.919   3.519  11.957 -0.4216  1.8406  1.0715
13520TIP3   OH262050   6.184   4.488   2.033  0.3540  0.0706 -0.4836
13520TIP3    H162051   6.140   4.421   2.085 -0.1363  0.6193 -0.1844
13520TIP3    H262052   6.143   4.571   2.060 -0.9818  0.2280 -2.7663
13521TIP3   OH262053   2.572   0.996  11.655  0.0059  0.0036 -0.0685
13521TIP3    H162054   2.663   0.988  11.625  0.0961 -0.3563  0.2927
13521TIP3    H262055   2.566   1.086  11.688  0.1598  0.1111 -0.3265
13522TIP3   OH262056   5.339   3.957  12.078 -0.0854 -0.0025  0.1232
13522TIP3    H162057   5.312   3.875  12.035 -1.3421  0.8241 -0.6847
13522TIP3    H262058   5.285   4.024  12.038  1.3774  1.3357  0.3494
13523TIP3   OH262059   0.449   6.126   6.343  0.0533 -0.0011 -0.2398
13523TIP3    H162060   0.409   6.139   6.430  0.4840  0.1020 -0.0563
13523TIP3    H262061   0.534   6.087   6.362 -0.4676 -1.3673 -0.6928
13524TIP3   OH262062   2.210   4.772   4.192  0.1236 -0.4291 -0.2569
13524TIP3    H162063   2.200   4.821   4.274 -0.3639 -1.0679  0.0722
13524TIP3    H262064   2.123   4.775   4.153  0.1725 -0.7537 -0.3911
13525TIP3   OH262065   5.106   2.153  11.372 -0.2822  0.1909  0.4945
13525TIP3    H162066   5.126   2.185  11.460 -1.9728 -0.3499  1.0923
13525TIP3    H262067   5.081   2.232  11.323  1.3725  0.5923  0.2872
13526TIP3   OH262068   4.586   4.495  13.790  0.4624 -0.8278 -0.5912
13526TIP3    H162069   4.589   4.456  13.703  0.3894 -2.7074  0.2092
13526TIP3    H262070   4.503   4.542  13.793  0.0065 -1.5790 -1.2176
13527TIP3   OH262071   1.504   3.235  13.866  0.5143 -0.1661  0.2560
13527TIP3    H162072   1.539   3.234  13.777 -0.8104 -2.7586 -0.2738
13527TIP3    H262073   1.575   3.199  13.920 -0.3708 -3.1013 -0.4688
13528TIP3   OH262074   1.623   4.353  16.534 -0.3954  0.4020  0.6114
13528TIP3    H162075   1.586   4.274  16.573 -0.8467  0.7718  0.9385
13528TIP3    H262076   1.693   4.378  16.595 -0.1415  0.1599  0.4191
13529TIP3   OH262077   6.750   2.869  10.880 -0.2171  0.7189 -0.1658
13529TIP3    H162078   6.657   2.876  10.861 -0.2093 -0.7139 -0.7911
13529TIP3    H262079   6.780   2.960  10.886 -1.7343  1.2050  0.5346
13530TIP3   OH262080   1.984   1.640   5.155 -0.1547 -0.7158 -0.0191
13530TIP3    H162081   1.965   1.592   5.235 -0.0481  0.3174  0.6278
13530TIP3    H262082   2.071   1.611   5.129 -0.6854 -1.9804 -0.4507
13531TIP3   OH262083   3.264   2.947   4.674  0.7354 -0.3497 -0.2947
13531TIP3    H162084   3.260   2.956   4.770  0.3181  1.0475 -0.4304
13531TIP3    H262085   3.227   2.861   4.657 -0.4509 -0.0495  0.7086
13532TIP3   OH262086   6.323   6.689   4.572  0.4047 -0.0082 -0.6372
13532TIP3    H162087   6.288   6.680   4.483 -2.0979 -1.2546  0.4335
13532TIP3    H262088   6.370   6.607   4.587  0.9264  0.2506 -0.8361
13533TIP3   OH262089   1.181   5.301  10.445  0.2978 -0.2273  0.2184
13533TIP3    H162090   1.164   5.362  10.516 -1.1491 -1.9764  1.4055
13533TIP3    H262091   1.128   5.332  10.373 -0.9661 -0.4651  1.0410
13534TIP3   OH262092   6.218   5.421   2.734 -0.2074  0.2926 -0.2364
13534TIP3    H162093   6.155   5.360   2.697 -0.7481  0.7379 -0.0662
13534TIP3    H262094   6.303   5.392   2.701 -0.5452 -0.0837 -0.7757
13535TIP3   OH262095   0.962   3.942   5.592 -0.5525  0.6029  0.4281
13535TIP3    H162096   0.939   3.868   5.647 -0.2671  0.3732  0.2373
13535TIP3    H262097   0.988   3.904   5.509 -3.1771  1.0666 -0.6559
13536TIP3   OH262098   4.808   5.920  11.170  0.6531  0.0708  0.1811
13536TIP3    H162099   4.796   5.865  11.093  0.0089  1.6723 -0.8743
13536TIP3    H262100   4.870   5.871  11.224 -0.6439 -2.1739 -0.2567
13537TIP3   OH262101   5.110   1.295  13.852 -0.3863  0.4576 -0.0101
13537TIP3    H162102   5.184   1.342  13.893  0.2759  0.3092 -1.0094
13537TIP3    H262103   5.098   1.218  13.907 -0.6982  1.1767  0.9584
13538TIP3   OH262104   3.669   4.716  11.999 -0.6348 -0.2276 -0.0508
13538TIP3    H162105   3.749   4.671  12.025 -0.5098  0.6015  1.0629
13538TIP3    H262106   3.601   4.682  12.058 -1.1558 -1.1148 -1.1626
13539TIP3   OH262107   6.285   0.025  16.145 -0.1578 -0.4499  0.0730
13539TIP3    H162108   6.363  -0.030  16.139  0.4121  0.3176  0.3543
13539TIP3    H262109   6.240   0.013  16.061  0.0666 -1.1824  0.0580
13540TIP3   OH262110   3.942   3.806  13.514 -0.9319  0.1531  1.0191
13540TIP3    H162111   3.982   3.747  13.449 -1.6563  1.5452 -0.7122
13540TIP3    H262112   3.849   3.783  13.513 -1.0472  0.6248  1.1139
13541TIP3   OH262113   0.629   4.279   0.984  0.2019 -0.0051  0.4701
13541TIP3    H162114   0.652   4.348   0.922  0.4399 -0.4524  0.0602
13541TIP3    H262115   0.699   4.280   1.049  1.6148 -1.6389 -0.9957
13542TIP3   OH262116   2.891   4.390  16.983 -0.0737 -0.1712  0.6625
13542TIP3    H162117   2.855   4.461  17.036 -1.7866  0.7431 -1.6287
13542TIP3    H262118   2.981   4.416  16.965 -0.8866  1.7821 -0.7080
13543TIP3   OH262119   2.912   1.448   5.649 -0.1490 -0.2260 -0.2674
13543TIP3    H162120   2.857   1.370   5.642 -0.6090  0.1700 -1.1434
13543TIP3    H262121   2.925   1.476   5.559 -0.1431  0.8139  0.0527
13544TIP3   OH262122   2.204   1.789   5.667  0.3154  0.1003 -0.0144
13544TIP3    H162123   2.235   1.816   5.580  2.0078  0.0901  0.5767
13544TIP3    H262124   2.198   1.693   5.660 -0.7900  0.1897 -0.5035
13545TIP3   OH262125   4.480   0.940   5.654  0.1456  0.3325 -0.0337
13545TIP3    H162126   4.497   1.026   5.692  0.7256 -0.9121  2.6189
13545TIP3    H262127   4.424   0.896   5.718 -1.1268 -0.8660 -1.9139
13546TIP3   OH262128   4.786   0.815   1.247  0.8708  0.3487  0.0941
13546TIP3    H162129   4.881   0.817   1.242  0.8717  0.5696  0.1860
13546TIP3    H262130   4.761   0.907   1.260  0.6810  0.2041  0.7336
13547TIP3   OH262131   0.860   5.863  10.950 -0.0616  0.1169 -0.1105
13547TIP3    H162132   0.849   5.769  10.940 -3.2191  0.5673 -1.5330
13547TIP3    H262133   0.947   5.873  10.988  0.5930 -3.3226 -0.5230
13548TIP3   OH262134   3.071   1.918  14.615 -0.1293  0.1362 -0.1960
13548TIP3    H162135   3.132   1.972  14.665 -0.3334  0.9962 -0.8630
13548TIP3    H262136   2.995   1.974  14.599 -0.9498 -0.8052  0.3067
13549TIP3   OH262137   3.458   4.543  15.606  0.2696  0.2910  0.3070
13549TIP3    H162138   3.482   4.492  15.683  1.2891  0.9631  0.4450
13549TIP3    H262139   3.496   4.493  15.533  2.3162  1.4455  0.5390
13550TIP3   OH262140   6.123   3.572   3.256  0.3945  0.9082 -0.5478
13550TIP3    H162141   6.048   3.548   3.310  0.0885  0.5076 -1.1406
13550TIP3    H262142   6.193   3.515   3.286 -0.2544 -0.5633 -1.7617
13551TIP3   OH262143   3.498   1.116  16.546  0.1070 -0.2601  0.2105
13551TIP3    H162144   3.466   1.131  16.635  0.1790 -1.1472  0.3857
13551TIP3    H262145   3.592   1.104  16.555  0.1730  0.0383 -0.0402
13552TIP3   OH262146   1.013   1.650  15.914  0.1591  0.6143  0.5784
13552TIP3    H162147   1.092   1.596  15.916 -0.0677  0.2620  0.1379
13552TIP3    H262148   0.971   1.628  15.830  0.6041  2.2544 -0.0803
13553TIP3   OH262149   4.704   4.368  11.445 -0.0552 -0.2025 -0.0415
13553TIP3    H162150   4.771   4.436  11.458  0.8191 -1.0635 -0.0237
13553TIP3    H262151   4.628   4.401  11.492  0.0000  1.2933 -0.9355
13554TIP3   OH262152   2.358   0.245  14.803 -0.8234  1.5232  0.3686
13554TIP3    H162153   2.289   0.200  14.850 -1.1650 -0.2095 -1.7119
13554TIP3    H262154   2.351   0.336  14.831 -2.9020  1.0674  1.3943
13555TIP3   OH262155   3.210   1.262  16.974 -0.0515  0.6952  0.2007
13555TIP3    H162156   3.135   1.255  17.033  1.0365  0.0206  1.5390
13555TIP3    H262157   3.182   1.323  16.906 -0.7767  2.7075  2.2622
13556TIP3   OH262158   5.466   0.150   3.474  0.1593  0.4727  0.0045
13556TIP3    H162159   5.377   0.138   3.507  1.3942 -2.6554  2.5077
13556TIP3    H262160   5.458   0.141   3.379 -2.1436 -0.0024  0.2113
13557TIP3   OH262161   0.666   2.447   0.009  0.6971  0.5678  0.3254
13557TIP3    H162162   0.646   2.461   0.101 -0.0689 -0.1792  0.2702
13557TIP3    H262163   0.708   2.361   0.006  1.5380  0.9777  0.0925
13558TIP3   OH262164   2.737   4.398   4.437  0.2514 -0.0826 -0.0439
13558TIP3    H162165   2.824   4.414   4.473  0.3785  1.5114 -0.9939
13558TIP3    H262166   2.680   4.393   4.514  1.0738 -0.4464  0.5500
13559TIP3   OH262167   0.074   0.432  13.993 -0.0776  0.0779 -0.5149
13559TIP3    H162168   0.140   0.365  14.006  0.8556  1.0855  0.0569
13559TIP3    H262169   0.011   0.394  13.932  0.6552 -1.1485 -0.5011
13560TIP3   OH262170   3.531   1.752   5.733 -0.6382 -0.1960  0.3270
13560TIP3    H162171   3.600   1.698   5.695  0.3821 -0.4885  2.5217
13560TIP3    H262172   3.566   1.841   5.729 -0.7183 -0.1698  0.1956
13561TIP3   OH262173   3.757   6.588  14.590 -0.0768 -0.0396  0.0766
13561TIP3    H162174   3.842   6.545  14.604 -1.0337 -2.4354 -1.2824
13561TIP3    H262175   3.695   6.516  14.581 -2.0067  1.6818 -0.6440
13562TIP3   OH262176   2.768   0.380   0.182  0.2301 -0.1000  0.9504
13562TIP3    H162177   2.681   0.410   0.158  1.5012  1.9972 -1.1526
13562TIP3    H262178   2.768   0.287   0.159 -2.0484 -0.6281  2.8083
13563TIP3   OH262179   6.729   5.422  14.488  0.1058  0.0392 -0.0158
13563TIP3    H162180   6.735   5.410  14.394  1.8530 -2.2041  0.3451
13563TIP3    H262181   6.785   5.497  14.507  0.3569  0.0203 -0.6830
13564TIP3   OH262182   6.096   5.657   1.925 -0.9920  0.0460  0.4874
13564TIP3    H162183   6.037   5.716   1.972 -1.5060 -0.0091 -0.0841
13564TIP3    H262184   6.041   5.617   1.858 -0.3609 -0.1920  0.1128
13565TIP3   OH262185   0.268   5.816  14.721 -0.4235  0.3798 -0.3477
13565TIP3    H162186   0.189   5.772  14.689 -1.0692  0.1662  1.5051
13565TIP3    H262187   0.306   5.754  14.783 -0.3821  1.7075  0.9574
13566TIP3   OH262188   0.438   4.269  11.880 -0.2843 -0.1215  0.2294
13566TIP3    H162189   0.453   4.237  11.970  0.5744 -0.1391  0.0843
13566TIP3    H262190   0.372   4.209  11.844  0.1315 -0.7490  0.5019
13567TIP3   OH262191   1.398   2.840   6.254 -0.1990  0.2078 -0.8682
13567TIP3    H162192   1.352   2.897   6.193 -0.5465 -1.1053 -1.8579
13567TIP3    H262193   1.407   2.757   6.208  0.3553 -0.5313  0.5199
13568TIP3   OH262194   5.836   1.175  16.178  0.6602 -0.3025  0.3148
13568TIP3    H162195   5.912   1.230  16.196 -0.1020  0.7525  0.3596
13568TIP3    H262196   5.855   1.092  16.222  2.1937 -0.3772 -0.4484
13569TIP3   OH262197   3.787   4.321  11.232  0.1775  0.1199  0.4668
13569TIP3    H162198   3.727   4.380  11.187 -0.3699 -1.1263 -0.4688
13569TIP3    H262199   3.817   4.261  11.164 -1.4250 -2.4117  1.9101
13570TIP3   OH262200   4.082   6.735  14.757  0.2778  0.1219 -0.1529
13570TIP3    H162201   4.130   6.789  14.819  1.5836 -0.4712 -0.6397
13570TIP3    H262202   4.100   6.775  14.671 -1.6283  1.0270 -0.1583
13571TIP3   OH262203   5.523   2.954   0.344 -0.1734 -0.0349 -1.4726
13571TIP3    H162204   5.532   3.006   0.424 -1.6314 -1.7631 -0.1332
13571TIP3    H262205   5.583   2.995   0.282  1.4439  0.9845  0.6863
13572TIP3   OH262206   1.022   0.056   1.245  0.0352 -0.6682  0.2966
13572TIP3    H162207   0.964   0.107   1.189  1.1855  0.8927  0.5071
13572TIP3    H262208   0.992  -0.035   1.234 -0.5285 -0.2490 -1.9042
13573TIP3   OH262209   0.574   5.331   5.768  0.3384  0.5052 -0.2090
13573TIP3    H162210   0.656   5.341   5.719 -0.0451 -0.1747 -0.9995
13573TIP3    H262211   0.600   5.286   5.848  0.2703 -2.8529 -1.9726
13574TIP3   OH262212   2.518   1.613  15.757 -0.1231  0.0290 -0.2389
13574TIP3    H162213   2.569   1.540  15.723 -0.0949 -0.2595  0.4214
13574TIP3    H262214   2.510   1.673  15.683  1.7472  0.3857 -0.1664
13575TIP3   OH262215   3.508   3.146   0.864 -0.3225 -0.4846  0.0346
13575TIP3    H162216   3.438   3.090   0.897 -0.4407 -0.6312 -0.4675
13575TIP3    H262217   3.504   3.224   0.920 -0.1809 -0.9576  0.7070
13576TIP3   OH262218   5.425   4.423   0.064  0.0402  0.0246 -0.2496
13576TIP3    H162219   5.358   4.402   0.129 -0.4999 -1.9398 -1.3748
13576TIP3    H262220   5.425   4.347   0.005  1.6758  1.0141 -1.5688
13577TIP3   OH262221   3.295   6.156  11.627 -0.0487 -0.6631  0.2913
13577TIP3    H162222   3.247   6.139  11.546 -1.0141 -1.7177  1.0628
13577TIP3    H262223   3.368   6.211  11.600  0.0298 -1.5578 -1.4101
13578TIP3   OH262224   0.913   2.099  11.540  0.2465  0.0673 -0.2383
13578TIP3    H162225   0.871   2.120  11.457 -2.3756 -0.3878  0.9328
13578TIP3    H262226   0.901   2.004  11.549  1.8168 -0.1250 -0.0187
13579TIP3   OH262227   5.508   1.766  11.156 -0.5275  0.0031 -0.2608
13579TIP3    H162228   5.513   1.740  11.248  0.9981 -0.4060 -0.4362
13579TIP3    H262229   5.415   1.756  11.133 -1.1890  1.6052  1.6370
13580TIP3   OH262230   3.964   1.024  11.123  0.1538  0.1588  0.6619
13580TIP3    H162231   3.912   0.943  11.121  1.0439 -0.4084  0.4253
13580TIP3    H262232   3.901   1.093  11.104 -0.4927 -0.5439  0.2169
13581TIP3   OH262233   4.259   2.311  11.165  0.6143 -0.0722  0.3365
13581TIP3    H162234   4.298   2.379  11.110 -1.0605 -0.7704 -1.7732
13581TIP3    H262235   4.232   2.356  11.245  0.7126  1.4688 -0.5011
13582TIP3   OH262236   3.243   6.364   4.774 -0.2537  0.5312 -0.3547
13582TIP3    H162237   3.331   6.332   4.795 -0.4778  1.5094  2.2350
13582TIP3    H262238   3.194   6.285   4.753  0.8114 -0.1852 -0.2247
13583TIP3   OH262239   2.299   0.462  11.982  0.2023 -0.2620 -0.3375
13583TIP3    H162240   2.287   0.484  11.890 -1.6028 -3.8043 -1.0408
13583TIP3    H262241   2.389   0.429  11.987  0.0857 -0.6677 -0.9500
13584TIP3   OH262242   6.642   3.419  14.093 -0.4808  1.0716 -0.7977
13584TIP3    H162243   6.713   3.414  14.156 -2.0372  2.1260  1.1191
13584TIP3    H262244   6.665   3.357  14.025  0.7222 -0.9380  1.3827
13585TIP3   OH262245   5.469   2.117  16.442  0.0561 -0.5056 -0.0230
13585TIP3    H162246   5.481   2.038  16.389 -0.2304 -1.0356  0.6981
13585TIP3    H262247   5.380   2.145  16.422  0.3051 -0.1257 -0.6025
13586TIP3   OH262248   5.129   4.793  11.449  0.4126 -0.2577  0.2654
13586TIP3    H162249   5.196   4.764  11.387 -0.2051 -1.1372  0.0015
13586TIP3    H262250   5.067   4.843  11.395 -0.1676 -1.0921  0.1519
13587TIP3   OH262251   6.141   0.624  12.231  0.1413 -0.3914 -0.9087
13587TIP3    H162252   6.154   0.647  12.139  0.5497  0.6928 -0.5915
13587TIP3    H262253   6.186   0.541  12.242 -1.6222 -1.5464 -2.1677
13588TIP3   OH262254   2.379   5.005   0.824  0.1163  0.2994 -0.1798
13588TIP3    H162255   2.315   4.944   0.859 -1.7696  1.4336 -1.5246
13588TIP3    H262256   2.458   4.990   0.876 -1.6304 -0.1812  2.4367
13589TIP3   OH262257   1.264   0.264  13.307  0.2128  0.2344  0.2625
13589TIP3    H162258   1.181   0.228  13.338  0.4797 -0.0617  0.6345
13589TIP3    H262259   1.289   0.328  13.374 -0.9714  2.1739 -1.0762
13590TIP3   OH262260   3.359   0.943   3.341 -0.2864  0.0480 -0.3372
13590TIP3    H162261   3.368   1.038   3.340 -2.0425  0.2649  0.9612
13590TIP3    H262262   3.447   0.911   3.362  0.8227  1.2546 -2.9814
13591TIP3   OH262263   6.592   4.694   0.722  0.1576  0.0583 -0.4882
13591TIP3    H162264   6.522   4.643   0.764 -0.0842  0.5689 -0.2628
13591TIP3    H262265   6.562   4.785   0.729  1.1986  0.3463  0.2967
13592TIP3   OH262266   6.049   3.882  12.805 -0.1482 -0.5053 -0.2773
13592TIP3    H162267   6.035   3.976  12.817 -1.0890 -0.5049 -1.2957
13592TIP3    H262268   5.973   3.841  12.846 -0.6754 -0.7311 -1.4532
13593TIP3   OH262269   0.347   5.499   5.809 -0.3689  1.0856  0.2410
13593TIP3    H162270   0.413   5.440   5.771  0.2845  1.6163  0.5461
13593TIP3    H262271   0.275   5.499   5.745  0.1870  0.9880 -0.3947
13594TIP3   OH262272   2.379   1.454  10.856  0.2538 -0.0758  0.3559
13594TIP3    H162273   2.308   1.512  10.883 -0.5884 -1.8098  1.9521
13594TIP3    H262274   2.341   1.400  10.787 -0.4492 -1.9532  2.1657
13595TIP3   OH262275   4.822   3.445   5.767  0.6763  0.4870  0.3742
13595TIP3    H162276   4.885   3.444   5.840 -1.2484 -1.1701  2.0536
13595TIP3    H262277   4.759   3.513   5.791 -1.8211 -2.2595  1.9639
13596TIP3   OH262278   5.021   2.734  11.171  0.0871  0.2578  0.0858
13596TIP3    H162279   5.012   2.671  11.243  0.2867  1.5890  1.2934
13596TIP3    H262280   4.952   2.710  11.109  1.0986 -2.0560 -0.1765
13597TIP3   OH262281   1.097   3.958  14.696 -0.4054 -0.5034 -0.3536
13597TIP3    H162282   1.155   4.005  14.755 -3.2460  0.6906  1.6293
13597TIP3    H262283   1.065   4.025  14.635 -2.5253 -0.2971  0.9155
13598TIP3   OH262284   3.558   6.620   0.598  0.0621 -0.7101  0.5270
13598TIP3    H162285   3.527   6.633   0.509 -1.0780 -1.4966  0.8010
13598TIP3    H262286   3.486   6.575   0.642  0.8572 -0.8695  1.6778
13599TIP3   OH262287   1.897   6.282  14.069 -0.4785 -0.4121 -0.4283
13599TIP3    H162288   1.855   6.214  14.122  0.2503  0.8383  1.8359
13599TIP3    H262289   1.861   6.364  14.102 -0.9047  0.3654 -2.7427
13600TIP3   OH262290   3.720   0.586   5.204 -0.2857  0.0484 -0.6786
13600TIP3    H162291   3.672   0.517   5.250  0.6554 -1.5382 -2.0520
13600TIP3    H262292   3.807   0.586   5.244  0.2123 -0.6464 -1.7438
13601TIP3   OH262293   1.855   0.376  15.473  0.2721  0.3702  0.1356
13601TIP3    H162294   1.816   0.339  15.393  0.5081  0.1967  0.1021
13601TIP3    H262295   1.821   0.466  15.476 -1.9149 -0.4395  1.2880
13602TIP3   OH262296   3.741   0.981  16.124 -0.2501 -0.4584  0.5164
13602TIP3    H162297   3.667   1.008  16.176  1.4165  1.7804  1.7915
13602TIP3    H262298   3.769   1.060  16.078  1.9393 -1.0071  0.8430
13603TIP3   OH262299   5.181   3.976   2.674 -0.4817 -0.1006  0.1957
13603TIP3    H162300   5.121   4.029   2.621  0.9705  1.5389  0.1906
13603TIP3    H262301   5.200   3.900   2.618 -0.0384  0.9465 -1.0934
13604TIP3   OH262302   2.595   3.212   1.078  0.7525 -0.2650 -0.3421
13604TIP3    H162303   2.535   3.256   1.018  1.3801 -0.3916 -1.0622
13604TIP3    H262304   2.596   3.121   1.049  1.9779 -0.0869 -0.9010
13605TIP3   OH262305   5.983   1.338   0.911  0.6646  0.4998  0.1584
13605TIP3    H162306   6.060   1.285   0.895  2.0219  2.9546 -1.8172
13605TIP3    H262307   5.941   1.346   0.826 -0.5501  1.0053  0.7857
13606TIP3   OH262308   1.856   2.180  16.245  0.2019  0.1773  0.4704
13606TIP3    H162309   1.766   2.203  16.267  0.7482  2.1398  0.7211
13606TIP3    H262310   1.848   2.102  16.189 -1.7730  1.5104 -1.1651
13607TIP3   OH262311   6.471   1.595   1.868 -0.1962 -0.3092  0.3423
13607TIP3    H162312   6.388   1.615   1.825 -0.3046 -1.2173  0.1098
13607TIP3    H262313   6.469   1.644   1.950 -1.5007 -1.2926  0.9102
13608TIP3   OH262314   1.426   5.606   1.068 -0.2638 -0.0819 -0.1222
13608TIP3    H162315   1.330   5.610   1.066 -0.2332  1.3017  0.6350
13608TIP3    H262316   1.454   5.690   1.031  0.6741 -1.2169 -2.0466
13609TIP3   OH262317   1.880   3.133  11.161 -0.3909 -0.6451 -0.5470
13609TIP3    H162318   1.898   3.040  11.169  0.6334 -0.5491 -1.6030
13609TIP3    H262319   1.855   3.144  11.069 -0.3517  0.1539 -0.4636
13610TIP3   OH262320   1.708   2.086   5.933  0.1091 -0.6828 -0.4455
13610TIP3    H162321   1.704   2.026   6.007 -0.5038 -0.5902 -0.4001
13610TIP3    H262322   1.733   2.032   5.858  0.9898 -0.7302 -0.1231
13611TIP3   OH262323   4.338   3.969  17.216  0.2348 -0.1789  0.0748
13611TIP3    H162324   4.373   3.884  17.187  2.8094  0.9139 -0.2055
13611TIP3    H262325   4.246   3.967  17.190  0.1090 -3.0584  0.5040
13612TIP3   OH262326   4.341   3.863   1.486  0.5237  0.0349  0.1799
13612TIP3    H162327   4.367   3.914   1.563 -0.6875  1.0373 -0.0568
13612TIP3    H262328   4.381   3.909   1.412  1.2001 -0.5920  0.1513
13613TIP3   OH262329   1.777   0.931   2.264  0.4829  0.0122 -0.2013
13613TIP3    H162330   1.750   0.918   2.355 -3.4543 -0.0694 -1.3086
13613TIP3    H262331   1.778   0.842   2.227  1.1929  0.1396 -0.4981
13614TIP3   OH262332   0.951   5.800  12.308  0.5627 -0.4412  0.2464
13614TIP3    H162333   0.906   5.731  12.259  0.7035 -0.3636  0.0108
13614TIP3    H262334   1.015   5.753  12.362  0.1504 -0.5590  0.6443
13615TIP3   OH262335   3.387   3.099  12.794  0.0432  0.0803  0.1174
13615TIP3    H162336   3.382   3.165  12.725  0.9489  1.0734  0.9756
13615TIP3    H262337   3.307   3.048  12.784 -0.2683  0.7793 -1.0940
13616TIP3   OH262338   6.762   0.831  10.691 -0.4656  0.0010  0.9005
13616TIP3    H162339   6.785   0.923  10.677  0.6090 -0.3696  0.1891
13616TIP3    H262340   6.834   0.782  10.651 -0.8252 -1.1460  1.6441
13617TIP3   OH262341   3.256   4.400   2.199  0.0668  0.1307  0.4109
13617TIP3    H162342   3.171   4.382   2.157 -0.6079 -1.2036  2.2714
13617TIP3    H262343   3.319   4.397   2.127 -1.3038 -0.1374 -0.8156
13618TIP3   OH262344   5.035   3.014  13.432 -0.0696 -0.6280  0.9519
13618TIP3    H162345   4.988   2.944  13.478  0.6568 -1.2203  0.8130
13618TIP3    H262346   5.099   3.045  13.495  0.3628 -0.8656  0.6370
13619TIP3   OH262347   4.345   4.026  11.144 -0.0830 -0.9032  0.4564
13619TIP3    H162348   4.416   3.991  11.090 -1.1733 -2.9637  0.2842
13619TIP3    H262349   4.270   3.971  11.123 -1.8917  1.5685  0.2495
13620TIP3   OH262350   4.804   1.475  11.885  0.0082 -0.3703 -0.0331
13620TIP3    H162351   4.728   1.513  11.842  0.6964  1.6028  0.4139
13620TIP3    H262352   4.768   1.417  11.951 -1.1635  1.2053  0.7508
13621TIP3   OH262353   0.416   0.070  13.691  0.0787  1.0573  0.2024
13621TIP3    H162354   0.395   0.148  13.640  0.0050  0.1622 -1.1747
13621TIP3    H262355   0.485   0.097  13.750  1.2408  1.7436 -1.4474
13622TIP3   OH262356   0.603   1.067  13.373 -0.3414  0.3204 -0.0480
13622TIP3    H162357   0.558   1.025  13.446 -0.5842  2.9180  1.3865
13622TIP3    H262358   0.695   1.070  13.400 -0.3180  0.6576 -0.1624
13623TIP3   OH262359   0.205   4.594   1.628  0.0276 -0.1461  0.3904
13623TIP3    H162360   0.251   4.606   1.711  0.5498 -0.5535  0.1589
13623TIP3    H262361   0.236   4.510   1.595 -1.2659 -0.6686  0.4827
13624TIP3   OH262362   2.195   2.933   3.899  0.0636  0.6771 -0.1744
13624TIP3    H162363   2.117   2.985   3.878 -0.1734  0.2300 -0.4088
13624TIP3    H262364   2.256   2.950   3.827  0.2496  1.1649  0.0992
13625TIP3   OH262365   2.036   5.464  16.869  0.0492 -0.1949 -0.5380
13625TIP3    H162366   1.958   5.457  16.924  0.3715  3.4046  0.5396
13625TIP3    H262367   2.029   5.391  16.807 -0.8715 -3.7443  3.5557
13626TIP3   OH262368   1.993   0.324  12.900 -0.4205  0.1624  0.5119
13626TIP3    H162369   1.922   0.356  12.845  2.4321  3.4084 -1.4715
13626TIP3    H262370   1.988   0.229  12.894 -2.6932  0.4154 -2.0643
13627TIP3   OH262371   1.420   1.825   0.510  0.0248 -0.7445  0.1541
13627TIP3    H162372   1.415   1.739   0.469  1.5663 -0.7490 -0.0417
13627TIP3    H262373   1.399   1.810   0.602 -2.4316 -0.8932 -0.3937
13628TIP3   OH262374   1.178   3.801  11.715  0.1647  0.1424  0.7034
13628TIP3    H162375   1.134   3.777  11.796 -0.0201  1.2279  0.9377
13628TIP3    H262376   1.237   3.872  11.741 -0.0780  0.6625 -0.1551
13629TIP3   OH262377   0.200   4.260  13.536 -0.0602 -0.2744  0.5749
13629TIP3    H162378   0.230   4.315  13.609  0.9076  2.0124 -1.4656
13629TIP3    H262379   0.108   4.245  13.553  0.2274 -0.0364  2.4341
13630TIP3   OH262380   6.762   1.317   0.369 -0.1079  0.1713 -0.1547
13630TIP3    H162381   6.807   1.265   0.303 -0.8918 -0.3169 -0.3154
13630TIP3    H262382   6.679   1.272   0.383  0.0247  0.2849  1.1378
13631TIP3   OH262383   3.706   3.966   0.909  0.0134 -0.0432  0.0899
13631TIP3    H162384   3.794   3.998   0.931 -0.1004  1.4798 -1.5740
13631TIP3    H262385   3.714   3.870   0.912  0.9305  0.0640  2.9757
13632TIP3   OH262386   5.774   0.320  13.964 -1.3342  0.0797  0.4100
13632TIP3    H162387   5.715   0.371  14.020  0.0388  0.0557  1.9200
13632TIP3    H262388   5.769   0.231  14.000 -1.5796 -0.2688 -0.4646
13633TIP3   OH262389   1.845   5.264  13.972 -0.0055 -0.0908 -0.3939
13633TIP3    H162390   1.769   5.211  13.949  1.1617 -1.0897 -2.0746
13633TIP3    H262391   1.821   5.353  13.945 -1.1677 -0.1137  0.5223
13634TIP3   OH262392   6.759   6.789  14.146  0.0025  0.0476  0.0909
13634TIP3    H162393   6.796   6.857  14.203 -0.0546 -0.8560  1.2097
13634TIP3    H262394   6.684   6.755  14.194 -1.4710  0.8786 -1.5522
13635TIP3   OH262395   6.363   6.322   4.926 -0.0430 -0.0854  0.8469
13635TIP3    H162396   6.451   6.290   4.945 -0.1891 -2.1520 -1.6749
13635TIP3    H262397   6.374   6.415   4.908  1.5388 -0.1987  1.2230
13636TIP3   OH262398   0.780   3.321  16.664  0.5244  0.0584 -0.3393
13636TIP3    H162399   0.808   3.273  16.742 -1.1560  0.7777  0.7315
13636TIP3    H262400   0.737   3.255  16.609  0.0039 -0.0697  0.2176
13637TIP3   OH262401   5.948   4.887  12.747 -0.2798  0.2974 -0.4351
13637TIP3    H162402   5.884   4.898  12.677  0.0777 -0.2562 -0.8461
13637TIP3    H262403   5.988   4.974  12.757 -3.0502  1.4155  1.7439
13638TIP3   OH262404   3.330   5.169   3.417 -0.0504 -0.3396 -0.4760
13638TIP3    H162405   3.388   5.229   3.464 -1.0519  1.4802 -1.4911
13638TIP3    H262406   3.316   5.096   3.477  3.0313 -0.6741 -0.0858
13639TIP3   OH262407   6.709   3.215  15.665  0.1450 -0.0501  0.3719
13639TIP3    H162408   6.638   3.257  15.714  0.2388 -0.4529  0.8576
13639TIP3    H262409   6.787   3.265  15.689  0.2122 -0.3251  0.7419
13640TIP3   OH262410   6.563   1.943  17.104  0.1590  0.5035 -0.2886
13640TIP3    H162411   6.565   1.945  17.199  0.2509  2.2868 -0.3241
13640TIP3    H262412   6.478   1.904  17.083  0.1687  0.0376  0.5145
13641TIP3   OH262413   5.503   0.953   2.115  0.2263 -0.4606 -0.1527
13641TIP3    H162414   5.517   0.971   2.022 -1.1361 -0.0572 -0.2954
13641TIP3    H262415   5.487   1.039   2.154 -1.3853 -0.8285  0.0469
13642TIP3   OH262416   2.376   6.132   1.486  0.2526  0.3910 -0.7287
13642TIP3    H162417   2.418   6.217   1.478 -0.0503  0.4703 -1.5172
13642TIP3    H262418   2.298   6.148   1.540  1.5509  0.1228  1.2710
13643TIP3   OH262419   5.324   2.032  11.215 -0.2113 -0.1476 -0.2625
13643TIP3    H162420   5.390   1.986  11.267 -0.4210  0.5170  0.6023
13643TIP3    H262421   5.261   2.063  11.279  0.1167  1.6426 -0.7867
13644TIP3   OH262422   4.132   4.998   2.660  0.4987 -0.2802  0.0409
13644TIP3    H162423   4.162   5.045   2.581 -1.3554 -0.7337 -0.9634
13644TIP3    H262424   4.187   5.032   2.730  0.9597  1.4871 -1.1345
13645TIP3   OH262425   2.095   2.031  11.431 -0.2246  0.0312  0.6517
13645TIP3    H162426   2.143   1.949  11.423 -0.7292 -0.3965  1.8742
13645TIP3    H262427   2.107   2.074  11.347 -0.1029 -1.3709 -0.0568
13646TIP3   OH262428   6.051   4.734   0.001 -0.1057  0.2157  0.8898
13646TIP3    H162429   6.064   4.775   0.086  0.8908  1.9014 -0.0431
13646TIP3    H262430   6.039   4.807  -0.060 -0.8398 -0.9526 -0.4159
13647TIP3   OH262431   1.894   0.603   4.381 -0.1917  0.1530  0.1654
13647TIP3    H162432   1.989   0.598   4.374 -0.3277  0.2608 -2.4845
13647TIP3    H262433   1.875   0.697   4.380 -0.2707  0.1822  2.2107
13648TIP3   OH262434   5.864   5.374  14.218 -0.0574 -0.3005 -0.6592
13648TIP3    H162435   5.925   5.300  14.220  0.8012  0.4088  1.6025
13648TIP3    H262436   5.790   5.345  14.272 -0.0115  0.2251 -0.3099
13649TIP3   OH262437   0.917   1.001  11.151  0.2798  0.0918  0.3145
13649TIP3    H162438   0.986   0.995  11.085  0.3920 -0.2308  0.4610
13649TIP3    H262439   0.843   1.040  11.105  0.6463  0.6825  0.2251
13650TIP3   OH262440   6.805   0.419   0.172 -0.1630  0.4104 -0.3909
13650TIP3    H162441   6.830   0.340   0.219 -1.2622 -0.3235 -1.0230
13650TIP3    H262442   6.888   0.461   0.150  0.4627 -1.2031 -1.1478
13651TIP3   OH262443   1.041   3.665  15.841  0.3936 -0.3853 -0.2836
13651TIP3    H162444   1.097   3.600  15.800  0.1657 -1.4717  1.0823
13651TIP3    H262445   1.062   3.747  15.796  2.5168 -0.9138 -0.3206
13652TIP3   OH262446   3.179   0.686  15.719  0.0188  0.2340  0.4911
13652TIP3    H162447   3.084   0.689  15.721  0.0090 -0.0008  0.4008
13652TIP3    H262448   3.204   0.669  15.810 -0.0332  0.1031  0.4807
13653TIP3   OH262449   1.035   4.191  10.882  0.4862  0.4292 -0.5342
13653TIP3    H162450   1.087   4.190  10.962  0.2033  2.0860 -0.3038
13653TIP3    H262451   1.075   4.260  10.828 -0.6905  0.8729 -0.8631
13654TIP3   OH262452   2.887   4.355   2.519 -0.8235  0.2296  0.0326
13654TIP3    H162453   2.841   4.395   2.446  1.2125 -1.4208 -2.2245
13654TIP3    H262454   2.925   4.429   2.567  1.1038  1.2028 -2.8519
13655TIP3   OH262455   5.590   4.684  13.797 -0.1922  0.5535 -0.0802
13655TIP3    H162456   5.505   4.704  13.837  0.7803  0.2106  2.2684
13655TIP3    H262457   5.651   4.745  13.839  0.9464 -0.1228 -0.7364
13656TIP3   OH262458   1.722   2.686   5.017 -0.0756 -0.3593  0.2140
13656TIP3    H162459   1.723   2.772   4.975  3.3319  0.5732  2.0130
13656TIP3    H262460   1.631   2.672   5.043 -0.9671  1.9433 -1.5308
13657TIP3   OH262461   4.037   4.255  15.517  0.1135 -0.7242  0.2636
13657TIP3    H162462   3.993   4.280  15.436  1.5491 -0.4333 -0.4339
13657TIP3    H262463   4.041   4.337  15.567 -1.1574 -0.9923  0.8341
13658TIP3   OH262464   1.568   4.176   5.879 -0.1079 -0.3746  0.2435
13658TIP3    H162465   1.477   4.203   5.885  0.1391  0.9569 -1.6532
13658TIP3    H262466   1.572   4.121   5.801  0.3421 -2.0466  1.4152
13659TIP3   OH262467   4.492   0.437  12.917 -0.3016 -0.1215  0.1873
13659TIP3    H162468   4.475   0.366  12.855  0.3765 -0.0357 -0.1045
13659TIP3    H262469   4.506   0.393  13.000  0.6458 -0.3825 -0.0960
13660TIP3   OH262470   3.615   2.632   0.777  0.3961  0.3673 -0.0667
13660TIP3    H162471   3.572   2.711   0.809  0.7574  0.0629  1.1755
13660TIP3    H262472   3.709   2.649   0.788  0.4716 -0.2741  0.3222
13661TIP3   OH262473   4.973   5.956  10.904  0.1015  0.1278 -0.3146
13661TIP3    H162474   4.974   5.870  10.945 -2.2380  0.3175  0.1927
13661TIP3    H262475   5.042   6.005  10.949  0.4315 -0.9960  0.4294
13662TIP3   OH262476   6.692   5.159  14.865 -0.6412  0.4009 -0.0901
13662TIP3    H162477   6.653   5.170  14.778 -2.2776  0.1698  0.6000
13662TIP3    H262478   6.778   5.201  14.858 -2.3110  3.8943 -0.6807
13663TIP3   OH262479   4.907   5.704   5.203  0.2128 -0.2202 -0.5561
13663TIP3    H162480   4.867   5.652   5.273  0.6573  0.5496  0.2772
13663TIP3    H262481   4.876   5.663   5.122  1.0588 -2.1775  0.0675
13664TIP3   OH262482   0.443   0.023   2.160  0.4368 -0.1353  0.1020
13664TIP3    H162483   0.462   0.116   2.142  0.3394  0.1186  1.3092
13664TIP3    H262484   0.361   0.006   2.114  0.2592  0.4714  0.1935
13665TIP3   OH262485   6.570   6.177   2.677 -0.2069  0.0735 -0.4747
13665TIP3    H162486   6.498   6.158   2.736  0.3544 -0.9798 -0.1319
13665TIP3    H262487   6.528   6.193   2.592 -0.7912 -1.4180 -0.4795
13666TIP3   OH262488   0.585   1.505  12.209  0.5813  0.3364 -0.0313
13666TIP3    H162489   0.505   1.557  12.210  0.1347 -0.3374 -0.4603
13666TIP3    H262490   0.556   1.415  12.227  1.1830  0.0196 -0.6329
13667TIP3   OH262491   1.643   1.276   1.150 -0.1640  0.0879  0.2198
13667TIP3    H162492   1.589   1.206   1.113 -0.4925  0.5151 -0.1286
13667TIP3    H262493   1.691   1.311   1.075  0.2365  0.0231  0.4491
13668TIP3   OH262494   6.238   1.298   4.635  0.4218  0.1389 -0.4324
13668TIP3    H162495   6.269   1.290   4.545  0.1789  3.0748 -0.8351
13668TIP3    H262496   6.295   1.363   4.674 -0.1362 -0.3580  1.2347
13669TIP3   OH262497   2.504   2.879  11.304 -0.0814  0.4276 -0.0058
13669TIP3    H162498   2.469   2.804  11.257 -0.3431  0.7559 -0.3396
13669TIP3    H262499   2.557   2.925  11.239 -0.2013  0.7198  0.1029
13670TIP3   OH262500   0.351   5.221   0.820 -0.1087  0.8185  0.0400
13670TIP3    H162501   0.277   5.254   0.770 -0.9376  0.2134  0.8691
13670TIP3    H262502   0.362   5.131   0.790 -0.1339  0.6917  0.4078
13671TIP3   OH262503   4.549   0.466  15.159  0.3346 -0.1283 -0.4428
13671TIP3    H162504   4.585   0.398  15.217 -0.4669  0.3231  0.6036
13671TIP3    H262505   4.570   0.548  15.203  0.8582  0.2932 -1.4527
13672TIP3   OH262506   5.947   4.144   2.716 -0.0867 -0.7135  0.5388
13672TIP3    H162507   6.026   4.177   2.673 -1.6054  2.0037 -0.3198
13672TIP3    H262508   5.896   4.104   2.645 -0.8082  0.2157  0.5254
13673TIP3   OH262509   5.420   3.781   5.639  0.2931 -0.0945  0.2661
13673TIP3    H162510   5.344   3.793   5.696  0.9814 -1.0144  1.4000
13673TIP3    H262511   5.382   3.764   5.553 -0.8113 -1.0690  0.9193
13674TIP3   OH262512   6.028   0.081   1.599 -0.3616 -0.6183  0.1061
13674TIP3    H162513   6.015   0.067   1.693 -0.7561  1.3663  0.3495
13674TIP3    H262514   5.958   0.140   1.573  1.3396  1.0225 -0.8851
13675TIP3   OH262515   4.949   2.604  15.403 -0.1900  0.4240  0.0805
13675TIP3    H162516   4.935   2.523  15.452 -1.9840 -0.0794 -1.1984
13675TIP3    H262517   4.877   2.661  15.429  0.9664  1.5602  0.8364
13676TIP3   OH262518   2.455   5.885   1.615 -0.6527  0.1442 -0.0299
13676TIP3    H162519   2.442   5.972   1.579 -0.0901  0.2545  0.0332
13676TIP3    H262520   2.464   5.898   1.710 -0.7237  0.0042 -0.0031
13677TIP3   OH262521   0.864   0.002   0.170  0.4306  0.2897 -0.3063
13677TIP3    H162522   0.792   0.054   0.206  1.0355  0.6888  0.3258
13677TIP3    H262523   0.882   0.043   0.085 -1.1848 -0.8326 -1.2278
13678TIP3   OH262524   3.914   6.247  14.648 -0.3001  0.4133 -0.0721
13678TIP3    H162525   3.874   6.163  14.670 -1.0918  1.3901  2.3419
13678TIP3    H262526   3.853   6.312  14.683  1.2634  1.9839 -0.2242
13679TIP3   OH262527   6.661   5.983   4.058 -0.1345 -0.3692 -0.1497
13679TIP3    H162528   6.713   5.904   4.042  0.0397 -0.2071 -0.3758
13679TIP3    H262529   6.638   6.015   3.971  0.3412  0.1963 -0.0673
13680TIP3   OH262530   1.854   1.512   6.136 -0.3763  0.6043  0.1789
13680TIP3    H162531   1.852   1.463   6.053  0.8878  0.1143  0.4194
13680TIP3    H262532   1.821   1.599   6.113 -3.0969 -0.4710 -0.1620
13681TIP3   OH262533   5.113   0.166  11.203 -0.1882 -0.9288 -0.0428
13681TIP3    H162534   5.206   0.186  11.217 -0.4115 -0.3098  0.5859
13681TIP3    H262535   5.071   0.252  11.201 -0.5832 -1.1553 -1.5226
13682TIP3   OH262536   5.783   2.022   2.447  0.5867 -0.1797  0.5893
13682TIP3    H162537   5.716   2.082   2.479  1.1680 -0.0270  1.5688
13682TIP3    H262538   5.865   2.059   2.479  1.1590 -0.2801 -0.7228
13683TIP3   OH262539   4.564   2.187  12.126  0.4117  0.1118  0.3885
13683TIP3    H162540   4.617   2.219  12.053 -0.8808 -0.4016 -0.7968
13683TIP3    H262541   4.568   2.258  12.191 -0.1194  1.4776 -1.0361
13684TIP3   OH262542   2.919   0.257   1.569 -0.1048  0.5648 -0.7364
13684TIP3    H162543   2.950   0.210   1.647  2.8037 -0.3048 -2.3342
13684TIP3    H262544   2.935   0.349   1.589  0.4211  0.3694 -0.2184
13685TIP3   OH262545   0.447   0.042  10.942  0.3909  0.8290  0.3912
13685TIP3    H162546   0.476   0.017  10.854  1.0511  3.0778 -0.0834
13685TIP3    H262547   0.495  -0.016  11.001  0.8097  0.0587 -0.6898
13686TIP3   OH262548   0.700   2.638  12.304 -0.0635  0.3887  0.7138
13686TIP3    H162549   0.618   2.687  12.302 -0.0120  0.4602 -1.6772
13686TIP3    H262550   0.676   2.552  12.337 -1.2685  0.1555 -0.6986
13687TIP3   OH262551   1.188   0.413   3.636  0.5438 -0.1345  0.3519
13687TIP3    H162552   1.141   0.352   3.693 -3.0426  2.2964  0.1774
13687TIP3    H262553   1.253   0.455   3.693 -0.5876 -0.2950  1.7820
13688TIP3   OH262554   4.233   1.226  17.066  0.5867 -0.2582  0.3061
13688TIP3    H162555   4.259   1.299  17.010 -0.1108  0.0331  0.3640
13688TIP3    H262556   4.224   1.264  17.153 -1.1216 -0.1199  0.0836
13689TIP3   OH262557   4.155   2.607   0.505 -0.0078  0.2268 -0.0719
13689TIP3    H162558   4.221   2.654   0.556  0.2096 -2.2359  2.0229
13689TIP3    H262559   4.194   2.521   0.489 -3.0067 -1.6305  2.0548
13690TIP3   OH262560   1.304   0.066   3.688  0.5304 -0.0736 -0.4490
13690TIP3    H162561   1.305  -0.014   3.740 -1.4660 -0.7531 -1.3855
13690TIP3    H262562   1.215   0.099   3.697  0.5805  0.5877 -2.2091
13691TIP3   OH262563   1.933   2.983  14.758  0.5234  0.2211 -0.0374
13691TIP3    H162564   2.022   2.969  14.726  1.3535  3.5844  0.6867
13691TIP3    H262565   1.944   3.008  14.850 -1.1751  0.9805 -0.0235
13692TIP3   OH262566   0.277   1.684   4.636 -0.3244  0.8079  0.3959
13692TIP3    H162567   0.322   1.674   4.720  2.3785  1.8782 -0.8396
13692TIP3    H262568   0.189   1.651   4.651  1.0502 -2.0033  2.7849
13693TIP3   OH262569   4.831   5.741  14.882 -0.5012  0.0300  0.4149
13693TIP3    H162570   4.907   5.716  14.934 -0.1651 -0.9111 -0.5145
13693TIP3    H262571   4.868   5.788  14.807 -0.9720  1.2237  0.9121
13694TIP3   OH262572   3.266   4.281   5.654 -0.8474  0.3498 -0.1331
13694TIP3    H162573   3.173   4.302   5.664 -0.5616  1.6108  0.0031
13694TIP3    H262574   3.299   4.271   5.743 -0.1852  3.0440 -0.0179
13695TIP3   OH262575   1.466   3.254   4.800  0.4020  0.0784 -0.5211
13695TIP3    H162576   1.493   3.177   4.750 -1.5351  0.6896 -2.5904
13695TIP3    H262577   1.398   3.221   4.859  1.3688 -0.2852  0.3909
13696TIP3   OH262578   6.584   6.108   4.506 -0.2544 -0.4389 -0.9363
13696TIP3    H162579   6.653   6.042   4.497  0.2047  0.2210 -2.3696
13696TIP3    H262580   6.622   6.188   4.470 -1.3603  0.2320 -0.6475
13697TIP3   OH262581   1.973   5.482   5.742  0.6134 -0.1583  0.6160
13697TIP3    H162582   2.051   5.428   5.728  0.7286 -0.0826  0.9583
13697TIP3    H262583   1.934   5.447   5.822  0.6335  0.1938  0.7846
13698TIP3   OH262584   1.221   5.349  12.030  0.1967  0.3713 -0.2489
13698TIP3    H162585   1.246   5.258  12.046 -0.8924  0.2297  0.7499
13698TIP3    H262586   1.192   5.351  11.939  2.4157  0.2406 -0.9965
13699TIP3   OH262587   6.245   5.754  16.489  0.7960  0.1441 -0.8996
13699TIP3    H162588   6.250   5.810  16.411 -1.7077  1.6596 -0.0328
13699TIP3    H262589   6.224   5.814  16.560  2.6701 -1.2910  0.8948
13700TIP3   OH262590   2.340   2.080  12.470 -0.1659  0.4129 -0.2820
13700TIP3    H162591   2.258   2.114  12.433 -0.6246  0.2341  0.5726
13700TIP3    H262592   2.364   2.142  12.539  1.9532  2.0698 -2.4131
13701TIP3   OH262593   5.150   3.706  15.664 -0.2958  0.0162  0.0064
13701TIP3    H162594   5.065   3.703  15.707  0.0870 -0.3180  0.7411
13701TIP3    H262595   5.130   3.735  15.574 -0.9758  1.7570  0.6829
13702TIP3   OH262596   3.958   4.397   1.005  0.3836 -0.0581  0.3190
13702TIP3    H162597   3.898   4.333   1.043  1.0215  0.6052  2.5618
13702TIP3    H262598   3.929   4.408   0.915  0.4534 -3.7088 -0.2070
13703TIP3   OH262599   4.026   6.119  14.064 -0.0173 -0.1120 -0.6860
13703TIP3    H162600   4.076   6.087  14.139 -0.4941 -1.2765 -0.8573
13703TIP3    H262601   3.975   6.044  14.035  1.2820 -0.1000 -3.1196
13704TIP3   OH262602   1.526   6.351  13.928 -0.5582 -0.1359  0.0563
13704TIP3    H162603   1.449   6.325  13.978 -0.2459 -0.3872  0.4076
13704TIP3    H262604   1.536   6.444  13.945 -1.4714  0.1462 -0.9201
13705TIP3   OH262605   3.041   2.987   2.522 -0.0920 -0.6243  0.8317
13705TIP3    H162606   3.010   3.070   2.485 -0.3853 -0.1551  2.0905
13705TIP3    H262607   3.081   2.941   2.448 -0.4194  0.3999  0.0002
13706TIP3   OH262608   2.568   2.567  11.506 -0.5799 -0.3927 -0.1851
13706TIP3    H162609   2.485   2.546  11.463  0.6961 -2.7363 -1.6388
13706TIP3    H262610   2.634   2.517  11.457  1.4493 -0.0855  2.1035
13707TIP3   OH262611   1.547   6.706  14.942  0.1314 -0.2831  0.7444
13707TIP3    H162612   1.565   6.613  14.932  1.8508  0.0279  0.7961
13707TIP3    H262613   1.631   6.745  14.968 -0.2683  1.4431 -0.4221
13708TIP3   OH262614   3.560   4.355   3.722 -0.3645 -0.3959  0.6779
13708TIP3    H162615   3.622   4.297   3.766 -0.3706 -0.3580  0.7369
13708TIP3    H262616   3.612   4.431   3.695  0.2935 -1.7920 -2.1352
13709TIP3   OH262617   6.350   3.834   3.382 -0.3413 -0.2024  0.5033
13709TIP3    H162618   6.337   3.799   3.294 -0.2190  0.2012  0.3252
13709TIP3    H262619   6.393   3.919   3.368 -2.0486  0.7446  0.8505
13710TIP3   OH262620   4.337   4.827  16.979  0.0230  0.3082  0.3374
13710TIP3    H162621   4.353   4.760  17.045  1.5409  2.2434  2.0058
13710TIP3    H262622   4.414   4.823  16.921  0.6942  1.3468  1.1281
13711TIP3   OH262623   4.189   4.662  15.386 -0.3991  0.1317  0.2615
13711TIP3    H162624   4.198   4.748  15.427  0.6162  0.0815  0.1631
13711TIP3    H262625   4.098   4.637  15.402 -1.1355  1.8768 -0.9974
13712TIP3   OH262626   4.629   5.152   3.354  0.2647 -0.2802 -0.3300
13712TIP3    H162627   4.689   5.191   3.418  2.9373 -0.4769 -2.6655
13712TIP3    H262628   4.571   5.096   3.407  2.0236  0.0185  1.9807
13713TIP3   OH262629   0.946   2.561  13.616 -0.2533  0.0929  0.4010
13713TIP3    H162630   0.985   2.523  13.695 -0.9114 -1.5157 -0.0168
13713TIP3    H262631   1.020   2.602  13.570  0.5485 -0.9401  0.7428
13714TIP3   OH262632   0.367   6.477  13.255 -0.1419 -0.6610  0.2411
13714TIP3    H162633   0.349   6.505  13.345  0.8009 -0.3471  0.3451
13714TIP3    H262634   0.326   6.391  13.247 -0.3187 -0.6425  0.9431
13715TIP3   OH262635   4.308   1.631  17.134  0.2489 -0.1036 -0.1061
13715TIP3    H162636   4.331   1.680  17.213  0.8794  1.2699 -1.1149
13715TIP3    H262637   4.390   1.592  17.105  0.2757  0.4743 -0.8106
13716TIP3   OH262638   0.704   2.229  16.117  0.4778 -0.5132 -0.4305
13716TIP3    H162639   0.726   2.294  16.184 -0.6668 -0.3855 -0.1777
13716TIP3    H262640   0.767   2.158  16.131 -0.3286 -0.8891  1.3571
13717TIP3   OH262641   3.173   0.730  13.030 -0.0967  0.0628 -0.2491
13717TIP3    H162642   3.229   0.776  12.968  0.8496  1.3920  1.5661
13717TIP3    H262643   3.095   0.706  12.979  1.1267  0.1690 -2.2024
13718TIP3   OH262644   4.654   6.113  12.946  0.6266  0.2914  0.0672
13718TIP3    H162645   4.679   6.147  13.032 -1.0998  1.7453  0.0259
13718TIP3    H262646   4.560   6.097  12.953  0.6651 -0.5846 -1.2397
13719TIP3   OH262647   5.654   6.312  16.360  0.7199  0.5104 -0.3556
13719TIP3    H162648   5.666   6.222  16.392 -1.4290  0.6240  0.8787
13719TIP3    H262649   5.607   6.356  16.431 -1.0699  1.7388 -2.2562
13720TIP3   OH262650   4.815   3.887  12.291 -0.2569 -0.4194  0.1228
13720TIP3    H162651   4.734   3.898  12.341 -0.6347 -0.8209 -0.3975
13720TIP3    H262652   4.853   3.975  12.287 -0.6455 -0.2381  0.3953
13721TIP3   OH262653   4.886   0.431  13.536  0.6431  0.7132 -0.3871
13721TIP3    H162654   4.884   0.527  13.545  2.1546  0.6445  0.9311
13721TIP3    H262655   4.854   0.399  13.621  1.1128  0.0432 -0.4609
13722TIP3   OH262656   3.257   0.963   3.724  0.1611  0.4651  0.4577
13722TIP3    H162657   3.224   0.874   3.737 -1.4501  0.8675 -0.7176
13722TIP3    H262658   3.207   0.997   3.650  1.0684  2.2069  0.6042
13723TIP3   OH262659   2.727   4.857  14.444  0.6684  0.1091 -0.1985
13723TIP3    H162660   2.687   4.843  14.530 -1.5393  1.2644 -1.0145
13723TIP3    H262661   2.735   4.952  14.436 -0.6024  0.0931 -1.9049
13724TIP3   OH262662   4.294   6.741  13.845 -0.4062  0.4021  0.1671
13724TIP3    H162663   4.264   6.781  13.926 -1.3974  1.3955 -0.6718
13724TIP3    H262664   4.387   6.760  13.842 -0.4385  0.6838  0.8881
13725TIP3   OH262665   2.281   0.609   3.738  0.0765  0.5250 -0.0347
13725TIP3    H162666   2.330   0.686   3.767 -1.3063  0.8958  1.3526
13725TIP3    H262667   2.305   0.540   3.799 -0.8724  0.6217  0.4568
13726TIP3   OH262668   0.152   6.069   6.279 -0.4340 -0.3303  0.1563
13726TIP3    H162669   0.240   6.045   6.307 -0.8127 -0.4745  1.2549
13726TIP3    H262670   0.105   5.986   6.272 -0.6796 -0.2057  0.2852
13727TIP3   OH262671   5.188   6.808   3.532  0.2049 -0.8540  0.2510
13727TIP3    H162672   5.151   6.896   3.528  2.1188  0.0402  1.2787
13727TIP3    H262673   5.168   6.777   3.620  0.1248 -1.1708  0.1217
13728TIP3   OH262674   3.697   1.001  13.726  0.2469  0.3646 -0.3163
13728TIP3    H162675   3.640   1.022  13.652 -0.2513  2.7463  0.6971
13728TIP3    H262676   3.766   1.066  13.722 -0.6841  1.5649  2.2557
13729TIP3   OH262677   2.396   3.302  14.632  0.3398 -0.1313 -0.1408
13729TIP3    H162678   2.464   3.248  14.594 -0.4496 -0.1286 -1.6000
13729TIP3    H262679   2.341   3.327  14.558 -1.7745 -0.8821  1.1302
13730TIP3   OH262680   5.250   3.716   1.500  0.1733 -0.6830  0.5655
13730TIP3    H162681   5.320   3.757   1.551  0.6404  1.1380 -1.4890
13730TIP3    H262682   5.173   3.719   1.558  1.3290 -1.0990  2.1637
13731TIP3   OH262683   4.635   1.129  15.105 -0.2250 -0.3423 -0.1413
13731TIP3    H162684   4.675   1.106  15.188 -0.2080 -0.1616 -0.0998
13731TIP3    H262685   4.558   1.073  15.099  0.4867 -1.2712 -0.6057
13732TIP3   OH262686   1.299   5.658   4.720  0.4808  0.6403 -0.7646
13732TIP3    H162687   1.210   5.625   4.705  0.6862 -0.0993 -0.3438
13732TIP3    H262688   1.347   5.583   4.755  0.9278  1.4093  0.2780
13733TIP3   OH262689   0.644   4.221   4.864 -0.1329 -0.0775  0.0627
13733TIP3    H162690   0.727   4.234   4.910  0.1295 -0.3197 -0.3402
13733TIP3    H262691   0.669   4.211   4.772 -0.6183 -0.0580 -0.0725
13734TIP3   OH262692   0.436   6.233  11.058  0.6679  0.3119  0.6145
13734TIP3    H162693   0.358   6.215  11.005  0.4938  0.6293  0.7639
13734TIP3    H262694   0.497   6.163  11.036 -0.6901 -1.5398  2.5169
13735TIP3   OH262695   2.739   1.330   2.554 -0.1613  0.4749  0.3889
13735TIP3    H162696   2.731   1.424   2.541  0.9075  0.1858 -2.6359
13735TIP3    H262697   2.716   1.291   2.470  0.0410 -1.9489  1.4031
13736TIP3   OH262698   0.422   5.205   0.178 -0.0709 -0.2236 -0.1538
13736TIP3    H162699   0.355   5.139   0.160  0.8152 -1.3794  0.7673
13736TIP3    H262700   0.388   5.255   0.252 -0.0500 -0.6093  0.1126
13737TIP3   OH262701   2.231   0.105   3.977  0.2824 -0.6964 -0.0895
13737TIP3    H162702   2.319   0.093   4.013  0.8282  0.1450 -1.1010
13737TIP3    H262703   2.241   0.090   3.883  0.0492  2.6468 -0.7152
13738TIP3   OH262704   6.692   0.339  17.221  0.4252  0.0178  0.7970
13738TIP3    H162705   6.692   0.339  17.317 -0.2846  0.0798  0.8057
13738TIP3    H262706   6.635   0.266  17.198  0.1038  0.3823  0.4312
13739TIP3   OH262707   3.869   3.587  11.977 -0.1274  0.1762  0.8968
13739TIP3    H162708   3.832   3.537  11.905  1.3756 -0.6360  0.6745
13739TIP3    H262709   3.889   3.522  12.044 -0.3069  0.7661  1.5277
13740TIP3   OH262710   5.629   2.580  15.958 -0.3503  0.0451  0.6037
13740TIP3    H162711   5.654   2.569  15.866  0.3043 -2.7207  1.0757
13740TIP3    H262712   5.710   2.569  16.007 -0.9813 -0.1878  1.6155
13741TIP3   OH262713   5.590   6.187  13.297 -0.0034 -0.6199  0.3620
13741TIP3    H162714   5.643   6.117  13.335  1.4516  1.6000  2.5546
13741TIP3    H262715   5.654   6.252  13.266 -1.3440  0.4694 -0.1995
13742TIP3   OH262716   6.123   5.261   0.211 -0.2094 -0.4216  0.4098
13742TIP3    H162717   6.090   5.280   0.124  0.3024  0.2079  0.3437
13742TIP3    H262718   6.192   5.196   0.197 -1.2722 -1.6011  0.5302
13743TIP3   OH262719   4.186   3.567  17.190 -0.6927  0.6121 -0.3009
13743TIP3    H162720   4.194   3.478  17.157 -2.6113  0.3880 -0.1762
13743TIP3    H262721   4.207   3.622  17.114  1.0192  0.0826 -0.2398
13744TIP3   OH262722   1.137   4.011  12.742  0.1969  0.6649 -0.0015
13744TIP3    H162723   1.097   3.970  12.665 -1.1680 -0.5647  1.3541
13744TIP3    H262724   1.085   4.091  12.755  0.1284  0.6314 -0.0619
13745TIP3   OH262725   5.439   4.765   6.231 -0.5160 -0.2036  0.2806
13745TIP3    H162726   5.353   4.756   6.190  0.0754 -0.8462 -0.8451
13745TIP3    H262727   5.461   4.676   6.258  0.1728 -0.1828 -0.2091
13746TIP3   OH262728   2.714   3.347  16.128 -0.6046 -0.3684 -0.0039
13746TIP3    H162729   2.690   3.437  16.106 -1.2895 -0.3121  0.9369
13746TIP3    H262730   2.731   3.305  16.043 -2.8307 -0.0578 -0.6359
13747TIP3   OH262731   3.347   0.125  13.198 -0.3518  0.0661  0.4743
13747TIP3    H162732   3.391   0.181  13.135 -1.3193 -0.1703 -0.4163
13747TIP3    H262733   3.415   0.064  13.228  0.4266  1.0167  0.6514
13748TIP3   OH262734   0.124   4.627   1.293  0.1873 -0.2487 -0.4847
13748TIP3    H162735   0.179   4.703   1.310  0.9935 -0.8314 -0.4820
13748TIP3    H262736   0.174   4.575   1.229 -0.3400 -0.7905 -0.4617
13749TIP3   OH262737   4.545   2.356  16.715 -0.2654  0.0364 -0.4691
13749TIP3    H162738   4.522   2.267  16.687  0.0431 -0.4544  0.8102
13749TIP3    H262739   4.569   2.401  16.634  0.4202 -1.2931 -1.0181
13750TIP3   OH262740   6.565   1.719  13.221 -0.0177  0.2112 -0.1622
13750TIP3    H162741   6.615   1.647  13.184 -0.5439 -0.6008  0.6807
13750TIP3    H262742   6.588   1.720  13.314  0.9197  1.9092 -0.3871
13751TIP3   OH262743   1.994   5.249  14.998  0.5752  0.4485 -0.9565
13751TIP3    H162744   2.068   5.232  15.056  1.4459  1.0619 -1.8651
13751TIP3    H262745   1.949   5.165  14.990  1.1834  0.0722 -0.4040
13752TIP3   OH262746   5.454   1.134   2.306 -0.0598  0.4805 -0.5259
13752TIP3    H162747   5.390   1.199   2.335  2.4712  1.4680  3.2788
13752TIP3    H262748   5.451   1.065   2.372  1.4435 -0.3589 -1.2914
13753TIP3   OH262749   6.286   4.653  10.982 -0.5397  0.5015  0.4199
13753TIP3    H162750   6.321   4.700  10.907 -0.4481 -0.2110  0.0112
13753TIP3    H262751   6.257   4.569  10.947  0.4702 -0.2559  1.3698
13754TIP3   OH262752   6.415   0.237   6.510 -0.0371  0.0266  0.4213
13754TIP3    H162753   6.399   0.332   6.511 -2.0659 -0.1972 -2.6704
13754TIP3    H262754   6.373   0.205   6.590  0.0266  1.6312  1.1279
13755TIP3   OH262755   0.343   1.056   2.791  0.4101  0.1406 -0.5327
13755TIP3    H162756   0.380   0.984   2.842  0.4681 -0.8717 -1.9662
13755TIP3    H262757   0.302   1.113   2.855 -1.2422 -2.1247  0.4843
13756TIP3   OH262758   1.341   5.859  14.881  0.3565 -0.0072 -0.3020
13756TIP3    H162759   1.321   5.793  14.814  1.6419  0.1509 -0.8479
13756TIP3    H262760   1.335   5.942  14.834 -2.7876  0.4097  0.7296
13757TIP3   OH262761   5.590   0.121  15.933 -0.3476 -0.2724 -0.6406
13757TIP3    H162762   5.594   0.165  16.018 -0.1725  1.7115 -1.6437
13757TIP3    H262763   5.551   0.035  15.952  1.9747 -0.8488  1.8124
13758TIP3   OH262764   5.915   2.992  11.116  0.1131  0.1935  0.2012
13758TIP3    H162765   5.877   2.933  11.051  0.7860 -0.6818  0.5903
13758TIP3    H262766   6.003   3.009  11.083  0.0663  0.6476  0.3102
13759TIP3   OH262767   5.053   4.959  17.241  0.1540 -0.4186 -0.2600
13759TIP3    H162768   5.056   4.904  17.163  4.7489 -0.4330 -0.1749
13759TIP3    H262769   5.031   4.899  17.312 -1.2023 -0.9138 -1.0707
13760TIP3   OH262770   5.657   0.004   4.243 -0.8726 -0.2871 -0.0708
13760TIP3    H162771   5.573   0.031   4.205 -1.8843 -0.6826  1.8286
13760TIP3    H262772   5.656  -0.091   4.237 -0.6112 -0.2991  0.0992
13761TIP3   OH262773   6.808   1.942   5.804 -0.3322  0.5926 -0.6339
13761TIP3    H162774   6.857   1.989   5.736  0.3708  1.9004  0.7454
13761TIP3    H262775   6.737   1.900   5.757 -0.3318  2.1418 -2.0858
13762TIP3   OH262776   5.264   2.018  12.626 -0.8696 -0.0333  0.1830
13762TIP3    H162777   5.265   2.098  12.572 -1.5892 -0.2606 -0.1651
13762TIP3    H262778   5.209   1.957  12.577 -1.1917 -0.3832  0.9806
13763TIP3   OH262779   5.899   3.247   2.722 -0.0949  0.2871  0.2973
13763TIP3    H162780   5.908   3.152   2.712 -1.7756  0.2165 -0.6030
13763TIP3    H262781   5.948   3.283   2.648  1.0450  0.1652  0.9665
13764TIP3   OH262782   0.694   6.770   1.832  0.2811  0.2583  0.2929
13764TIP3    H162783   0.729   6.815   1.909  1.3208 -1.1304  0.6554
13764TIP3    H262784   0.693   6.678   1.857 -0.5867 -0.0684 -0.9103
13765TIP3   OH262785   6.336   3.911  17.125  0.0173  0.2014 -0.0443
13765TIP3    H162786   6.367   3.967  17.196  1.1002 -1.2477  0.6603
13765TIP3    H262787   6.332   3.968  17.049 -0.6680  1.6592  1.0635
13766TIP3   OH262788   6.552   5.981  15.572  0.0972 -0.0581  0.2703
13766TIP3    H162789   6.481   5.993  15.510  0.3985  2.9187  0.4431
13766TIP3    H262790   6.516   6.009  15.656  1.4979  1.6620  0.3279
13767TIP3   OH262791   3.199   4.281   2.634  0.4707 -0.1472 -0.2680
13767TIP3    H162792   3.144   4.266   2.710 -3.0495  1.8151 -2.3155
13767TIP3    H262793   3.204   4.195   2.591 -2.4613 -0.0222 -0.9475
13768TIP3   OH262794   4.896   1.957  13.011  0.6394  0.1185 -0.6450
13768TIP3    H162795   4.811   1.915  12.997  0.5389  0.5981 -1.4981
13768TIP3    H262796   4.960   1.890  12.991  0.4657 -0.2867  0.1301
13769TIP3   OH262797   2.798   0.359   5.519 -0.1346  0.2638 -0.3024
13769TIP3    H162798   2.804   0.413   5.598 -0.9145  0.1370 -0.1482
13769TIP3    H262799   2.712   0.382   5.482 -0.2504 -0.4999 -0.5062
13770TIP3   OH262800   0.617   5.581  11.678 -0.0803 -0.1249 -0.2983
13770TIP3    H162801   0.583   5.504  11.724  1.3327 -0.5097  0.1073
13770TIP3    H262802   0.645   5.547  11.593  0.7135 -0.0863 -0.0472
13771TIP3   OH262803   0.054   4.931  12.927 -0.4568 -0.1176  0.2459
13771TIP3    H162804  -0.013   4.888  12.873 -0.6702 -0.6838  0.9530
13771TIP3    H262805   0.136   4.887  12.904 -0.3999  0.2613 -0.2839
13772TIP3   OH262806   4.420   2.915  14.988 -0.1792 -0.1086  0.1094
13772TIP3    H162807   4.355   2.922  15.058  0.8531 -1.3478  1.2048
13772TIP3    H262808   4.504   2.924  15.032  0.4003  2.7556 -1.4698
13773TIP3   OH262809   1.714   0.538   1.872 -0.4219  0.3495  1.1605
13773TIP3    H162810   1.810   0.546   1.873 -0.4034  0.1023  2.0904
13773TIP3    H262811   1.687   0.588   1.796  0.3545  1.6998  1.7474
13774TIP3   OH262812   0.490   2.178  12.849 -0.1373 -0.0124 -0.1202
13774TIP3    H162813   0.423   2.237  12.815 -0.2762 -0.5103 -0.7114
13774TIP3    H262814   0.565   2.235  12.866 -1.5750  1.0284  3.1346
13775TIP3   OH262815   5.104   0.451  11.175 -0.2681  0.0521 -0.2169
13775TIP3    H162816   5.193   0.451  11.210 -0.6231  1.8873  0.7275
13775TIP3    H262817   5.113   0.489  11.088 -0.6366  3.9891  1.3729
13776TIP3   OH262818   2.843   4.619   3.246 -0.1213  0.2588 -0.4856
13776TIP3    H162819   2.904   4.693   3.249  2.0635 -1.4581 -1.4326
13776TIP3    H262820   2.883   4.557   3.185 -2.0865 -1.5850  0.0362
13777TIP3   OH262821   3.105   2.299  10.338  0.1858  0.6402  0.4069
13777TIP3    H162822   3.083   2.392  10.330 -1.0247  0.4360  1.2560
13777TIP3    H262823   3.021   2.256  10.355  0.8771 -0.4973  0.9802
13778TIP3   OH262824   2.420   5.394   4.038 -0.0533  0.0873  0.2604
13778TIP3    H162825   2.448   5.332   4.106  0.1699  0.1539  0.2304
13778TIP3    H262826   2.393   5.471   4.087 -2.2307 -0.7538  0.4096
13779TIP3   OH262827   4.682   6.151  17.180 -0.5342 -0.1718  0.4646
13779TIP3    H162828   4.596   6.122  17.211 -0.6289 -2.6456 -1.9108
13779TIP3    H262829   4.744   6.088  17.217  0.4146  1.9530  2.6751
13780TIP3   OH262830   4.780   5.354  13.303  0.7645 -0.1585  0.3721
13780TIP3    H162831   4.787   5.445  13.330 -1.0050 -0.5610  2.3333
13780TIP3    H262832   4.721   5.356  13.227 -0.4948  0.1937  1.3425
13781TIP3   OH262833   3.031   3.825  11.870 -0.3558 -0.0361 -0.1995
13781TIP3    H162834   2.983   3.865  11.943  0.8937  0.1875  0.5322
13781TIP3    H262835   3.079   3.898  11.831  2.3403 -0.8307  1.4659
13782TIP3   OH262836   2.217   1.921  13.417 -0.6694  0.0951  0.4094
13782TIP3    H162837   2.227   1.864  13.493  0.7200  0.4550  0.5035
13782TIP3    H262838   2.273   1.997  13.435  1.2715 -0.7201 -1.8301
13783TIP3   OH262839   5.754   6.739  13.926  0.1661  1.0966  0.2556
13783TIP3    H162840   5.831   6.700  13.969 -0.8066  0.7133  1.6914
13783TIP3    H262841   5.762   6.713  13.834  1.1972  0.1729  0.5934
13784TIP3   OH262842   4.313   5.493  11.471 -0.3097 -0.0165 -0.2585
13784TIP3    H162843   4.274   5.516  11.387  0.2064 -0.3456 -0.5941
13784TIP3    H262844   4.247   5.518  11.536 -0.5990  0.4923 -0.7404
13785TIP3   OH262845   6.252   4.074   4.698 -0.3922  0.3145  0.1960
13785TIP3    H162846   6.325   4.042   4.751  0.0029 -0.3940 -0.7540
13785TIP3    H262847   6.174   4.045   4.745 -0.0551 -3.1363 -1.2022
13786TIP3   OH262848   0.341   0.420  14.159 -0.6958  0.6505  0.2775
13786TIP3    H162849   0.338   0.343  14.102 -2.0478  0.7321  0.2184
13786TIP3    H262850   0.393   0.484  14.110  0.6567 -0.3031  0.4403
13787TIP3   OH262851   0.928   4.305  14.719 -0.6676  0.9056  0.1633
13787TIP3    H162852   1.005   4.338  14.672 -0.5902 -0.5566 -0.7657
13787TIP3    H262853   0.962   4.273  14.802 -0.2716  0.3269 -0.2184
13788TIP3   OH262854   6.602   2.286   5.366 -0.0748  0.2586  0.1599
13788TIP3    H162855   6.677   2.313   5.419 -0.3836 -0.2699  0.8536
13788TIP3    H262856   6.589   2.194   5.386  0.3749 -0.1983 -1.5138
13789TIP3   OH262857   4.641   6.618   4.243 -0.1158  0.4095 -0.0306
13789TIP3    H162858   4.594   6.547   4.200 -0.7469  0.6301  0.2897
13789TIP3    H262859   4.612   6.616   4.334 -1.0473  1.8192 -0.2776
13790TIP3   OH262860   4.311   5.191  14.729  0.5076  0.0631 -0.3391
13790TIP3    H162861   4.261   5.168  14.650 -0.8016 -2.3834  1.1290
13790TIP3    H262862   4.398   5.155  14.714  0.6974  0.8497 -1.2291
13791TIP3   OH262863   3.553   2.354  11.302  0.1163 -0.0183 -0.1378
13791TIP3    H162864   3.545   2.342  11.397  1.3920 -2.0135 -0.2349
13791TIP3    H262865   3.554   2.264  11.267 -0.6504  0.7018 -2.0582
13792TIP3   OH262866   3.138   2.792  10.689 -0.3834 -0.7251  0.5780
13792TIP3    H162867   3.135   2.849  10.765 -0.4743  1.3249 -0.9038
13792TIP3    H262868   3.087   2.839  10.622  1.3859 -1.4979 -1.3687
13793TIP3   OH262869   4.337   0.179   0.406 -0.5092 -0.0345  0.0182
13793TIP3    H162870   4.344   0.203   0.498 -2.6937 -1.5112  0.6247
13793TIP3    H262871   4.391   0.100   0.398  0.9048  0.9589 -0.3278
13794TIP3   OH262872   2.163   0.096   2.803  0.1160  0.3097 -0.8158
13794TIP3    H162873   2.198   0.080   2.891  0.8908  0.9354 -1.0075
13794TIP3    H262874   2.165   0.191   2.793 -1.9970  0.4040 -0.6893
13795TIP3   OH262875   1.121   5.978  16.191 -0.2722  0.2037  0.1714
13795TIP3    H162876   1.211   5.979  16.157 -0.5277 -0.3035 -0.5353
13795TIP3    H262877   1.123   5.911  16.260  0.1489  0.9520  0.8951
13796TIP3   OH262878   0.625   4.964   3.474  0.4512 -0.1657 -0.2376
13796TIP3    H162879   0.665   5.006   3.398 -0.0767 -1.0346 -1.0048
13796TIP3    H262880   0.698   4.920   3.518  1.0147  1.5294  0.5859
13797TIP3   OH262881   5.004   2.604   5.090  0.8028  0.4654 -0.0281
13797TIP3    H162882   5.020   2.683   5.143  0.4217  0.1765  0.5149
13797TIP3    H262883   5.061   2.616   5.014  0.2667  1.5779 -0.2717
13798TIP3   OH262884   5.008   6.205   5.054 -0.1325  0.3116 -0.1810
13798TIP3    H162885   4.934   6.197   5.113 -0.7518 -0.2921 -1.0247
13798TIP3    H262886   4.969   6.214   4.967  0.7768 -1.4868 -0.8112
13799TIP3   OH262887   2.049   3.220  13.863  0.1298  0.8680  0.4883
13799TIP3    H162888   2.007   3.302  13.837 -0.2912  0.9092  1.2959
13799TIP3    H262889   2.072   3.233  13.955  1.5355  0.6854  0.1781
13800TIP3   OH262890   5.125   2.445  16.456  0.2666  0.2272  0.1694
13800TIP3    H162891   5.048   2.453  16.400 -1.5034 -1.3462  2.2826
13800TIP3    H262892   5.153   2.354  16.445  1.3216  0.5615  0.0545
13801TIP3   OH262893   0.963   2.127   2.799 -1.1664  0.9783 -0.0541
13801TIP3    H162894   0.972   2.119   2.894  0.6785  2.7737 -0.0427
13801TIP3    H262895   1.037   2.078   2.763 -1.0088  1.5377 -0.5068
13802TIP3   OH262896   1.369   2.984  15.418 -0.0766  0.1091 -0.2553
13802TIP3    H162897   1.411   3.022  15.340 -0.7023 -0.0063 -0.6491
13802TIP3    H262898   1.441   2.972  15.480  0.2607  1.1780 -0.4225
13803TIP3   OH262899   0.343   3.786   2.254  0.2257 -0.0888  0.2476
13803TIP3    H162900   0.363   3.693   2.250 -0.2470 -0.2093  0.5883
13803TIP3    H262901   0.378   3.814   2.339  0.9973  0.2009 -0.1584
13804TIP3   OH262902   2.154   1.473  15.298  0.1905  0.3011  0.4870
13804TIP3    H162903   2.249   1.483  15.291  0.4274 -0.8654  1.7927
13804TIP3    H262904   2.129   1.424  15.220  0.7582  0.0061  0.4880
13805TIP3   OH262905   6.816   3.688   0.202 -0.4722  0.4692 -0.2725
13805TIP3    H162906   6.860   3.768   0.171  1.4506 -0.3323  0.3261
13805TIP3    H262907   6.782   3.712   0.288  0.7527  0.4454  0.2345
13806TIP3   OH262908   2.285   3.372  13.684 -0.1137 -0.8572 -0.2648
13806TIP3    H162909   2.372   3.360  13.721 -0.1679 -0.7560 -0.1070
13806TIP3    H262910   2.225   3.341  13.752 -0.2030 -0.8919 -0.3583
13807TIP3   OH262911   4.881   2.520  11.004 -0.1044  0.1001 -0.5268
13807TIP3    H162912   4.882   2.513  11.099  0.7631  0.2063 -0.5236
13807TIP3    H262913   4.943   2.453  10.974 -1.9642 -1.4016 -1.1273
13808TIP3   OH262914   5.502   1.140   5.085 -0.1801 -0.3018  0.4456
13808TIP3    H162915   5.459   1.160   5.168 -0.1126  3.4001 -0.3277
13808TIP3    H262916   5.568   1.074   5.107 -1.1239 -0.4340  3.0335
13809TIP3   OH262917   5.011   5.999   0.733 -0.3485 -0.0970 -0.7751
13809TIP3    H162918   4.963   5.936   0.786 -1.2769  1.3409  0.1271
13809TIP3    H262919   5.087   6.023   0.786  0.1890 -0.6933 -1.2622
13810TIP3   OH262920   4.111   5.484  10.891  0.5542 -0.0133 -0.6943
13810TIP3    H162921   4.197   5.508  10.925 -0.5371  0.7166  1.6056
13810TIP3    H262922   4.101   5.538  10.812  2.3831 -0.4664 -1.2526
13811TIP3   OH262923   5.819   5.269  13.291 -0.3038 -0.2799  0.3780
13811TIP3    H162924   5.898   5.276  13.237 -1.4964  0.0287 -1.3853
13811TIP3    H262925   5.833   5.192  13.345  1.7676  0.5247  1.0453
13812TIP3   OH262926   6.482   2.945   4.047 -0.0268 -0.3407 -0.0505
13812TIP3    H162927   6.456   2.950   4.139 -0.5441 -0.8085 -0.1672
13812TIP3    H262928   6.462   2.855   4.022  2.4872 -0.9788  0.0856
13813TIP3   OH262929   5.404   2.416   2.694  1.1537 -0.1255  0.2903
13813TIP3    H162930   5.385   2.400   2.602 -0.3175 -0.0779  0.5610
13813TIP3    H262931   5.349   2.491   2.717  2.4791  0.6755  0.8871
13814TIP3   OH262932   5.365   3.931  11.451  0.1193 -0.5161  0.3834
13814TIP3    H162933   5.439   3.875  11.428  0.9933  0.1951  1.4182
13814TIP3    H262934   5.391   3.972  11.534 -1.4490 -0.2948  0.7793
13815TIP3   OH262935   3.360   3.423   4.481 -0.2137  0.1455  0.0837
13815TIP3    H162936   3.415   3.371   4.539 -0.9303  0.3816  0.9783
13815TIP3    H262937   3.409   3.505   4.469 -0.7179  0.6543  1.4809
13816TIP3   OH262938   4.561   2.886   3.429 -0.1711 -0.3915  0.0971
13816TIP3    H162939   4.593   2.976   3.423 -0.3410 -0.3468 -0.1254
13816TIP3    H262940   4.638   2.832   3.410  0.0360 -0.3029  0.6576
13817TIP3   OH262941   5.919   6.378  14.603  0.5895 -0.3286  0.0863
13817TIP3    H162942   5.913   6.340  14.515  0.5316 -0.5780  0.1972
13817TIP3    H262943   5.828   6.388  14.631  0.5733  1.0004 -0.4129
13818TIP3   OH262944   4.096   1.786  14.781 -0.7564 -0.1393  0.4670
13818TIP3    H162945   4.111   1.881  14.785 -2.2598  0.0983  0.8858
13818TIP3    H262946   4.010   1.774  14.821 -0.5052 -1.7067  0.5551
13819TIP3   OH262947   1.574   4.311  14.933  0.2327  0.0189  0.1774
13819TIP3    H162948   1.619   4.345  15.010  1.2402  1.3551 -0.9742
13819TIP3    H262949   1.642   4.265  14.883 -0.3587 -0.6257 -0.0470
13820TIP3   OH262950   6.237   3.847   4.290  0.5881  0.5145 -0.0950
13820TIP3    H162951   6.272   3.788   4.358 -0.3230  0.3954  0.2821
13820TIP3    H262952   6.142   3.844   4.303  0.3917  0.3638 -1.4843
13821TIP3   OH262953   5.838   4.712  11.659  0.2130  0.3608  0.0127
13821TIP3    H162954   5.907   4.709  11.593  0.3520 -0.0315  0.1738
13821TIP3    H262955   5.837   4.624  11.697  0.1218  0.5776  0.5204
13822TIP3   OH262956   2.767   4.287  16.474  0.9095 -0.1768 -0.5566
13822TIP3    H162957   2.786   4.218  16.538  0.6425 -0.6803 -1.0204
13822TIP3    H262958   2.675   4.273  16.450 -0.1395  2.2917  1.7373
13823TIP3   OH262959   1.401   0.043  14.424  0.0978  0.4467 -0.0068
13823TIP3    H162960   1.381   0.048  14.517  0.9168 -0.0470  0.1965
13823TIP3    H262961   1.496   0.050  14.419  0.2846 -1.9623 -0.6089
13824TIP3   OH262962   3.325   0.675   4.859  0.5660 -0.0928 -0.5302
13824TIP3    H162963   3.399   0.700   4.914 -0.1412  0.1370  0.3300
13824TIP3    H262964   3.290   0.759   4.827  0.5563 -0.1897 -0.7723
13825TIP3   OH262965   5.208   3.094  14.535 -0.1069 -0.1800 -0.7021
13825TIP3    H162966   5.158   3.028  14.489 -0.5396  0.3969 -1.0671
13825TIP3    H262967   5.143   3.158  14.564  0.2314 -0.2310  0.1805
13826TIP3   OH262968   6.458   3.461   0.308 -0.0378  0.1491  0.0033
13826TIP3    H162969   6.491   3.549   0.325 -0.2539  0.6806 -2.1750
13826TIP3    H262970   6.522   3.423   0.247 -0.6503 -0.7277 -0.0976
13827TIP3   OH262971   5.063   4.369   6.072 -0.1322 -0.1476  0.2614
13827TIP3    H162972   5.023   4.386   6.158  1.2066 -0.5070  0.9794
13827TIP3    H262973   5.149   4.412   6.077 -0.0724 -0.1164 -0.9308
13828TIP3   OH262974   5.391   2.067   3.546  0.0020 -0.9300 -0.0380
13828TIP3    H162975   5.424   2.153   3.523  0.3108 -0.5553  1.7285
13828TIP3    H262976   5.424   2.009   3.477  0.1366  0.2770 -1.0058
13829TIP3   OH262977   3.682   2.784  14.633 -0.6016 -0.3239  0.1986
13829TIP3    H162978   3.698   2.733  14.712  0.5295  0.2649  0.3642
13829TIP3    H262979   3.758   2.766  14.577 -0.1908  1.1611  0.2551
13830TIP3   OH262980   5.102   5.985  14.255  0.1137 -0.0175  0.6114
13830TIP3    H162981   5.075   5.893  14.257  2.2031 -0.6608  0.1596
13830TIP3    H262982   5.158   5.996  14.331  1.4098  0.3879 -0.3776
13831TIP3   OH262983   1.448   0.537  11.077  0.1242  0.0223 -0.6032
13831TIP3    H162984   1.401   0.456  11.097  0.0044  0.3372  0.4424
13831TIP3    H262985   1.423   0.558  10.987 -1.2212 -0.1584 -0.2831
13832TIP3   OH262986   5.276   4.475  15.839 -0.3624 -0.2843  0.0847
13832TIP3    H162987   5.336   4.446  15.771  0.1960  1.7741 -0.3327
13832TIP3    H262988   5.193   4.431  15.818 -0.0254 -0.1756 -1.5370
13833TIP3   OH262989   1.203   2.153   4.943  0.5029 -0.4064  0.3267
13833TIP3    H162990   1.289   2.135   4.981  0.5768  0.5440  0.6131
13833TIP3    H262991   1.214   2.234   4.893 -0.6450  0.7048  1.8160
13834TIP3   OH262992   6.620   2.289  14.937 -0.2618 -0.0122  0.4112
13834TIP3    H162993   6.549   2.229  14.912  0.1887 -0.5649  0.4551
13834TIP3    H262994   6.575   2.367  14.970 -0.8421 -0.6100  1.0347
13835TIP3   OH262995   6.252   1.886  15.437  0.9044  0.7309 -0.7234
13835TIP3    H162996   6.286   1.957  15.491  0.7779 -0.0731  0.4141
13835TIP3    H262997   6.321   1.819  15.439 -0.7855 -1.0059  1.7690
13836TIP3   OH262998   2.597   3.882   5.095 -0.3958  0.7328 -0.1634
13836TIP3    H162999   2.643   3.927   5.166 -1.0897  0.4894  0.4516
13836TIP3    H263000   2.645   3.906   5.016 -0.3203  1.9534  0.2485
13837TIP3   OH263001   5.364   4.863  13.417 -0.2633 -0.4516  0.0706
13837TIP3    H163002   5.357   4.872  13.322  2.9444 -0.2806 -0.2078
13837TIP3    H263003   5.364   4.768  13.433  2.2734 -0.5594 -0.4233
13838TIP3   OH263004   4.655   6.359   1.456  0.0717 -0.0370 -0.3236
13838TIP3    H163005   4.563   6.352   1.429 -0.6875  2.3514  1.4451
13838TIP3    H263006   4.659   6.315   1.541  0.7701 -0.8710 -0.7779
13839TIP3   OH263007   6.570   0.497  15.213  0.5573  0.2071 -0.9708
13839TIP3    H163008   6.636   0.559  15.244  1.5482 -1.0792 -0.4697
13839TIP3    H263009   6.491   0.520  15.263  1.7737 -0.9681  1.5684
13840TIP3   OH263010   0.082   5.124  14.153 -0.1088 -0.2018  0.2066
13840TIP3    H163011   0.022   5.127  14.078  1.0989 -2.4818 -0.8925
13840TIP3    H263012   0.024   5.123  14.229 -1.3553  2.6668 -0.5931
13841TIP3   OH263013   6.499   0.668   1.801 -0.4980  0.3873 -0.1868
13841TIP3    H163014   6.453   0.750   1.820 -0.5281  0.4088 -0.3474
13841TIP3    H263015   6.517   0.629   1.887 -1.8662 -0.2030 -0.1607
13842TIP3   OH263016   0.494   2.519   1.331 -0.3181 -0.6214  0.7800
13842TIP3    H163017   0.452   2.604   1.345 -0.4959 -0.6759  0.5832
13842TIP3    H263018   0.580   2.527   1.372  0.5657  0.4040 -1.2273
13843TIP3   OH263019   5.747   1.408  15.313  0.1061  0.2056 -0.4094
13843TIP3    H163020   5.783   1.489  15.277 -1.4278 -0.2968 -3.2271
13843TIP3    H263021   5.737   1.350  15.238 -1.4981 -1.5730  1.1076
13844TIP3   OH263022   1.270   5.983   3.321  0.0817 -0.1057 -0.0315
13844TIP3    H163023   1.324   5.995   3.400  1.8865  0.3909 -1.3080
13844TIP3    H263024   1.284   5.892   3.296 -2.5058 -0.9979  1.6429
13845TIP3   OH263025   2.126   6.575   2.625 -0.2759  0.0809  0.1043
13845TIP3    H163026   2.117   6.591   2.531  0.5376 -1.1016 -0.1947
13845TIP3    H263027   2.043   6.534   2.650 -0.2122 -0.2679 -0.2509
13846TIP3   OH263028   4.438   5.395   3.396 -0.0444 -0.2694 -0.5879
13846TIP3    H163029   4.480   5.436   3.472 -1.1679  1.5397 -0.9193
13846TIP3    H263030   4.488   5.315   3.381  1.0070  0.0232  1.2516
13847TIP3   OH263031   0.609   2.791  11.521 -0.3049 -0.0383 -0.2255
13847TIP3    H163032   0.520   2.824  11.536 -1.0523 -2.0662 -0.1508
13847TIP3    H263033   0.632   2.746  11.602  0.4676 -0.2705 -0.5717
13848TIP3   OH263034   6.368   4.520   0.792 -0.6071  0.0403  0.3814
13848TIP3    H163035   6.411   4.435   0.796 -0.8903 -0.3022 -2.5861
13848TIP3    H263036   6.280   4.502   0.759  0.0109  1.6316 -2.3474
13849TIP3   OH263037   5.789   5.431   2.134  0.3718  0.2054  0.2703
13849TIP3    H163038   5.775   5.486   2.057 -1.4539  0.8098  0.9885
13849TIP3    H263039   5.703   5.429   2.177  1.3636 -0.1046  2.2930
13850TIP3   OH263040   6.078   3.985  13.809 -0.6145  0.5345  0.0707
13850TIP3    H163041   6.069   3.934  13.889 -0.9967 -0.5545 -0.6618
13850TIP3    H263042   6.132   4.060  13.834  0.7828 -0.7329  0.9249
13851TIP3   OH263043   1.749   5.497   3.836  0.1986 -0.0397  0.0386
13851TIP3    H163044   1.810   5.471   3.768  0.1967 -1.7308  0.6608
13851TIP3    H263045   1.662   5.479   3.799  0.1901 -0.7314  0.3856
13852TIP3   OH263046   6.694   0.070   2.621 -0.2084 -0.0363  0.1719
13852TIP3    H163047   6.600   0.081   2.612 -0.2647 -2.1738 -2.4244
13852TIP3    H263048   6.706   0.027   2.705 -1.5484  0.2785  0.5217
13853TIP3   OH263049   1.334   1.045  11.473  0.4437  0.0202  0.3493
13853TIP3    H163050   1.274   1.102  11.521  2.0014  0.9814  1.1685
13853TIP3    H263051   1.282   1.015  11.398 -1.0899  0.7770  1.0776
13854TIP3   OH263052   6.732   2.071  15.967 -0.1552 -0.4530 -0.2097
13854TIP3    H163053   6.777   2.034  15.890  0.3215 -0.8435  0.2527
13854TIP3    H263054   6.739   2.165  15.956  1.6755 -0.5008  0.3620
13855TIP3   OH263055   6.445   6.525   2.375 -0.7706  0.2921 -0.3957
13855TIP3    H163056   6.382   6.456   2.354  0.7644 -1.2258 -0.1884
13855TIP3    H263057   6.454   6.521   2.470  0.7667 -0.5597 -0.5554
13856TIP3   OH263058   5.838   5.694   4.759 -0.0852  0.0833  0.2875
13856TIP3    H163059   5.838   5.619   4.699 -0.0937 -0.8712  1.4386
13856TIP3    H263060   5.920   5.686   4.807  0.0845  1.0348  0.1619
13857TIP3   OH263061   0.609   1.731   1.174  0.5265  0.1915 -0.2334
13857TIP3    H163062   0.551   1.800   1.205 -0.0286 -0.1390 -0.5259
13857TIP3    H263063   0.559   1.650   1.187  1.2885 -0.1859  0.4003
13858TIP3   OH263064   2.352   3.357   4.439 -0.6111 -0.0610  0.1192
13858TIP3    H163065   2.378   3.447   4.421 -0.8840 -0.7364 -4.0252
13858TIP3    H263066   2.426   3.320   4.487  0.5147  1.6791 -0.2399
13859TIP3   OH263067   3.453   0.081   2.789 -0.1294 -0.1254  0.3116
13859TIP3    H163068   3.440  -0.001   2.742 -0.6208  0.2292 -0.1710
13859TIP3    H263069   3.490   0.141   2.725 -0.3607  0.2200  0.4984
13860TIP3   OH263070   1.568   1.707   3.031 -0.0432 -0.4439  0.1455
13860TIP3    H163071   1.609   1.752   3.105 -0.3794  4.0929 -2.2280
13860TIP3    H263072   1.630   1.717   2.960 -2.2369  0.4807 -1.6958
13861TIP3   OH263073   2.841   3.260  15.141  0.7725  0.4099  0.4092
13861TIP3    H163074   2.867   3.281  15.231  3.0573  2.7648 -0.7458
13861TIP3    H263075   2.777   3.328  15.118  0.6070  0.1424  0.0794
13862TIP3   OH263076   4.210   3.026  15.612  0.0249  0.3666 -0.2865
13862TIP3    H163077   4.114   3.027  15.605  0.0740  2.8414 -1.0265
13862TIP3    H263078   4.239   3.079  15.538  1.9225  0.6980  0.6824
13863TIP3   OH263079   4.203   0.136  12.805 -0.0905  0.1208  0.3279
13863TIP3    H163080   4.290   0.171  12.791  0.1090  0.3658  2.0723
13863TIP3    H263081   4.218   0.046  12.836 -0.5478 -0.8618 -2.1413
13864TIP3   OH263082   3.648   0.735   6.264  0.3847  0.0497 -0.4006
13864TIP3    H163083   3.726   0.778   6.299 -0.6717  0.2617  1.7887
13864TIP3    H263084   3.658   0.742   6.169  1.4428  2.9399 -0.1376
13865TIP3   OH263085   3.412   2.010  17.099  0.3593  0.3846 -1.0407
13865TIP3    H163086   3.466   2.084  17.073  1.2895 -0.4681 -1.5339
13865TIP3    H263087   3.430   1.942  17.035 -0.5392 -0.2614 -0.6303
13866TIP3   OH263088   6.478   0.785   5.299 -0.1165 -0.3581 -0.1394
13866TIP3    H163089   6.543   0.786   5.228 -0.1400 -2.5651 -0.2301
13866TIP3    H263090   6.498   0.863   5.350  1.8584 -0.3567 -0.8584
13867TIP3   OH263091   3.273   2.193   2.075  0.0794 -0.2727  0.0177
13867TIP3    H163092   3.335   2.149   2.017 -0.3479  0.7422 -1.2419
13867TIP3    H263093   3.273   2.141   2.155 -0.2095 -2.4194 -1.3340
13868TIP3   OH263094   0.775   5.897   3.428 -0.1296 -0.3406  0.3484
13868TIP3    H163095   0.769   5.974   3.486  1.0756 -1.8521  2.5348
13868TIP3    H263096   0.868   5.883   3.416 -0.3633 -0.6750 -1.1541
13869TIP3   OH263097   5.348   0.062   6.942 -0.2227 -0.4072 -0.1531
13869TIP3    H163098   5.379   0.086   6.855 -0.8218 -2.0197 -0.8310
13869TIP3    H263099   5.252   0.067   6.935 -0.2504  0.0878  0.5942
13870TIP3   OH263100   2.860   4.644   4.727 -0.5652 -0.2652 -0.0787
13870TIP3    H163101   2.913   4.569   4.752 -1.7639 -0.8318  0.7920
13870TIP3    H263102   2.848   4.693   4.808 -1.7352 -0.3702 -0.1826
13871TIP3   OH263103   4.748   5.009   1.781 -0.1232  1.1668 -0.0369
13871TIP3    H163104   4.667   4.979   1.821  0.4638 -0.9762 -0.3945
13871TIP3    H263105   4.786   4.931   1.741  1.2182  2.4958 -1.4508
13872TIP3   OH263106   3.972   0.383   3.862  0.2598 -0.1257  0.2170
13872TIP3    H163107   3.950   0.464   3.816 -0.2811 -0.7833 -0.7073
13872TIP3    H263108   3.889   0.354   3.900  0.5570  0.0194  0.9923
13873TIP3   OH263109   3.185   4.836  15.409  0.1808  0.3262  0.7903
13873TIP3    H163110   3.257   4.816  15.468  0.6057  0.9090  0.4671
13873TIP3    H263111   3.107   4.837  15.465  0.3281 -0.8773  1.0473
13874TIP3   OH263112   2.133   0.861   4.430 -0.4502 -0.2040  0.5468
13874TIP3    H163113   2.141   0.770   4.458 -0.6996  0.2604  2.1633
13874TIP3    H263114   2.149   0.912   4.509  1.7924  1.2289 -0.7724
13875TIP3   OH263115   1.916   1.021   1.176  0.5208  0.1171  0.2594
13875TIP3    H163116   1.951   1.077   1.245  1.8517  0.3171 -0.5748
13875TIP3    H263117   1.940   1.065   1.095  0.2826 -0.9027 -0.3737
13876TIP3   OH263118   4.033   5.816  13.639  0.6325 -0.3490 -0.0247
13876TIP3    H163119   3.986   5.742  13.599  1.5163 -1.3564  0.7668
13876TIP3    H263120   4.117   5.818  13.594  0.5365  0.3171 -0.1847
13877TIP3   OH263121   2.594   5.008   2.446  0.0118 -0.0956  0.3883
13877TIP3    H163122   2.537   4.971   2.513 -1.0256 -3.0770 -2.0449
13877TIP3    H263123   2.680   5.014   2.488 -0.9518 -0.4109  2.4644
13878TIP3   OH263124   6.625   3.175   2.600  0.7737  0.6171 -0.0031
13878TIP3    H163125   6.679   3.235   2.652 -0.2955  1.3515  0.2532
13878TIP3    H263126   6.552   3.228   2.569  1.3656  0.1663 -2.2295
13879TIP3   OH263127   6.021   2.176   6.580  1.0415  0.6185  0.8819
13879TIP3    H163128   5.976   2.127   6.511  3.2835  0.1565 -0.2984
13879TIP3    H263129   5.951   2.202   6.640 -0.5861 -1.4195 -0.0642
13880TIP3   OH263130   6.669   1.553  16.081 -0.1031 -0.1755 -0.3724
13880TIP3    H163131   6.700   1.639  16.054  3.0859 -0.9481  0.5520
13880TIP3    H263132   6.625   1.569  16.165 -1.8201  0.8802 -1.4436
13881TIP3   OH263133   5.091   6.010  12.382  0.2084  0.0092 -0.4452
13881TIP3    H163134   5.114   5.921  12.408 -0.2722  0.3135  1.0682
13881TIP3    H263135   5.157   6.065  12.424 -1.1228  0.5842  0.9359
13882TIP3   OH263136   0.360   2.756   1.401 -0.3311  0.0922  0.2753
13882TIP3    H163137   0.361   2.851   1.392  1.3178  0.0674 -0.1019
13882TIP3    H263138   0.386   2.739   1.491 -0.5275 -0.0008  0.3150
13883TIP3   OH263139   6.047   1.613  14.589 -0.4475 -0.3898  0.1728
13883TIP3    H163140   5.963   1.627  14.634 -1.2197  1.5772 -1.7375
13883TIP3    H263141   6.035   1.531  14.542 -2.1642  0.9166 -1.7915
13884TIP3   OH263142   2.511   3.550   0.370 -0.5700  0.7408 -0.4656
13884TIP3    H163143   2.560   3.584   0.444 -2.4558  1.1653  0.6154
13884TIP3    H263144   2.458   3.479   0.406  1.4123 -1.6682 -2.1950
13885TIP3   OH263145   6.547   2.809   2.247 -0.1290  0.0436  0.1626
13885TIP3    H163146   6.475   2.748   2.239 -1.4832  1.5841  0.2709
13885TIP3    H263147   6.557   2.846   2.159  2.1206 -1.8644 -0.4480
13886TIP3   OH263148   5.186   2.551  16.765  0.0231 -0.0119 -1.2651
13886TIP3    H163149   5.115   2.501  16.727  0.1997 -0.8619 -0.4886
13886TIP3    H263150   5.262   2.532  16.709 -0.2400  0.5158 -1.8057
13887TIP3   OH263151   1.496   5.165   1.464 -0.9206 -0.1101  0.1454
13887TIP3    H163152   1.530   5.080   1.438  1.1457  0.9409 -0.7002
13887TIP3    H263153   1.451   5.198   1.386 -1.9083 -0.5117  0.5405
13888TIP3   OH263154   1.371   1.762   0.128  0.1711  0.1842  0.0732
13888TIP3    H163155   1.382   1.832   0.192 -0.4172 -1.4207  1.9592
13888TIP3    H263156   1.385   1.805   0.043  2.3058  2.0605  1.3144
13889TIP3   OH263157   4.873   5.188  14.605 -0.4947 -0.1482  0.1043
13889TIP3    H163158   4.933   5.263  14.613 -1.8049  1.0235 -0.7847
13889TIP3    H263159   4.927   5.112  14.628  0.8781  1.0509  0.9692
13890TIP3   OH263160   0.195   4.218   2.373  0.1013 -0.0552  0.3101
13890TIP3    H163161   0.138   4.292   2.390 -1.4029 -0.9709 -0.6211
13890TIP3    H263162   0.227   4.233   2.284  1.3640  0.4619  0.8309
13891TIP3   OH263163   6.556   4.311   0.302 -0.2656  0.4192  0.8697
13891TIP3    H163164   6.469   4.349   0.287 -0.3847  0.0722  0.6740
13891TIP3    H263165   6.604   4.379   0.349  0.4090  1.8726 -1.8434
13892TIP3   OH263166   4.700   4.922  15.110 -0.2097 -0.1875  0.4484
13892TIP3    H163167   4.635   4.986  15.142 -0.7219  0.2555 -1.4368
13892TIP3    H263168   4.776   4.976  15.086  0.5079 -0.6101  1.6926
13893TIP3   OH263169   0.014   0.717   4.820 -0.4219 -0.5405  0.0320
13893TIP3    H163170  -0.071   0.742   4.858 -0.1671 -0.3214  0.4555
13893TIP3    H263171   0.012   0.756   4.732  0.8013  2.8160  1.3994
13894TIP3   OH263172   3.128   6.291   5.041 -0.2117 -0.0826  0.4777
13894TIP3    H163173   3.083   6.353   5.098 -0.5255  0.1635 -0.0360
13894TIP3    H263174   3.187   6.346   4.989  0.2146 -0.3297  0.6921
13895TIP3   OH263175   5.297   6.602  11.542  0.2926  0.2492  0.0459
13895TIP3    H163176   5.244   6.610  11.621 -0.4040  0.4053 -0.4366
13895TIP3    H263177   5.316   6.693  11.516 -0.3656  0.2212 -0.5558
13896TIP3   OH263178   5.514   3.425  13.641  0.8366 -0.1518 -0.2785
13896TIP3    H163179   5.535   3.478  13.718  2.0940 -2.3510  0.9668
13896TIP3    H263180   5.594   3.376  13.623  0.3118 -0.2240 -2.5390
13897TIP3   OH263181   1.909   6.584  17.237  0.3502 -0.8012 -0.2808
13897TIP3    H163182   1.909   6.648  17.166 -0.3951 -1.2153 -0.6599
13897TIP3    H263183   1.880   6.633  17.314  0.7061 -0.4642 -0.3579
13898TIP3   OH263184   4.768   0.038  16.794 -0.2877 -0.3335  0.3833
13898TIP3    H163185   4.707  -0.032  16.771 -1.9469  1.3321 -0.5034
13898TIP3    H263186   4.803   0.067  16.710  1.5204 -1.0751  0.8701
13899TIP3   OH263187   0.347   0.310   4.131 -0.2477 -0.1156  0.3517
13899TIP3    H163188   0.323   0.224   4.095  1.6940 -0.0841 -1.1021
13899TIP3    H263189   0.443   0.309   4.134 -0.2640  1.3763  1.9097
13900TIP3   OH263190   5.716   2.468  12.769  0.0343 -0.1912 -0.5232
13900TIP3    H163191   5.781   2.435  12.830 -0.1960 -0.4463 -0.4186
13900TIP3    H263192   5.650   2.399  12.763 -0.8108  0.5237  0.2448
13901TIP3   OH263193   2.720   0.691   5.288 -0.2093  0.3358 -0.0219
13901TIP3    H163194   2.647   0.711   5.347  1.2824 -0.5163  2.1472
13901TIP3    H263195   2.682   0.634   5.221 -1.1000 -1.7804  2.2361
13902TIP3   OH263196   4.007   3.166  12.143  0.4984  0.5574 -0.3066
13902TIP3    H163197   4.058   3.124  12.213  0.1108 -2.0356 -1.5184
13902TIP3    H263198   3.924   3.188  12.184  0.2339 -1.0498  0.0647
13903TIP3   OH263199   5.301   6.753  13.829  0.1895 -0.2548 -0.5574
13903TIP3    H163200   5.259   6.759  13.744  0.4064  0.4754 -0.6215
13903TIP3    H263201   5.322   6.844  13.851  0.4421 -0.4751  0.1159
13904TIP3   OH263202   3.144   3.477  12.201 -0.7723 -0.4966  0.4737
13904TIP3    H163203   3.123   3.489  12.108 -3.8443  0.1058  1.2017
13904TIP3    H263204   3.212   3.541  12.219 -0.1144 -0.6588 -1.3813
13905TIP3   OH263205   4.918   5.228  14.312  0.0826 -0.0922 -0.1041
13905TIP3    H163206   4.865   5.154  14.282  2.3648 -1.5059 -0.6849
13905TIP3    H263207   4.884   5.246  14.400 -4.5265  2.0781 -2.1248
13906TIP3   OH263208   2.018   1.482   3.441  0.1617  0.0628 -0.0664
13906TIP3    H163209   2.063   1.413   3.393  0.5670 -0.6847  1.3907
13906TIP3    H263210   2.052   1.477   3.530  0.4743  2.3851 -0.0273
13907TIP3   OH263211   2.264   1.155   2.796 -0.1239  0.0911 -0.1404
13907TIP3    H163212   2.311   1.200   2.726 -0.2190  2.0589  1.0373
13907TIP3    H263213   2.174   1.149   2.764  0.4216 -1.7754 -1.4681
13908TIP3   OH263214   1.131   0.516  16.135  0.6493 -0.1113  0.3140
13908TIP3    H163215   1.219   0.512  16.097  1.4444 -1.0374  2.1808
13908TIP3    H263216   1.078   0.463  16.076  1.1767  1.0542 -1.2347
13909TIP3   OH263217   0.617   0.935  15.442 -0.2486  0.0277 -0.2227
13909TIP3    H163218   0.587   0.876  15.511 -0.5252  0.0401 -0.3336
13909TIP3    H263219   0.570   1.017  15.456  0.7964  0.5152  0.4636
13910TIP3   OH263220   6.089   3.037  11.946 -0.4819  0.1152  0.0238
13910TIP3    H163221   6.144   3.038  12.024 -1.0013  0.3862  0.3904
13910TIP3    H263222   6.149   3.021  11.874 -0.1391 -1.3016  0.5994
13911TIP3   OH263223   4.599   0.718  17.269  0.2949 -0.2349 -0.2935
13911TIP3    H163224   4.569   0.704  17.359 -1.9775  1.4707 -0.7147
13911TIP3    H263225   4.694   0.713  17.274  0.1272 -2.2433  1.8195
13912TIP3   OH263226   3.416   2.820  16.358 -0.2975 -1.0088 -0.3324
13912TIP3    H163227   3.425   2.901  16.306  0.2987 -0.7931  0.0996
13912TIP3    H263228   3.358   2.764  16.305 -0.3240 -0.4899 -0.8639
13913TIP3   OH263229   0.030   1.157   5.018  0.1752 -0.7193 -0.3943
13913TIP3    H163230  -0.033   1.121   4.955  0.2298 -0.6305 -0.4999
13913TIP3    H263231   0.012   1.251   5.019  0.2513 -0.7051 -0.3630
13914TIP3   OH263232   1.163   5.219   2.097  0.2421  0.1362 -0.4449
13914TIP3    H163233   1.257   5.206   2.112  1.0285  1.6211 -3.5968
13914TIP3    H263234   1.155   5.313   2.081 -1.7919  0.0236 -0.1643
13915TIP3   OH263235   5.855   1.794  16.707  0.0156  0.4403 -0.0181
13915TIP3    H163236   5.790   1.754  16.649 -0.3911 -0.2011  0.8763
13915TIP3    H263237   5.869   1.730  16.777  1.9597  0.3670 -0.4386
13916TIP3   OH263238   5.277   1.839   2.483 -0.3269 -0.0463 -0.2778
13916TIP3    H163239   5.337   1.912   2.499  0.1763 -0.5634  0.2090
13916TIP3    H263240   5.217   1.842   2.557  0.4732 -0.9039  0.4143
13917TIP3   OH263241   3.450   5.354  15.598 -0.1958 -0.1123 -0.9170
13917TIP3    H163242   3.433   5.261  15.615  1.5588  0.1055  2.4549
13917TIP3    H263243   3.379   5.401  15.640 -1.1685  0.1260 -2.7548
13918TIP3   OH263244   4.009   2.830   3.687  0.6525  0.0692 -0.4840
13918TIP3    H163245   4.061   2.883   3.747 -0.8272 -0.5780  1.4318
13918TIP3    H263246   4.067   2.815   3.612  3.9112 -2.1312  2.3313
13919TIP3   OH263247   2.582   3.720  10.981  0.4950  0.5496 -0.1143
13919TIP3    H163248   2.595   3.809  10.948  0.4990 -0.1908 -2.2194
13919TIP3    H263249   2.616   3.664  10.911 -2.8773 -1.1812 -0.4769
13920TIP3   OH263250   5.117   0.465   1.308 -0.3521 -0.8594 -0.4314
13920TIP3    H163251   5.033   0.506   1.329  0.5372  0.9845 -0.3842
13920TIP3    H263252   5.104   0.429   1.220 -1.2456 -0.7769 -0.3432
13921TIP3   OH263253   5.443   3.597   6.677  0.1462 -0.0979  0.5334
13921TIP3    H163254   5.410   3.670   6.729 -1.1209 -1.0205  1.0661
13921TIP3    H263255   5.457   3.527   6.741 -0.4168 -0.9012 -0.2104
13922TIP3   OH263256   2.028   4.626   1.470 -0.2250 -0.1016  0.2030
13922TIP3    H163257   2.025   4.645   1.377 -1.2439 -0.2016  0.2144
13922TIP3    H263258   2.058   4.535   1.475  2.0044  0.5915  0.0626
13923TIP3   OH263259   6.540   5.937   0.910  0.5310 -0.4409 -0.2975
13923TIP3    H163260   6.574   5.936   0.820 -0.4667  0.0610 -0.6887
13923TIP3    H263261   6.507   5.849   0.924  0.0592 -0.3242 -0.6708
13924TIP3   OH263262   4.055   3.436  12.146 -0.0059  0.1960 -0.2417
13924TIP3    H163263   4.066   3.360  12.089 -0.4407  0.9372 -1.3192
13924TIP3    H263264   4.114   3.419  12.219  1.4991 -0.1706 -1.5167
13925TIP3   OH263265   3.708   5.377  13.308  0.2441 -0.1037 -0.0435
13925TIP3    H163266   3.713   5.472  13.313  1.5920 -0.0635 -1.7418
13925TIP3    H263267   3.793   5.347  13.341 -0.1691 -0.7297  0.4756
13926TIP3   OH263268   6.642   5.192  14.600 -0.4475  0.5609  0.5769
13926TIP3    H163269   6.587   5.150  14.534  0.4362  0.6910 -0.2506
13926TIP3    H263270   6.661   5.278  14.564  1.2880  0.0750  0.3208
13927TIP3   OH263271   4.031   5.566   3.906 -0.3933 -0.4006 -0.1930
13927TIP3    H163272   4.029   5.475   3.878 -0.1875 -0.3351 -0.4182
13927TIP3    H263273   4.048   5.616   3.826 -1.1619 -0.1149 -0.1908
13928TIP3   OH263274   1.120   2.291  14.871 -0.4988  0.2540  0.4586
13928TIP3    H163275   1.182   2.231  14.912 -0.2816  0.9194  1.1271
13928TIP3    H263276   1.088   2.244  14.794  0.7118 -0.1722  0.2021
13929TIP3   OH263277   5.037   3.664  14.663 -0.2023  0.2331 -0.1623
13929TIP3    H163278   5.002   3.613  14.589  1.3438 -0.3548 -0.5137
13929TIP3    H263279   5.032   3.755  14.634  2.2194 -0.0991 -1.8630
13930TIP3   OH263280   1.090   4.112   4.268  0.1065 -0.2658 -0.9215
13930TIP3    H163281   1.174   4.084   4.305 -0.2952  0.5616  0.6983
13930TIP3    H263282   1.029   4.108   4.342 -1.1164 -0.1621 -1.9102
13931TIP3   OH263283   4.478   2.411  13.154  0.2393  0.2438  0.8060
13931TIP3    H163284   4.395   2.450  13.180  0.9307  0.9705  1.9459
13931TIP3    H263285   4.464   2.385  13.062 -1.1176  0.6672  0.8747
13932TIP3   OH263286   2.658   1.871   3.804  0.0616  0.3635 -0.1803
13932TIP3    H163287   2.619   1.954   3.831 -0.6479  0.2057 -0.6862
13932TIP3    H263288   2.751   1.881   3.821  0.2280  1.9128 -1.8805
13933TIP3   OH263289   2.204   1.686   4.754  0.6256  0.2376  0.0041
13933TIP3    H163290   2.246   1.742   4.689  0.9719 -0.0842 -0.0469
13933TIP3    H263291   2.270   1.674   4.822  0.1376  0.8958  0.6101
13934TIP3   OH263292   4.426   4.469   4.510  0.0477 -0.3719 -0.0305
13934TIP3    H163293   4.395   4.534   4.447  1.0735  0.0541 -0.0967
13934TIP3    H263294   4.347   4.423   4.537 -0.8998  1.8500  1.0986
13935TIP3   OH263295   4.267   1.463  12.673 -0.1732 -0.4784 -0.5964
13935TIP3    H163296   4.304   1.531  12.730 -0.3437  0.3232 -1.4345
13935TIP3    H263297   4.174   1.485  12.668 -0.4379 -1.4310  0.0338
13936TIP3   OH263298   2.133   3.983  10.113 -0.6989  0.1165  0.5451
13936TIP3    H163299   2.068   3.929  10.068 -0.7854  1.5072 -1.0157
13936TIP3    H263300   2.083   4.034  10.177 -0.9036 -0.0499  0.5166
13937TIP3   OH263301   5.192   4.375  12.095  0.0192  0.0972 -0.2292
13937TIP3    H163302   5.104   4.339  12.110 -0.5044  2.5594  2.8854
13937TIP3    H263303   5.196   4.388  12.000 -2.7532 -0.6168 -0.4950
13938TIP3   OH263304   1.494   5.506  12.530 -0.7426 -0.4566 -0.7971
13938TIP3    H163305   1.570   5.559  12.504 -0.8393 -0.0597 -0.2934
13938TIP3    H263306   1.433   5.570  12.568 -0.3702 -1.0726  0.9107
13939TIP3   OH263307   1.017   0.477   1.262  0.4078  0.7134  0.1562
13939TIP3    H163308   1.082   0.533   1.219 -1.0120  1.0041 -1.6866
13939TIP3    H263309   0.933   0.517   1.239 -0.4811 -0.3316  1.5259
13940TIP3   OH263310   2.079   5.062   5.811  0.4471  0.1732 -0.3264
13940TIP3    H163311   2.109   5.150   5.787 -2.8410  0.9037 -2.1418
13940TIP3    H263312   2.122   5.004   5.748  1.3831  0.6655 -0.1442
13941TIP3   OH263313   6.789   6.496   3.067 -0.0967 -0.3619 -0.2461
13941TIP3    H163314   6.785   6.591   3.072 -0.8000 -0.4440  1.0582
13941TIP3    H263315   6.705   6.470   3.030 -0.2268 -0.5129  0.1486
13942TIP3   OH263316   2.967   3.706   5.015  0.1850 -0.2100 -0.4300
13942TIP3    H163317   2.977   3.787   5.064 -0.7226 -1.0238  1.1847
13942TIP3    H263318   2.990   3.728   4.925  1.7945  1.3630  0.3476
13943TIP3   OH263319   5.992   2.087   1.779  0.0629 -0.4716  0.0754
13943TIP3    H163320   5.980   2.115   1.869  2.0361 -1.3087  0.6304
13943TIP3    H263321   6.071   2.133   1.750 -1.6304  1.3178 -1.8913
13944TIP3   OH263322   2.991   0.440   3.076 -0.3492  0.1854  0.0662
13944TIP3    H163323   2.991   0.512   3.139 -1.3001 -1.0487  1.5279
13944TIP3    H263324   3.083   0.415   3.069  0.1268  2.2584 -1.3247
13945TIP3   OH263325   0.841   0.982  15.637  0.0091 -0.2165  0.0803
13945TIP3    H163326   0.762   0.934  15.617 -0.4583  0.4673  0.2576
13945TIP3    H263327   0.820   1.031  15.717  0.3257  0.5993 -0.3248
13946TIP3   OH263328   0.254   4.809   2.080  0.4944  0.3272  0.0956
13946TIP3    H163329   0.195   4.801   2.004 -1.1708  2.3064  1.1503
13946TIP3    H263330   0.337   4.773   2.049 -1.0468 -1.8947 -1.6556
13947TIP3   OH263331   2.059   0.027   2.495 -0.1312 -0.2519  0.4585
13947TIP3    H163332   2.115   0.092   2.451  0.7788 -1.5328 -0.3009
13947TIP3    H263333   2.101   0.010   2.579 -1.3112  1.4158  1.4289
13948TIP3   OH263334   0.253   2.490   3.194  0.0136 -0.1381  0.4895
13948TIP3    H163335   0.237   2.565   3.136 -0.3243 -1.2587 -0.9035
13948TIP3    H263336   0.224   2.520   3.280  0.7317  1.6401  0.1368
13949TIP3   OH263337   4.597   0.596   3.863 -0.1186  0.0028  0.3957
13949TIP3    H163338   4.540   0.565   3.793  0.1002  1.1266 -0.2914
13949TIP3    H263339   4.583   0.691   3.865 -0.4043 -0.0571  2.1237
13950TIP3   OH263340   3.848   4.652   1.330  0.1498 -0.3104 -0.4117
13950TIP3    H163341   3.835   4.747   1.333  0.5086 -0.2830  0.4435
13950TIP3    H263342   3.760   4.616   1.322  0.0532  0.1152 -1.2958
13951TIP3   OH263343   0.100   0.906  10.927 -0.3159 -0.1264 -0.3281
13951TIP3    H163344   0.095   0.871  10.838  1.6815  0.1908 -0.5961
13951TIP3    H263345   0.172   0.856  10.967 -0.6297  0.3436  0.8186
13952TIP3   OH263346   1.775   2.298   1.161  0.3850 -0.2814  0.2041
13952TIP3    H163347   1.826   2.291   1.081 -0.0884 -0.6700 -0.0576
13952TIP3    H263348   1.818   2.238   1.222 -0.3749 -1.3763 -0.3333
13953TIP3   OH263349   5.994   5.465   3.257 -0.3930  0.6515 -0.3512
13953TIP3    H163350   6.055   5.470   3.184 -0.3456 -0.7102 -0.4274
13953TIP3    H263351   5.911   5.436   3.217  0.1346 -1.9670  0.3696
13954TIP3   OH263352   0.375   1.367   6.853 -0.2889 -0.0513 -0.1852
13954TIP3    H163353   0.407   1.279   6.836  1.0576 -0.4267  3.9428
13954TIP3    H263354   0.423   1.422   6.791  1.6117 -1.7664 -0.2852
13955TIP3   OH263355   1.242   3.676   0.210  0.4212 -0.1172  0.6996
13955TIP3    H163356   1.300   3.753   0.207  1.3236 -0.7930  0.7615
13955TIP3    H263357   1.154   3.713   0.205  0.8897  0.8477 -0.7787
13956TIP3   OH263358   0.091   6.532  14.361 -0.4036 -0.3575  0.6834
13956TIP3    H163359   0.167   6.521  14.418 -3.1868 -3.3458  4.0360
13956TIP3    H263360   0.044   6.607  14.398 -0.8137 -0.6168  0.6942
13957TIP3   OH263361   4.296   5.147  12.972 -0.4124 -0.2507  0.2107
13957TIP3    H163362   4.299   5.233  12.931 -0.0446 -0.8582 -1.0634
13957TIP3    H263363   4.221   5.152  13.032 -1.0735  0.5890 -0.6710
13958TIP3   OH263364   3.343   4.087  13.354 -0.0933 -0.1921 -0.0677
13958TIP3    H163365   3.343   4.005  13.305 -1.2286  0.2395 -0.8155
13958TIP3    H263366   3.327   4.154  13.288  1.0310  0.6604  0.5094
13959TIP3   OH263367   6.168   2.913   5.762 -0.3360 -1.1520 -0.1814
13959TIP3    H163368   6.148   2.826   5.796 -3.2036 -1.6426 -2.8628
13959TIP3    H263369   6.239   2.899   5.699  0.9270 -1.1342  1.2192
13960TIP3   OH263370   2.046   1.974  15.860 -0.3785  0.0911 -0.0633
13960TIP3    H163371   1.974   2.037  15.854  0.5047  1.0108 -1.1992
13960TIP3    H263372   2.077   1.965  15.770 -0.8378 -2.3951 -0.0100
13961TIP3   OH263373   1.980   3.163  13.068  0.5171  0.1177 -0.3447
13961TIP3    H163374   1.970   3.224  12.995  2.2318  0.6306 -0.1820
13961TIP3    H263375   2.075   3.158  13.082  0.2048  0.4448  2.1777
13962TIP3   OH263376   6.618   2.010   4.775 -0.3429  1.0772 -0.1642
13962TIP3    H163377   6.632   2.099   4.743 -2.5102  0.3419 -3.3136
13962TIP3    H263378   6.526   2.008   4.800  0.1207  0.1703  1.5568
13963TIP3   OH263379   2.802   5.626   1.177  0.1882 -0.4758 -0.5590
13963TIP3    H163380   2.726   5.569   1.179  1.3246 -2.0030  0.2079
13963TIP3    H263381   2.808   5.663   1.265  0.2543 -0.2389 -0.6616
13964TIP3   OH263382   2.351   2.282  15.720  0.2937 -0.2128 -0.1182
13964TIP3    H163383   2.427   2.335  15.743 -0.0525 -0.3420  1.3605
13964TIP3    H263384   2.348   2.285  15.624  0.2311  2.4990 -0.0790
13965TIP3   OH263385   4.055   0.282  14.419 -0.5857 -0.3920 -0.1427
13965TIP3    H163386   4.054   0.292  14.514  0.4311  1.9486 -0.3476
13965TIP3    H263387   3.970   0.316  14.390 -0.3899  0.0586 -0.1825
13966TIP3   OH263388   6.392   0.383   2.053 -0.3507 -0.2868  0.5490
13966TIP3    H163389   6.406   0.299   2.010 -0.4078 -0.4318  0.8118
13966TIP3    H263390   6.315   0.419   2.010 -0.4172 -0.4377  0.5405
13967TIP3   OH263391   5.194   5.340   2.656  0.0994  0.2059 -0.7565
13967TIP3    H163392   5.200   5.244   2.657  0.2700  0.2123 -1.2405
13967TIP3    H263393   5.239   5.366   2.576 -0.4757  0.6585 -0.9317
13968TIP3   OH263394   0.593   1.748   5.238 -0.1499 -0.4722 -0.3057
13968TIP3    H163395   0.528   1.817   5.220 -1.9575 -2.1464 -0.3793
13968TIP3    H263396   0.541   1.668   5.247  1.7737 -1.5817  1.3114
13969TIP3   OH263397   2.298   6.587  10.313  0.0208 -0.4739 -0.2593
13969TIP3    H163398   2.384   6.546  10.315  0.3516  0.1866 -0.9415
13969TIP3    H263399   2.316   6.681  10.312 -0.6949 -0.3417 -1.1295
13970TIP3   OH263400   2.573   2.653  13.991 -0.2933 -0.2644  0.6101
13970TIP3    H163401   2.493   2.690  14.028  0.1427  0.9760  0.3334
13970TIP3    H263402   2.610   2.600  14.062 -0.5549  0.4085  1.2608
13971TIP3   OH263403   1.874   6.798   2.751 -0.0247 -0.1601  0.1562
13971TIP3    H163404   1.864   6.743   2.830 -0.6610  0.8736  0.8053
13971TIP3    H263405   1.968   6.815   2.746  0.2081 -1.4620 -0.1611
13972TIP3   OH263406   3.066   6.758   3.772 -0.4748  0.2367 -0.6103
13972TIP3    H163407   3.061   6.665   3.796  1.2009  0.1370 -0.6429
13972TIP3    H263408   3.103   6.801   3.849  1.4035  0.4592 -1.6173
13973TIP3   OH263409   5.376   3.254   0.219 -0.9136  0.2513  0.3646
13973TIP3    H163410   5.288   3.291   0.229 -2.2935 -2.4161 -1.2035
13973TIP3    H263411   5.361   3.167   0.181  2.5029  0.5172 -1.8353
13974TIP3   OH263412   3.003   4.807  14.753 -0.2027  0.3209  0.1316
13974TIP3    H163413   3.019   4.844  14.666 -0.6505 -0.5003 -0.3025
13974TIP3    H263414   3.083   4.826  14.802 -0.9598  3.1174  0.3547
13975TIP3   OH263415   5.272   0.700  12.038  0.2204 -0.0586  0.4665
13975TIP3    H163416   5.339   0.653  12.087 -0.6695 -1.9716 -0.0861
13975TIP3    H263417   5.285   0.673  11.947 -1.7051 -1.0187  0.4452
13976TIP3   OH263418   1.332   2.916  17.136 -0.0581 -0.1567  0.0469
13976TIP3    H163419   1.336   2.821  17.127  2.0044 -0.0446 -0.5040
13976TIP3    H263420   1.356   2.950  17.050  0.1883  0.8605  0.5049
13977TIP3   OH263421   4.577   3.859   3.429  0.3656  0.4668  0.0698
13977TIP3    H163422   4.502   3.834   3.482  1.2679 -0.8513  0.7400
13977TIP3    H263423   4.575   3.955   3.429 -0.5274  0.4583  1.1801
13978TIP3   OH263424   5.295   4.958   4.466 -0.2632 -0.7528  0.5488
13978TIP3    H163425   5.215   5.001   4.435  0.1895 -0.2549  0.0501
13978TIP3    H263426   5.266   4.874   4.501 -0.9270 -0.8451 -0.2192
13979TIP3   OH263427   2.514   3.542   3.108  0.0075  0.3524  0.3314
13979TIP3    H163428   2.607   3.561   3.116 -0.0840  0.1427  2.3336
13979TIP3    H263429   2.471   3.621   3.142 -0.5406  0.4153 -0.5038
13980TIP3   OH263430   5.252   5.207  13.847  0.1271 -0.0820 -0.4459
13980TIP3    H163431   5.199   5.276  13.886  0.3515  0.4803 -1.1216
13980TIP3    H263432   5.337   5.248  13.832  1.4561 -1.5520  2.5579
13981TIP3   OH263433   0.141   5.275  12.379  0.3570 -0.3158  0.8335
13981TIP3    H163434   0.217   5.259  12.323 -1.7181 -2.0760 -1.5608
13981TIP3    H263435   0.153   5.364  12.411  2.0208  0.4086 -1.7043
13982TIP3   OH263436   0.117   0.246   1.759  0.3271 -0.7707 -0.5702
13982TIP3    H163437   0.030   0.258   1.798  0.8303 -1.2421  0.7411
13982TIP3    H263438   0.152   0.334   1.750  0.2401 -0.6530  0.1721
13983TIP3   OH263439   2.574   5.022  15.438 -0.1234 -0.4348  0.3335
13983TIP3    H163440   2.508   5.031  15.369  0.5098 -0.5579 -0.2955
13983TIP3    H263441   2.654   5.057  15.399 -0.2528  1.5240  1.7631
13984TIP3   OH263442   5.012   3.738  14.912 -0.3736  0.4376  0.0063
13984TIP3    H163443   4.944   3.802  14.889 -1.7227 -1.3600 -1.1077
13984TIP3    H263444   5.027   3.689  14.831  2.0617  0.6123  0.3247
13985TIP3   OH263445   2.025   6.562  14.137 -0.4983 -0.4507  0.0582
13985TIP3    H163446   2.037   6.488  14.197  0.5444  0.3563  0.8591
13985TIP3    H263447   1.931   6.576  14.136 -0.6804 -1.5891  0.1535
13986TIP3   OH263448   2.829   6.587   4.557 -0.0901 -0.1302  0.0297
13986TIP3    H163449   2.859   6.530   4.486  1.8366  0.2820  0.4825
13986TIP3    H263450   2.802   6.668   4.513  0.2973 -0.1811 -0.2982
13987TIP3   OH263451   3.146   4.132   1.884 -0.0293 -0.4613  0.6362
13987TIP3    H163452   3.125   4.225   1.892 -0.4411 -0.5299  0.3931
13987TIP3    H263453   3.075   4.088   1.930  0.4582 -0.6330  1.2231
13988TIP3   OH263454   2.780   2.224   0.262 -0.2589 -0.1224  0.2830
13988TIP3    H163455   2.717   2.293   0.242  0.0272 -0.1591 -0.7580
13988TIP3    H263456   2.814   2.196   0.177 -0.6723 -1.8344  0.6606
13989TIP3   OH263457   2.793   5.350   5.079 -0.0827  0.4817 -0.5860
13989TIP3    H163458   2.799   5.334   5.173  1.1260  0.0505 -0.7338
13989TIP3    H263459   2.863   5.298   5.041  0.4880  1.9209 -1.5765
13990TIP3   OH263460   6.124   3.291   3.528 -0.7035 -0.1231 -0.0376
13990TIP3    H163461   6.047   3.317   3.478 -0.4397  1.3654  0.2849
13990TIP3    H263462   6.197   3.303   3.468 -0.3145  2.2612  0.8265
13991TIP3   OH263463   3.288   2.336  10.576 -0.0411 -0.0465  0.7534
13991TIP3    H163464   3.260   2.276  10.644 -0.5827 -0.0387  0.5415
13991TIP3    H263465   3.256   2.297  10.494  0.4404  0.0373  0.5193
13992TIP3   OH263466   6.483   0.920   1.443 -0.6091  0.0878  0.2276
13992TIP3    H163467   6.514   1.009   1.426 -1.6561  0.0470 -2.0114
13992TIP3    H263468   6.411   0.931   1.505 -0.2062  0.7282  0.5899
13993TIP3   OH263469   2.473   4.580   5.705 -0.3177  0.0671 -0.4553
13993TIP3    H163470   2.417   4.640   5.754 -0.7126 -0.7763  0.1327
13993TIP3    H263471   2.562   4.600   5.735 -0.3077  1.3157 -1.2908
13994TIP3   OH263472   5.104   2.251  15.563  0.6594  0.3135  0.2051
13994TIP3    H163473   5.196   2.249  15.590  0.6846 -0.8410  0.0716
13994TIP3    H263474   5.055   2.230  15.642  0.5483  0.2048  0.1076
13995TIP3   OH263475   1.530   2.791  15.779 -0.3800 -0.3051  0.0398
13995TIP3    H163476   1.501   2.760  15.693 -1.8726 -0.4364  0.5672
13995TIP3    H263477   1.622   2.768  15.783 -0.5151 -1.1121 -1.1682
13996TIP3   OH263478   3.660   6.573  16.800 -0.1511 -0.0925 -0.5292
13996TIP3    H163479   3.662   6.588  16.705 -1.6654  2.2118 -0.2306
13996TIP3    H263480   3.586   6.513  16.813  0.1123 -0.4815 -0.7897
13997TIP3   OH263481   5.520   4.325   4.991  0.6857  0.5092  0.5392
13997TIP3    H163482   5.587   4.361   4.933  1.0247  0.3270  0.8193
13997TIP3    H263483   5.549   4.347   5.079 -0.1304  1.3020  0.6239
13998TIP3   OH263484   6.211   1.706   1.759  0.4931  0.1022 -0.0747
13998TIP3    H163485   6.191   1.771   1.692  1.0117 -0.4306 -0.7626
13998TIP3    H263486   6.137   1.710   1.819  0.1142  0.7291 -0.5744
13999TIP3   OH263487   2.665   1.756   5.164 -0.3037 -0.1418 -0.4665
13999TIP3    H163488   2.747   1.799   5.139  1.6274 -3.3547  0.0615
13999TIP3    H263489   2.654   1.778   5.257  1.7675 -2.3356  0.3603
14000TIP3   OH263490   1.057   5.127   0.066 -0.7807 -0.8014  0.4914
14000TIP3    H163491   0.966   5.134   0.093 -0.7281  1.0294  0.3078
14000TIP3    H263492   1.105   5.103   0.145 -1.3091 -0.7522  0.8228
14001TIP3   OH263493   3.715   1.430   4.343 -0.4985  0.0845  0.3358
14001TIP3    H163494   3.716   1.482   4.424 -0.3550  0.7632 -0.0938
14001TIP3    H263495   3.801   1.389   4.339  0.2656  1.7119 -0.5200
14002TIP3   OH263496   3.181   6.410  12.886 -0.4184 -0.0346 -0.2121
14002TIP3    H163497   3.183   6.350  12.961 -0.4441  0.7496  0.4133
14002TIP3    H263498   3.126   6.365  12.821 -1.6168 -0.0585  0.7984
14003TIP3   OH263499   2.631   0.675   3.639 -0.2201 -0.3173 -0.1842
14003TIP3    H163500   2.692   0.681   3.713  0.6408  0.1818 -0.9230
14003TIP3    H263501   2.547   0.705   3.675  0.3854  0.7597  0.3783
14004TIP3   OH263502   1.312   0.849   1.500  0.7696 -0.2784  0.5432
14004TIP3    H163503   1.299   0.942   1.514  0.7155 -0.1366 -0.4375
14004TIP3    H263504   1.407   0.839   1.490  1.0543 -0.7052  3.2869
14005TIP3   OH263505   4.024   0.969   3.089  0.1149 -0.2464  0.5198
14005TIP3    H163506   4.090   0.997   3.025  0.3497  0.1913  0.9496
14005TIP3    H263507   4.064   0.894   3.133 -0.3631 -1.0435 -0.3743
14006TIP3   OH263508   6.747   3.553  16.469 -0.0946 -0.3145 -0.3146
14006TIP3    H163509   6.672   3.580  16.416  0.1204  1.4862  0.2824
14006TIP3    H263510   6.713   3.547  16.558  0.4861  0.6555 -0.0137
14007TIP3   OH263511   0.270   5.876   5.967 -0.9994 -0.0182  0.3329
14007TIP3    H163512   0.286   5.820   6.043 -1.5437 -1.0531 -0.2987
14007TIP3    H263513   0.202   5.830   5.917  0.1505  0.0521 -1.3611
14008TIP3   OH263514   1.123   0.297   5.254  0.0924  0.0808  0.2716
14008TIP3    H163515   1.175   0.297   5.174  2.3261 -0.0094  1.6895
14008TIP3    H263516   1.063   0.223   5.244  1.4150 -0.8872 -0.6268
14009TIP3   OH263517   0.257   4.072   4.521 -0.2247  0.0695  0.3455
14009TIP3    H163518   0.211   4.043   4.599 -0.6908 -3.1159 -1.0210
14009TIP3    H263519   0.197   4.134   4.479 -0.9688  0.0090  1.3021
14010TIP3   OH263520   3.734   4.699  15.637 -0.2773 -0.4038 -0.0717
14010TIP3    H163521   3.709   4.703  15.729 -3.2093  1.3601 -0.9078
14010TIP3    H263522   3.735   4.605  15.616 -2.1789 -0.6973  1.0784
14011TIP3   OH263523   4.224   4.829   1.683  0.2663 -0.2713 -0.0233
14011TIP3    H163524   4.167   4.752   1.673  0.5075 -0.4692  0.1121
14011TIP3    H263525   4.311   4.792   1.698  0.3498  0.0303  0.2357
14012TIP3   OH263526   3.885   0.985  10.711 -0.1772 -0.1194  0.2659
14012TIP3    H163527   3.790   0.970  10.705 -0.3611 -0.0364  2.6233
14012TIP3    H263528   3.922   0.897  10.721  0.0977 -0.2266 -1.4675
14013TIP3   OH263529   5.232   1.508  12.014  0.1017 -0.3192 -0.3631
14013TIP3    H163530   5.211   1.482  11.924  1.9513 -3.8729  0.1813
14013TIP3    H263531   5.323   1.537  12.010 -0.2275  0.8213  0.1467
14014TIP3   OH263532   1.391   0.899  12.788 -0.9229  0.0758 -0.1631
14014TIP3    H163533   1.377   0.975  12.733  0.4084 -0.1917 -0.8850
14014TIP3    H263534   1.469   0.920  12.839 -0.3049 -0.9612 -0.6645
14015TIP3   OH263535   1.760   5.330  11.969  0.1810 -0.0298 -0.6850
14015TIP3    H163536   1.785   5.294  12.054 -0.5748 -2.7455 -1.5410
14015TIP3    H263537   1.843   5.338  11.921  0.5253  0.8220  0.0513
14016TIP3   OH263538   0.114   1.853   2.697  0.3856  0.3545  0.1045
14016TIP3    H163539   0.023   1.868   2.672  0.7782  0.6321 -1.2103
14016TIP3    H263540   0.124   1.758   2.700 -0.6570  0.3010  2.9751
14017TIP3   OH263541   2.277   6.054   4.935 -0.3212 -0.5342  0.1181
14017TIP3    H163542   2.358   6.087   4.976 -1.0354  0.4082  0.7984
14017TIP3    H263543   2.297   5.962   4.915  1.1867 -0.1117 -0.4411
14018TIP3   OH263544   6.427   1.209   5.583 -0.1347  0.0830  0.1215
14018TIP3    H163545   6.501   1.261   5.617  0.7683 -1.5818  0.7791
14018TIP3    H263546   6.354   1.232   5.640  0.4975 -0.0516  1.0103
14019TIP3   OH263547   4.008   2.687   5.057 -0.0733  0.4444  0.3042
14019TIP3    H163548   4.088   2.720   5.015 -1.1204  0.8585 -1.4043
14019TIP3    H263549   4.009   2.727   5.144  2.0955 -0.3564  0.6954
14020TIP3   OH263550   6.543   1.936  12.601  0.6114  0.2498  0.0605
14020TIP3    H163551   6.485   1.901  12.669 -0.1593 -0.9867 -1.2094
14020TIP3    H263552   6.615   1.874  12.596  0.9065  0.5922  0.0909
14021TIP3   OH263553   1.004   1.118   5.112  0.0101 -0.0805  0.0160
14021TIP3    H163554   0.979   1.154   5.197 -0.2118 -0.5230  0.1401
14021TIP3    H263555   1.061   1.185   5.073 -0.7818  0.6196  0.0421
14022TIP3   OH263556   1.277   6.187   0.268 -0.2868 -0.3077 -0.3561
14022TIP3    H163557   1.327   6.130   0.327 -0.7599 -0.3383  0.0187
14022TIP3    H263558   1.343   6.244   0.228 -0.0190  0.0890  0.6266
14023TIP3   OH263559   2.759   1.025   0.552 -0.4981 -0.0573 -0.0770
14023TIP3    H163560   2.854   1.017   0.550 -0.5304 -0.3005 -0.6831
14023TIP3    H263561   2.735   1.002   0.641 -0.1130 -1.4340 -0.3275
14024TIP3   OH263562   5.775   3.546  11.459  0.1850  0.5014  0.1702
14024TIP3    H163563   5.841   3.600  11.416 -1.3711  1.8823 -0.5832
14024TIP3    H263564   5.731   3.500  11.387 -0.7872  0.9084  0.4911
14025TIP3   OH263565   0.284   3.784  14.753  0.1946 -0.2773  0.0403
14025TIP3    H163566   0.332   3.702  14.737 -0.0581 -0.7500  1.6749
14025TIP3    H263567   0.194   3.756  14.769 -0.0391  0.3884 -0.1081
14026TIP3   OH263568   2.709   2.905   5.398 -0.3798  0.5031 -0.0646
14026TIP3    H163569   2.753   2.874   5.319 -0.2765  2.5339 -0.8371
14026TIP3    H263570   2.616   2.886   5.383 -0.5608  2.3268 -1.4047
14027TIP3   OH263571   6.652   1.923   6.357  0.0490 -0.7063 -0.3158
14027TIP3    H163572   6.682   1.988   6.420  0.4640 -0.7360 -0.4800
14027TIP3    H263573   6.704   1.940   6.278 -1.1129 -0.0818 -0.9585
14028TIP3   OH263574   5.296   0.696  11.726 -0.4549  0.0139 -0.0741
14028TIP3    H163575   5.243   0.772  11.703 -0.0358  0.4400  0.3455
14028TIP3    H263576   5.266   0.627  11.667  0.2231  0.9227 -1.5302
14029TIP3   OH263577   2.890   3.390  11.585  0.0132 -0.2801 -0.5071
14029TIP3    H163578   2.900   3.314  11.643  1.1188 -0.4687 -0.9272
14029TIP3    H263579   2.850   3.457  11.641  1.0075 -0.4821  0.4806
14030TIP3   OH263580   3.892   3.171   0.203  0.1091  0.5204 -0.1734
14030TIP3    H163581   3.820   3.233   0.217 -0.9542 -0.0669 -2.8384
14030TIP3    H263582   3.928   3.157   0.291 -0.9439  3.2936  0.7737
14031TIP3   OH263583   2.042   4.456   5.516 -0.1935  0.3453  0.0710
14031TIP3    H163584   2.069   4.364   5.523  0.7803  0.4636 -1.8732
14031TIP3    H263585   1.950   4.456   5.542 -0.5218 -1.3594 -1.0431
14032TIP3   OH263586   0.439   1.646  17.083 -0.0502 -0.5240  0.0099
14032TIP3    H163587   0.408   1.651  16.993  1.4025 -3.3346 -0.6954
14032TIP3    H263588   0.499   1.720  17.092  1.9495 -1.8563 -2.2075
14033TIP3   OH263589   1.383   2.420  14.566  0.2567  0.5648  0.3445
14033TIP3    H163590   1.329   2.496  14.546  1.1273  0.9147 -0.7106
14033TIP3    H263591   1.468   2.440  14.528  1.0784 -0.0818  1.7898
14034TIP3   OH263592   0.174   3.046  11.429 -0.3787 -0.3330 -0.3828
14034TIP3    H163593   0.134   3.013  11.349  0.3619 -2.0102 -0.0906
14034TIP3    H263594   0.161   2.976  11.493  1.5983 -0.2666  0.1388
14035TIP3   OH263595   4.186   3.312  11.268 -0.8578 -0.0188 -0.1610
14035TIP3    H163596   4.274   3.322  11.304 -1.4431 -0.0345  1.3211
14035TIP3    H263597   4.140   3.392  11.294 -1.2462  0.0570 -1.0544
14036TIP3   OH263598   3.546   3.215   5.770 -0.4761  0.1507  0.1009
14036TIP3    H163599   3.465   3.193   5.724 -0.3750  0.8337 -0.4078
14036TIP3    H263600   3.520   3.283   5.833  0.3298  2.9729 -2.4716
14037TIP3   OH263601   3.250   5.269  15.387  0.4388 -0.3436  0.1213
14037TIP3    H163602   3.289   5.298  15.469  0.8506 -0.2116 -0.1203
14037TIP3    H263603   3.284   5.330  15.321 -1.0543  0.4653  0.0795
14038TIP3   OH263604   5.908   5.630  17.095 -0.2466 -0.2258  0.5666
14038TIP3    H163605   6.003   5.622  17.090 -0.3281 -1.0715  0.3038
14038TIP3    H263606   5.883   5.576  17.170 -0.6540 -1.1827 -0.2472
14039TIP3   OH263607   5.528   3.717  12.839 -0.0230  0.3996  0.0663
14039TIP3    H163608   5.550   3.627  12.864 -2.1461  0.2603  1.5085
14039TIP3    H263609   5.592   3.739  12.771  2.2443 -1.2361  1.6040
14040TIP3   OH263610   1.681   6.654  11.983  0.4888  0.1764 -0.6193
14040TIP3    H163611   1.744   6.688  11.920  0.4917  0.7399 -0.3258
14040TIP3    H263612   1.633   6.587  11.936 -0.4436  1.5458 -1.6559
14041TIP3   OH263613   3.902   2.878   2.378 -0.2049 -0.0467  0.1988
14041TIP3    H163614   3.893   2.788   2.346 -1.6203  0.2266 -0.1730
14041TIP3    H263615   3.846   2.882   2.456  2.5579 -0.4669  2.2874
14042TIP3   OH263616   4.477   4.510  12.250  0.3165 -0.1287  0.1562
14042TIP3    H163617   4.506   4.600  12.238  1.6007 -0.7258 -1.4759
14042TIP3    H263618   4.402   4.501  12.190 -0.9963  0.3826  1.7055
14043TIP3   OH263619   6.237   6.684   1.751 -0.1276 -0.4399  0.5720
14043TIP3    H163620   6.283   6.767   1.735 -0.6920 -0.5360 -1.7408
14043TIP3    H263621   6.303   6.617   1.733  0.7147 -0.5120  3.7283
14044TIP3   OH263622   4.106   4.442   1.592 -0.1600 -0.0583 -0.3578
14044TIP3    H163623   4.028   4.494   1.610 -0.7491 -1.0356 -0.0451
14044TIP3    H263624   4.096   4.416   1.500 -0.2593 -0.2725 -0.2870
14045TIP3   OH263625   2.134   6.581  15.545  0.2355 -0.5189  0.6286
14045TIP3    H163626   2.042   6.605  15.552  0.5924  0.9474  0.5130
14045TIP3    H263627   2.170   6.597  15.632  0.4510 -0.7527  0.5818
14046TIP3   OH263628   2.056   3.136  11.876  0.1498  0.5492 -0.2857
14046TIP3    H163629   2.018   3.216  11.839 -0.7414  0.7077  0.9230
14046TIP3    H263630   2.020   3.132  11.965  2.7242  0.5277  0.7940
14047TIP3   OH263631   3.327   5.206  12.491 -0.1476  0.0145 -0.0376
14047TIP3    H163632   3.417   5.212  12.524 -0.4852 -1.0838  1.1356
14047TIP3    H263633   3.323   5.122  12.447 -0.3917  0.4038 -0.7620
14048TIP3   OH263634   6.332   3.209   6.102  0.1983 -0.0797 -0.4689
14048TIP3    H163635   6.346   3.163   6.185  3.8961  0.0767 -0.9183
14048TIP3    H263636   6.274   3.281   6.124  0.5333 -0.4716  1.8526
14049TIP3   OH263637   1.221   4.419   0.649  0.4772  0.3619  0.4049
14049TIP3    H163638   1.278   4.342   0.649  0.5238  0.3801 -1.3716
14049TIP3    H263639   1.146   4.394   0.596 -0.0639  1.1577  0.7718
14050TIP3   OH263640   5.663   6.587   3.866  0.3511  0.2904  0.1451
14050TIP3    H163641   5.740   6.547   3.827  1.4115  0.6848  1.7605
14050TIP3    H263642   5.686   6.597   3.959 -2.7569 -2.3407  1.3112
14051TIP3   OH263643   2.961   6.501   3.784 -0.0852 -0.0388 -0.0146
14051TIP3    H163644   2.925   6.485   3.697 -0.3149 -1.3435  0.3103
14051TIP3    H263645   2.888   6.536   3.834  0.0920  0.8832 -0.3819
14052TIP3   OH263646   6.265   2.842   0.782 -0.2716 -0.1043 -0.3241
14052TIP3    H163647   6.297   2.754   0.801 -0.9850 -0.4775 -0.8188
14052TIP3    H263648   6.318   2.871   0.707  1.4094  0.7274  1.1517
14053TIP3   OH263649   4.356   0.619   5.629  0.0037  0.4905  0.2408
14053TIP3    H163650   4.440   0.585   5.599  0.5892  1.3698  0.8624
14053TIP3    H263651   4.374   0.654   5.717 -1.1068  0.2777  0.5644
14054TIP3   OH263652   2.801   3.141   6.076  0.4203 -0.7656  0.0296
14054TIP3    H163653   2.871   3.190   6.119  1.0334  0.0692 -1.8612
14054TIP3    H263654   2.776   3.073   6.140  1.5905  0.1493  1.4940
14055TIP3   OH263655   1.690   5.961   6.745  0.2307 -0.2563 -0.5212
14055TIP3    H163656   1.625   5.913   6.694 -0.5091  2.7812 -2.5975
14055TIP3    H263657   1.638   6.003   6.815 -0.0468  1.7261 -1.8571
14056TIP3   OH263658   4.827   5.217  12.098 -0.5989 -0.0903 -0.1416
14056TIP3    H163659   4.854   5.309  12.093 -0.4869 -0.1704 -1.0091
14056TIP3    H263660   4.774   5.212  12.178  1.0401  0.3038  1.0033
14057TIP3   OH263661   3.770   3.586  16.301  0.0788 -0.9418  0.1636
14057TIP3    H163662   3.803   3.516  16.356  2.7758  0.2723  0.1582
14057TIP3    H263663   3.781   3.665  16.353 -3.0237 -0.4729  0.2163
14058TIP3   OH263664   5.656   3.458  14.441  0.1723  0.3692  0.2102
14058TIP3    H163665   5.567   3.465  14.407  0.5521  0.5160 -0.7775
14058TIP3    H263666   5.711   3.497  14.373  1.2185 -1.9178 -0.3262
14059TIP3   OH263667   2.091   2.720   3.708  0.7983 -0.2527  0.3379
14059TIP3    H163668   2.036   2.798   3.704  1.0079 -0.0943  0.5242
14059TIP3    H263669   2.064   2.667   3.633  0.8339  0.1169  0.0614
14060TIP3   OH263670   6.209   2.599   3.094  0.3051  0.6810  0.2033
14060TIP3    H163671   6.285   2.597   3.152  0.2167 -0.7009  0.2999
14060TIP3    H263672   6.134   2.609   3.152  0.1311 -1.7932  0.4480
14061TIP3   OH263673   0.747   5.447  14.085 -0.2442 -0.0255 -0.3582
14061TIP3    H163674   0.675   5.384  14.090 -1.4718  1.2889 -1.4023
14061TIP3    H263675   0.724   5.515  14.148 -0.3996  0.8816 -1.3842
14062TIP3   OH263676   4.367   1.597  15.651  0.0856 -0.1248 -0.4860
14062TIP3    H163677   4.364   1.670  15.589 -0.1456  1.3801  1.2666
14062TIP3    H263678   4.450   1.607  15.696 -0.8194  0.1833  1.1247
14063TIP3   OH263679   2.430   5.263  11.463 -0.4795  0.1459  0.7126
14063TIP3    H163680   2.368   5.331  11.437  2.4122  2.4611 -0.3915
14063TIP3    H263681   2.470   5.233  11.382 -0.4900 -1.6485  1.3537
14064TIP3   OH263682   3.870   4.869  11.374 -0.1808 -0.2421 -0.7169
14064TIP3    H163683   3.923   4.947  11.389  1.1050 -0.9999 -1.1898
14064TIP3    H263684   3.832   4.882  11.287  1.5495 -0.9688 -1.6073
14065TIP3   OH263685   3.918   0.299   5.266 -0.0577 -0.1181  0.0502
14065TIP3    H163686   3.995   0.306   5.208 -0.5700  0.2009 -0.6038
14065TIP3    H263687   3.955   0.300   5.354  0.7327 -0.4964 -0.2633
14066TIP3   OH263688   0.699   1.506  14.343  0.2646 -0.1326 -0.4271
14066TIP3    H163689   0.785   1.499  14.303  1.4720  0.5471  1.9682
14066TIP3    H263690   0.694   1.596  14.376 -1.1306 -0.3280 -0.0425
14067TIP3   OH263691   4.531   5.097   0.349 -0.6721  1.1780  0.3486
14067TIP3    H163692   4.502   5.163   0.286  2.0478  0.8449 -1.3543
14067TIP3    H263693   4.609   5.058   0.309 -1.0674 -1.7089  2.2120
14068TIP3   OH263694   1.386   1.381  14.043 -0.3005 -0.0729 -0.3869
14068TIP3    H163695   1.368   1.288  14.033 -1.5810  0.3003 -1.6730
14068TIP3    H263696   1.408   1.412  13.955 -1.5701  1.1664 -0.3046
14069TIP3   OH263697   5.073   5.185   3.548  0.3152 -0.0340 -0.8152
14069TIP3    H163698   5.106   5.226   3.468  0.7265  0.0410 -0.6063
14069TIP3    H263699   5.136   5.210   3.616  0.0148 -0.1705 -0.4854
14070TIP3   OH263700   1.850   4.312  12.422 -0.2789  0.0208 -0.0052
14070TIP3    H163701   1.869   4.365  12.344 -0.4231 -1.9898 -1.4567
14070TIP3    H263702   1.755   4.299  12.419 -0.2032 -0.5527  0.1850
14071TIP3   OH263703   4.842   5.146  12.609 -0.3596 -0.4229  0.1256
14071TIP3    H163704   4.758   5.189  12.593 -1.2569 -1.4459  1.9050
14071TIP3    H263705   4.898   5.216  12.643 -0.6751  0.1320 -0.4845
14072TIP3   OH263706   2.432   3.981  14.627 -0.0189  0.2169 -0.1413
14072TIP3    H163707   2.433   4.025  14.711 -0.7891 -0.6226  0.3168
14072TIP3    H263708   2.435   3.888  14.649 -1.3884 -0.0379 -1.0092
14073TIP3   OH263709   3.982   1.291   3.918  0.4102 -0.3436 -0.1561
14073TIP3    H163710   4.002   1.238   3.996  2.7945  0.2938 -0.3152
14073TIP3    H263711   4.014   1.378   3.940  1.0959 -0.1673 -1.8610
14074TIP3   OH263712   2.124   0.771  16.755  0.3285  0.0727 -0.4603
14074TIP3    H163713   2.126   0.698  16.693 -0.1272  0.8538 -1.4107
14074TIP3    H263714   2.045   0.821  16.731  0.2659  0.5039  0.6068
14075TIP3   OH263715   2.578   3.497  13.783  0.2307 -0.2924  0.4602
14075TIP3    H163716   2.587   3.432  13.714  0.5468 -0.1942  0.4074
14075TIP3    H263717   2.667   3.509  13.817  0.6267  1.9667 -1.2406
14076TIP3   OH263718   2.745   4.943   0.601  0.1014 -0.2588 -0.2013
14076TIP3    H163719   2.692   4.869   0.574 -0.9521 -0.4103  2.1846
14076TIP3    H263720   2.833   4.907   0.613 -0.3904 -1.1248  0.8710
14077TIP3   OH263721   1.199   6.566   2.410 -0.1595  0.7810  1.0610
14077TIP3    H163722   1.149   6.568   2.328  1.0775 -1.6796  0.1794
14077TIP3    H263723   1.133   6.566   2.479 -1.2639  1.2970  0.0198
14078TIP3   OH263724   1.762   5.943  11.680  0.2222  0.4029 -0.0553
14078TIP3    H163725   1.853   5.974  11.680  0.2991  0.1792  0.1356
14078TIP3    H263726   1.709   6.023  11.681  0.4217  0.5452  2.7901
14079TIP3   OH263727   1.943   5.366   4.635 -0.4669  0.0605  0.6281
14079TIP3    H163728   2.006   5.423   4.679  0.5114 -0.8826  0.4593
14079TIP3    H263729   1.990   5.333   4.558 -0.9676 -1.1245  0.8291
14080TIP3   OH263730   4.290   1.887   1.624  0.0133 -0.0664 -0.1710
14080TIP3    H163731   4.382   1.874   1.600  0.0223  1.8660 -1.2930
14080TIP3    H263732   4.249   1.919   1.543 -1.4984 -0.2448  0.5089
14081TIP3   OH263733   4.258   3.729   2.666  0.1053 -0.3335 -0.6544
14081TIP3    H163734   4.253   3.634   2.664  1.5984 -0.4121 -1.2088
14081TIP3    H263735   4.293   3.753   2.580 -0.8566  0.7594 -0.7565
14082TIP3   OH263736   4.143   4.095  12.944 -0.1568 -0.2458 -0.1094
14082TIP3    H163737   4.135   4.158  13.016  0.7044 -1.0976  0.7589
14082TIP3    H263738   4.190   4.143  12.876 -0.5955  0.4369  0.0566
14083TIP3   OH263739   0.785   6.478   2.990 -0.1670 -0.2813  0.0416
14083TIP3    H163740   0.872   6.507   2.964  0.3600 -0.9998  0.9558
14083TIP3    H263741   0.771   6.517   3.076 -0.8050 -0.0726 -0.1493
14084TIP3   OH263742   2.118   3.003   0.927  0.6986 -0.1062 -0.1699
14084TIP3    H163743   2.055   3.059   0.882  0.7660  0.1698  0.0715
14084TIP3    H263744   2.157   2.949   0.858  0.3829 -0.0962 -0.3544
14085TIP3   OH263745   2.806   2.547   2.312 -0.0940  0.1137  0.0777
14085TIP3    H163746   2.815   2.453   2.301  0.8007  0.0730  1.0110
14085TIP3    H263747   2.798   2.560   2.407 -3.6858  0.7145 -0.2446
14086TIP3   OH263748   1.858   4.532  17.211 -0.1390 -0.0570  0.2185
14086TIP3    H163749   1.795   4.520  17.140  0.4370  0.8711 -0.4670
14086TIP3    H263750   1.806   4.564  17.285 -0.6308 -0.2842 -0.0331
14087TIP3   OH263751   6.618   2.770  12.869 -0.1753 -0.7825 -0.2512
14087TIP3    H163752   6.572   2.735  12.946 -2.2750 -0.0998 -1.1718
14087TIP3    H263753   6.551   2.772  12.800  1.0851  0.8452 -1.4421
14088TIP3   OH263754   2.538   4.017  10.646 -0.7519  0.7069  0.2697
14088TIP3    H163755   2.541   4.111  10.629  0.4222  0.6371  0.0418
14088TIP3    H263756   2.533   3.977  10.559 -0.2095  0.5273  0.3184
14089TIP3   OH263757   6.012   5.450   6.100 -0.3457  0.9001  0.5496
14089TIP3    H163758   5.993   5.489   6.015 -0.4515  0.5475  0.4130
14089TIP3    H263759   5.928   5.450   6.146 -0.4942  0.1431  0.2714
14090TIP3   OH263760   3.778   3.961  13.708 -0.3139  0.5443 -0.5126
14090TIP3    H163761   3.868   3.936  13.686  0.5291  0.6854  2.6024
14090TIP3    H263762   3.737   3.978  13.623  2.9566  1.7398 -1.9505
14091TIP3   OH263763   1.996   3.239   2.663  0.2922  0.4537  0.0313
14091TIP3    H163764   2.046   3.161   2.637  0.7905  0.1745  1.7522
14091TIP3    H263765   1.940   3.208   2.734 -3.2730  0.4643 -2.6332
14092TIP3   OH263766   3.969   1.149   2.592 -0.3790  0.1166 -0.3301
14092TIP3    H163767   3.989   1.140   2.685 -0.7716 -0.5055 -0.3068
14092TIP3    H263768   3.875   1.163   2.589 -0.4070 -0.1351 -0.6532
14093TIP3   OH263769   6.488   3.811   1.671 -0.1181 -0.0141  0.0380
14093TIP3    H163770   6.477   3.764   1.589  1.6379 -1.1659  0.4212
14093TIP3    H263771   6.402   3.846   1.691 -0.9997 -1.3477 -1.3126
14094TIP3   OH263772   5.681   0.699   1.782 -0.1337  0.6210 -0.0641
14094TIP3    H163773   5.684   0.667   1.872  0.5519 -1.5837 -0.8383
14094TIP3    H263774   5.771   0.728   1.765 -0.2876  1.1337 -0.0140
14095TIP3   OH263775   5.613   5.669   0.175 -0.0644  0.2025 -0.0371
14095TIP3    H163776   5.605   5.623   0.091  0.2876  1.7438 -0.9307
14095TIP3    H263777   5.604   5.600   0.241 -1.0164 -0.9288 -1.3271
14096TIP3   OH263778   6.013   4.888  14.062 -0.3027 -0.1488  0.0021
14096TIP3    H163779   5.968   4.954  14.116  1.0498 -0.8047  1.9915
14096TIP3    H263780   5.964   4.808  14.078  0.5262 -0.4960  0.8294
14097TIP3   OH263781   4.028   5.804  10.917 -0.2419 -0.4646  0.0400
14097TIP3    H163782   3.959   5.741  10.898 -1.4863  1.0870 -0.6551
14097TIP3    H263783   4.055   5.837  10.832 -0.2237  0.5891  0.4394
14098TIP3   OH263784   4.461   5.169   2.307  0.0932 -0.4339 -0.2710
14098TIP3    H163785   4.520   5.242   2.289 -0.0944 -0.1697  0.1728
14098TIP3    H263786   4.514   5.090   2.294 -0.1756 -0.2727 -2.4726
14099TIP3   OH263787   5.425   0.281  16.655  0.1422  0.1608 -0.0832
14099TIP3    H163788   5.481   0.258  16.581 -0.2632  0.3675 -0.4549
14099TIP3    H263789   5.443   0.373  16.672  0.5333  0.0129  0.3426
14100TIP3   OH263790   3.125   2.052  11.388 -0.3233 -0.2001 -0.3344
14100TIP3    H163791   3.214   2.070  11.418 -0.6398  1.4809 -0.3255
14100TIP3    H263792   3.084   2.007  11.462 -0.0768  0.8638  0.4829
14101TIP3   OH263793   3.074   5.701  15.214 -0.5632 -0.4688  0.3620
14101TIP3    H163794   3.034   5.617  15.195 -2.4447  0.8679 -1.8098
14101TIP3    H263795   3.007   5.749  15.263  0.3608 -0.0914  1.2732
14102TIP3   OH263796   3.842   1.523   5.186 -0.1804  0.0439  0.4748
14102TIP3    H163797   3.891   1.440   5.186 -0.3342 -0.0492  0.8469
14102TIP3    H263798   3.783   1.516   5.110 -0.1569 -0.1654  0.4755
14103TIP3   OH263799   4.227   4.479  12.088 -0.8614  0.4693 -0.9180
14103TIP3    H163800   4.204   4.396  12.129  0.7861  0.3434 -0.2042
14103TIP3    H263801   4.174   4.482  12.009 -0.3579 -1.6400 -1.3687
14104TIP3   OH263802   1.328   4.480  11.004 -0.3657 -0.3382  0.2390
14104TIP3    H163803   1.403   4.513  10.955 -1.9741  2.5610 -0.3748
14104TIP3    H263804   1.366   4.440  11.083  1.9233 -0.8811 -1.0967
14105TIP3   OH263805   2.723   5.518   6.121 -0.7810  0.3137  0.2006
14105TIP3    H163806   2.657   5.569   6.167 -0.3135  1.5789 -0.5034
14105TIP3    H263807   2.799   5.518   6.180  0.2058  2.8912 -1.0298
14106TIP3   OH263808   3.508   5.789   3.882 -0.2501  0.7162  0.3500
14106TIP3    H163809   3.590   5.773   3.835 -0.8159  0.5570 -0.5857
14106TIP3    H263810   3.536   5.812   3.971  0.8234  0.9636 -0.0425
14107TIP3   OH263811   3.598   2.231   5.947  0.0963 -0.5727  0.0112
14107TIP3    H163812   3.619   2.255   5.857  1.1974 -2.2955 -0.2195
14107TIP3    H263813   3.538   2.299   5.977 -0.9408 -0.4253 -2.2895
14108TIP3   OH263814   4.213   6.630   3.137  0.1068  0.2843  0.0709
14108TIP3    H163815   4.238   6.544   3.171 -1.0767 -0.7463 -1.5527
14108TIP3    H263816   4.253   6.634   3.050 -0.8563  0.8379 -0.3582
14109TIP3   OH263817   4.681   2.523  11.739  0.3619 -0.6227  0.6050
14109TIP3    H163818   4.677   2.437  11.698  0.4069 -0.5237  0.3893
14109TIP3    H263819   4.774   2.545  11.743  0.3195 -0.3590  0.1788
14110TIP3   OH263820   2.075   1.737  14.697 -0.4349 -0.0657  0.0308
14110TIP3    H163821   2.083   1.794  14.774 -3.7022 -0.7495  0.9471
14110TIP3    H263822   2.118   1.655  14.724  0.7081  0.5583  0.1606
14111TIP3   OH263823   6.762   6.561   3.361 -0.3693  0.1759 -0.4108
14111TIP3    H163824   6.767   6.543   3.267  1.6016 -0.2559 -0.2510
14111TIP3    H263825   6.716   6.645   3.366 -0.0325  0.4642 -1.7981
14112TIP3   OH263826   3.116   4.159  11.340  0.6990 -0.0909  0.2070
14112TIP3    H163827   3.085   4.121  11.422 -1.5596  2.8990  0.8058
14112TIP3    H263828   3.098   4.090  11.275 -0.0603 -1.4237  1.7752
14113TIP3   OH263829   4.645   5.113  14.872 -0.2810 -0.0486  0.7785
14113TIP3    H163830   4.598   5.143  14.950 -0.8097 -0.6421  0.6946
14113TIP3    H263831   4.714   5.178  14.858  0.0578 -0.1516  1.9669
14114TIP3   OH263832   1.300   5.956   4.198 -0.4501  0.1945  0.2955
14114TIP3    H163833   1.322   5.901   4.273 -1.8459 -1.4530 -0.4519
14114TIP3    H263834   1.243   6.025   4.234 -0.3808 -0.0642  0.9038
14115TIP3   OH263835   4.959   3.609  12.735  0.5413 -0.0805  0.4557
14115TIP3    H163836   4.974   3.516  12.720 -0.0610 -0.2353  0.7770
14115TIP3    H263837   5.045   3.644  12.761  0.4374 -0.8792  1.9422
14116TIP3   OH263838   3.006   0.147  12.827  0.8620  0.1488 -0.1368
14116TIP3    H163839   2.950   0.090  12.774 -1.2158  1.7393  0.2606
14116TIP3    H263840   2.992   0.118  12.917  0.5905  0.5653 -0.0365
14117TIP3   OH263841   0.180   1.211   2.063  0.0219 -0.2014 -0.2221
14117TIP3    H163842   0.090   1.195   2.035 -1.1004  0.1590  2.9184
14117TIP3    H263843   0.178   1.299   2.101  0.8135 -1.4440  2.9444
14118TIP3   OH263844   1.712   6.735   3.846  0.4363 -0.4768 -0.6233
14118TIP3    H163845   1.697   6.805   3.783  1.1974  0.2370 -0.0370
14118TIP3    H263846   1.749   6.663   3.795  1.6756  0.3399 -0.8888
14119TIP3   OH263847   3.196   2.345   6.215  0.2331 -0.6430  0.2524
14119TIP3    H163848   3.146   2.273   6.178  0.7321 -0.4864 -0.7309
14119TIP3    H263849   3.150   2.424   6.185  1.3600 -0.4818 -1.1036
14120TIP3   OH263850   2.194   6.741   3.476 -0.5669  0.4742  0.5881
14120TIP3    H163851   2.265   6.801   3.456  0.5086 -0.8802  0.2444
14120TIP3    H263852   2.133   6.750   3.402  0.5325 -0.2497 -0.4287
14121TIP3   OH263853   0.876   0.719   3.357 -0.1600 -0.1301  0.0923
14121TIP3    H163854   0.903   0.704   3.448 -0.8342  0.3946  0.3831
14121TIP3    H263855   0.898   0.810   3.340 -0.9928  0.0762  0.0721
14122TIP3   OH263856   6.218   2.515  16.575 -0.8120 -0.0359  0.2892
14122TIP3    H163857   6.194   2.467  16.496 -1.1831  0.5993  0.0111
14122TIP3    H263858   6.138   2.516  16.628 -1.0263  0.9342 -0.0467
14123TIP3   OH263859   6.024   0.406   6.388 -0.5132  0.3972  0.0760
14123TIP3    H163860   6.038   0.315   6.411  0.0211  0.5978  0.5436
14123TIP3    H263861   5.977   0.444   6.462  1.8211  1.2106  1.1735
14124TIP3   OH263862   2.798   0.905   4.622  0.3219  0.2935 -0.0626
14124TIP3    H163863   2.756   0.839   4.678  1.0035  2.5194  3.2533
14124TIP3    H263864   2.876   0.861   4.589 -0.1726 -1.1615  0.6448
14125TIP3   OH263865   4.832   5.778  12.395 -1.0871 -0.8066  0.1877
14125TIP3    H163866   4.820   5.865  12.434 -2.7336 -1.2512  0.7163
14125TIP3    H263867   4.920   5.752  12.421 -0.0016  1.3392 -1.2477
14126TIP3   OH263868   5.925   5.608  13.551 -0.2885 -0.0599 -0.5419
14126TIP3    H163869   5.925   5.598  13.646  0.9791 -1.1391 -0.6433
14126TIP3    H263870   5.891   5.696  13.536 -1.5986 -0.3141  0.8602
14127TIP3   OH263871   6.696   6.279   5.890  0.9471 -0.2113 -0.4703
14127TIP3    H163872   6.762   6.243   5.949 -0.1121 -1.6971 -0.1841
14127TIP3    H263873   6.698   6.221   5.814 -0.2461 -0.4357 -0.3329
14128TIP3   OH263874   5.141   2.288   3.266  1.0561  0.0900 -0.5473
14128TIP3    H163875   5.184   2.234   3.200  0.5562  0.1646 -0.9348
14128TIP3    H263876   5.063   2.323   3.222  0.6603  0.0499  0.1138
14129TIP3   OH263877   2.560   4.268  16.670 -0.7239 -0.1020 -0.1328
14129TIP3    H163878   2.552   4.364  16.669 -1.7938 -0.1951 -0.0953
14129TIP3    H263879   2.558   4.242  16.578 -0.3576 -0.0832 -0.1486
14130TIP3   OH263880   4.425   0.052   4.838 -0.0486 -0.1001 -0.5823
14130TIP3    H163881   4.363   0.007   4.894 -1.1378  1.5824 -0.3854
14130TIP3    H263882   4.371   0.091   4.768  1.1209 -1.0315 -2.0368
14131TIP3   OH263883   2.561   4.304  14.071  0.0841 -0.0158 -0.1244
14131TIP3    H163884   2.656   4.292  14.073 -0.1298 -2.0687 -1.2056
14131TIP3    H263885   2.549   4.395  14.043  1.7336  0.9641  2.1818
14132TIP3   OH263886   2.710   6.236   0.713  0.5487  0.0412  0.3613
14132TIP3    H163887   2.630   6.240   0.662  0.2691 -1.1443  0.6875
14132TIP3    H263888   2.777   6.207   0.651  0.2580 -1.1661  0.5996
14133TIP3   OH263889   2.899   6.093  15.781  0.1196 -0.1526 -0.0333
14133TIP3    H163890   2.904   6.158  15.851 -2.0919 -0.6309  0.6246
14133TIP3    H263891   2.931   6.012  15.820 -0.4978 -0.2667  0.2537
14134TIP3   OH263892   5.989   1.684   5.454 -0.1204 -0.3059  0.5005
14134TIP3    H163893   5.999   1.730   5.371 -0.4545  1.9119  1.6674
14134TIP3    H263894   5.907   1.718   5.491 -0.5247 -2.0429  1.2738
14135TIP3   OH263895   5.789   2.050   6.961 -0.6869  0.5151 -0.0203
14135TIP3    H163896   5.717   2.034   6.901 -0.4414  1.3227 -0.5446
14135TIP3    H263897   5.856   2.094   6.907 -0.1615  0.5675  0.6598
14136TIP3   OH263898   2.299   6.333  15.908  0.2156  0.1829 -0.4659
14136TIP3    H163899   2.322   6.258  15.853  2.4539  1.2384 -1.0320
14136TIP3    H263900   2.338   6.408  15.863 -0.3644  1.4328  1.0803
14137TIP3   OH263901   5.387   4.534   3.282  0.4442  0.5546 -0.2371
14137TIP3    H163902   5.309   4.480   3.293 -0.9040  2.0200 -2.2775
14137TIP3    H263903   5.460   4.472   3.286 -0.8436 -0.9250  1.0154
14138TIP3   OH263904   6.455   0.967   0.151  0.2892 -0.0977 -0.1525
14138TIP3    H163905   6.363   0.942   0.161 -0.6540  2.9514 -0.7695
14138TIP3    H263906   6.499   0.931   0.228 -1.1514 -2.6295 -0.4656
14139TIP3   OH263907   3.679   2.210   0.549 -0.4094 -0.3956 -0.5942
14139TIP3    H163908   3.705   2.128   0.508  0.4051  0.1355 -1.1694
14139TIP3    H263909   3.689   2.276   0.480  0.1180  0.3734  0.2038
14140TIP3   OH263910   1.051   5.565   4.624 -0.3260  0.2896  0.3081
14140TIP3    H163911   0.958   5.569   4.648 -0.8146 -1.6646 -1.1289
14140TIP3    H263912   1.054   5.504   4.550  2.1812 -0.1144  0.7037
14141TIP3   OH263913   1.819   2.472   4.819  0.0932  0.7539 -0.1017
14141TIP3    H163914   1.746   2.418   4.790  1.1170  0.1996 -1.6583
14141TIP3    H263915   1.784   2.522   4.893 -1.2875 -0.9408  0.4083
14142TIP3   OH263916   1.096   2.003   1.900  0.5767 -0.2740  0.0101
14142TIP3    H163917   1.152   1.973   1.973  2.0477  1.6227 -0.2909
14142TIP3    H263918   1.127   2.092   1.882 -1.3977  0.1538 -1.3617
14143TIP3   OH263919   5.420   4.169   2.011 -0.2381 -0.0874  0.2394
14143TIP3    H163920   5.386   4.193   1.925  1.0080  3.8244  0.7215
14143TIP3    H263921   5.366   4.096   2.039 -2.3130  0.1920 -2.8027
14144TIP3   OH263922   2.325   2.367  16.543  1.0015  0.0480 -0.0770
14144TIP3    H163923   2.305   2.276  16.567 -0.8197  0.2626 -0.6583
14144TIP3    H263924   2.296   2.418  16.618  1.8793  0.1772  0.1819
14145TIP3   OH263925   1.009   5.459  10.603  0.1578  0.3067 -0.7427
14145TIP3    H163926   0.918   5.473  10.626  0.7191 -2.3929  3.8566
14145TIP3    H263927   1.053   5.540  10.628 -0.4526  0.2033  0.7336
14146TIP3   OH263928   0.086   1.364  13.925  0.3154  0.8192 -0.3650
14146TIP3    H163929   0.050   1.311  13.996  2.2208  1.2915  0.9893
14146TIP3    H263930   0.011   1.414  13.892 -0.7725 -0.0669  0.7203
14147TIP3   OH263931   2.435   0.505  13.285 -0.3929  0.0628 -0.2428
14147TIP3    H163932   2.481   0.459  13.355 -1.6395  0.2972  0.7402
14147TIP3    H263933   2.353   0.457  13.275 -0.7000  0.6949 -0.7903
14148TIP3   OH263934   5.635   1.410  13.834  0.0325 -0.1019 -0.1120
14148TIP3    H163935   5.663   1.501  13.844 -0.3258 -0.1385  1.2645
14148TIP3    H263936   5.616   1.402  13.741  0.4178  1.1310 -0.3129
14149TIP3   OH263937   1.728   6.025  12.086 -0.1385 -0.0451  0.3682
14149TIP3    H163938   1.684   5.955  12.037  0.6584  0.0703 -0.5210
14149TIP3    H263939   1.705   6.008  12.177  0.1702 -1.5581  0.1761
14150TIP3   OH263940   4.285   4.596  12.831 -0.1371  0.6952 -0.3292
14150TIP3    H163941   4.375   4.625  12.817  0.3591  0.8524  2.8962
14150TIP3    H263942   4.291   4.501  12.837 -0.1120  0.7265  0.2099
14151TIP3   OH263943   5.604   0.140   1.753 -0.0178 -0.2974 -0.2041
14151TIP3    H163944   5.566   0.206   1.695 -0.0921  0.2702  0.4835
14151TIP3    H263945   5.555   0.060   1.734 -1.3713  0.3515  0.4595
14152TIP3   OH263946   2.471   2.108   0.207  0.2425 -0.3242 -0.0741
14152TIP3    H163947   2.424   2.030   0.176  1.0674 -0.9544  0.2407
14152TIP3    H263948   2.407   2.178   0.201 -0.3763 -0.9387 -0.8031
14153TIP3   OH263949   3.878   4.655  13.440 -0.6247 -0.0042  0.0332
14153TIP3    H163950   3.962   4.610  13.438 -0.6737 -0.1323  0.6795
14153TIP3    H263951   3.836   4.631  13.357  0.8061  1.7145 -1.2270
14154TIP3   OH263952   0.920   1.552   0.485  0.8136 -0.1167 -0.6763
14154TIP3    H163953   0.833   1.514   0.474  0.3876  0.8167 -0.5181
14154TIP3    H263954   0.950   1.570   0.396  1.0223 -0.8158 -0.7547
14155TIP3   OH263955   6.720   2.164   3.307 -0.3118  0.4967 -0.3630
14155TIP3    H163956   6.805   2.204   3.325 -0.7152  0.1162  2.5429
14155TIP3    H263957   6.670   2.233   3.263  0.4104  1.8249  0.8481
14156TIP3   OH263958   1.477   0.564   0.966 -0.4126 -0.0173  0.3244
14156TIP3    H163959   1.406   0.503   0.948  1.1047 -1.8379  0.2597
14156TIP3    H263960   1.485   0.616   0.886 -1.6869  0.2390  0.3584
14157TIP3   OH263961   4.432   0.287  14.401 -0.0160  0.0469 -0.3633
14157TIP3    H163962   4.361   0.349  14.415 -0.4031 -0.2882 -0.8007
14157TIP3    H263963   4.389   0.211  14.360  0.2067 -1.0828  1.4388
14158TIP3   OH263964   3.138   3.625  16.286  0.3714 -0.1648 -0.0429
14158TIP3    H163965   3.046   3.601  16.278 -0.0322  0.8888  1.1493
14158TIP3    H263966   3.163   3.594  16.373  1.0040 -0.0123 -0.1673
14159TIP3   OH263967   2.049   0.633   3.596 -0.6337  0.3511 -0.5528
14159TIP3    H163968   1.978   0.626   3.660 -1.0681 -1.8001 -1.2162
14159TIP3    H263969   2.129   0.620   3.647 -0.7997  1.2187 -0.0550
14160TIP3   OH263970   3.641   0.633  10.989  0.2694  0.1123  0.0903
14160TIP3    H163971   3.637   0.593  11.075  2.3987  1.9431  1.1084
14160TIP3    H263972   3.685   0.569  10.934 -1.3795 -1.1936  0.2397
14161TIP3   OH263973   2.748   5.894   5.359  0.0926  0.0033  0.4321
14161TIP3    H163974   2.700   5.918   5.438  0.3551 -2.3158  1.3211
14161TIP3    H263975   2.793   5.812   5.382 -0.3695 -1.0675 -2.3165
14162TIP3   OH263976   5.005   5.087  14.050  0.0271 -0.1975  0.4293
14162TIP3    H163977   5.087   5.048  14.079 -0.6542 -0.7028  1.7031
14162TIP3    H263978   4.951   5.012  14.024 -0.2900  0.0807  0.2749
14163TIP3   OH263979   6.435   2.673   3.995 -0.4592 -1.1604  0.1066
14163TIP3    H163980   6.451   2.636   4.082 -0.0395 -0.2563  0.4248
14163TIP3    H263981   6.513   2.650   3.944  0.4778  0.5207  0.7331
14164TIP3   OH263982   1.748   5.598  12.397  0.3907 -0.4837 -0.1565
14164TIP3    H163983   1.772   5.565  12.311  0.9843 -0.4652 -0.0027
14164TIP3    H263984   1.785   5.535  12.458 -1.0294 -1.1315  0.0639
14165TIP3   OH263985   4.949   1.613  13.547  0.2395  0.2823  0.1679
14165TIP3    H163986   4.947   1.537  13.605  0.4937  0.5920  0.5834
14165TIP3    H263987   4.891   1.676  13.589  1.9167  1.2300  1.0737
14166TIP3   OH263988   5.297   5.164   4.103 -0.1904  0.0499  0.2899
14166TIP3    H163989   5.265   5.114   4.178 -1.1117 -0.7617 -0.6431
14166TIP3    H263990   5.250   5.128   4.028 -0.6169  2.0847 -0.4420
14167TIP3   OH263991   4.519   1.608   1.188  0.0650 -0.5172 -0.6058
14167TIP3    H163992   4.536   1.516   1.206  1.3161 -0.0778  0.5847
14167TIP3    H263993   4.523   1.650   1.274  3.3437  1.2149 -1.4933
14168TIP3   OH263994   1.157   3.285   2.745 -0.0400 -0.1333 -0.4645
14168TIP3    H163995   1.171   3.319   2.657 -0.7859 -0.9394 -0.9008
14168TIP3    H263996   1.195   3.197   2.743  0.3198 -0.0038  0.1531
14169TIP3   OH263997   2.028   4.534   3.314  0.3814 -0.1559  0.1208
14169TIP3    H163998   1.988   4.540   3.401 -0.0644  2.2610 -0.2272
14169TIP3    H263999   2.089   4.608   3.311 -1.1423  1.0397 -2.3961
14170TIP3   OH264000   2.265   0.869   5.426  0.2585 -0.2605 -0.2197
14170TIP3    H164001   2.292   0.832   5.342  0.6367 -0.0128 -0.2086
14170TIP3    H264002   2.254   0.963   5.408  0.0939 -0.2473 -0.0518
14171TIP3   OH264003   3.609   2.826  13.008 -0.0868  0.2368  0.2845
14171TIP3    H164004   3.612   2.878  12.927  0.0166  0.8056  0.6496
14171TIP3    H264005   3.701   2.811  13.030 -0.1134  0.1537  0.3401
14172TIP3   OH264006   2.847   5.820   3.969 -0.2601  0.2617 -0.4027
14172TIP3    H164007   2.925   5.787   4.013 -0.6543  0.6678  0.6055
14172TIP3    H264008   2.794   5.742   3.951 -0.8705  0.2388  1.3605
14173TIP3   OH264009   5.042   1.079  16.656  0.3183 -0.3030  0.1876
14173TIP3    H164010   4.961   1.100  16.703  1.1330  0.2402  1.3973
14173TIP3    H264011   5.029   1.116  16.569 -1.1450 -1.1313  0.0366
14174TIP3   OH264012   5.470   0.852   1.694 -0.2901 -0.5412  0.2934
14174TIP3    H164013   5.529   0.782   1.722  1.4006  0.9437  0.5357
14174TIP3    H264014   5.492   0.866   1.601  1.0854  1.2645  0.8540
14175TIP3   OH264015   0.386   2.884  15.302 -0.2173  0.0273 -0.4025
14175TIP3    H164016   0.404   2.846  15.388  0.2694 -3.4043 -1.9570
14175TIP3    H264017   0.468   2.874  15.254 -0.4193  2.1032 -1.2416
14176TIP3   OH264018   2.237   2.082  15.141 -0.4901  0.2032 -0.2171
14176TIP3    H164019   2.184   2.006  15.163 -2.7798  2.0484  0.7947
14176TIP3    H264020   2.288   2.100  15.220 -0.5422  0.2189 -0.1870
14177TIP3   OH264021   4.436   2.289  13.773  0.0029  0.5995 -0.1627
14177TIP3    H164022   4.427   2.201  13.737 -0.2012 -0.3182  2.0526
14177TIP3    H264023   4.370   2.340  13.726 -1.3568 -0.9200  0.0281
14178TIP3   OH264024   4.622   4.554  10.320  0.7701 -0.9133  0.3633
14178TIP3    H164025   4.603   4.481  10.261 -0.9092 -1.3999  1.4712
14178TIP3    H264026   4.537   4.576  10.358  1.2911  1.4777  0.2288
14179TIP3   OH264027   4.640   3.454   5.464  0.3035 -0.0280  0.0902
14179TIP3    H164028   4.571   3.391   5.486  1.0091 -0.4854  1.0304
14179TIP3    H264029   4.648   3.508   5.543  2.8237 -1.6522  1.0017
14180TIP3   OH264030   3.112   1.639  10.660  0.0995  0.3035 -0.3507
14180TIP3    H164031   3.026   1.641  10.702  0.7818  2.3721  1.0225
14180TIP3    H264032   3.100   1.580  10.586 -2.1617 -0.4431  0.5305
14181TIP3   OH264033   5.413   3.001   1.950 -0.6139  0.2433 -0.1798
14181TIP3    H164034   5.383   2.946   1.877  0.5164 -1.4963  0.6124
14181TIP3    H264035   5.342   3.063   1.964 -2.5728 -1.8862 -0.2668
14182TIP3   OH264036   2.527   1.964  13.245 -0.1669  0.0801  0.3060
14182TIP3    H164037   2.544   2.016  13.323 -0.2866  1.9396 -0.8802
14182TIP3    H264038   2.539   1.873  13.273  1.0024  0.7919  2.1744
14183TIP3   OH264039   1.048   2.424  15.228 -0.0322  0.7773  0.2634
14183TIP3    H164040   1.104   2.496  15.257 -0.5677  1.0194  0.7057
14183TIP3    H264041   1.030   2.443  15.136  1.0945  0.3803 -0.0461
14184TIP3   OH264042   1.051   0.145   2.010  0.0654  0.1416  0.5592
14184TIP3    H164043   1.099   0.156   1.929  0.0182 -1.8400  0.2511
14184TIP3    H264044   1.054   0.231   2.052 -2.4460  2.0408 -2.9125
14185TIP3   OH264045   6.044   4.132  16.546 -0.8279 -0.4878 -0.1126
14185TIP3    H164046   6.112   4.131  16.613 -0.8321  3.3384  0.0623
14185TIP3    H264047   6.090   4.152  16.465 -1.4560  0.1259 -0.3243
14186TIP3   OH264048   6.575   0.180  16.921  0.2925  0.5907 -0.2467
14186TIP3    H164049   6.530   0.166  16.838  0.8130  3.2536 -1.0260
14186TIP3    H264050   6.668   0.174  16.899  0.4203 -0.8892  0.5963
14187TIP3   OH264051   3.562   0.629   3.080 -0.0991  0.1212 -0.2447
14187TIP3    H164052   3.653   0.647   3.059 -0.2706  0.4328 -0.7157
14187TIP3    H264053   3.565   0.589   3.167  0.5249 -0.3202 -0.4643
14188TIP3   OH264054   2.215   2.700  14.570 -1.3841 -0.5849  0.1576
14188TIP3    H164055   2.157   2.675  14.641 -1.8246 -2.0255 -0.6936
14188TIP3    H264056   2.173   2.775  14.529 -1.8238 -0.6111  0.5639
14189TIP3   OH264057   1.839   3.320   3.994  0.0942  0.0391 -0.5388
14189TIP3    H164058   1.817   3.368   4.074  1.3316  1.2231 -0.8857
14189TIP3    H264059   1.755   3.292   3.958 -0.6055  1.4309 -0.0123
14190TIP3   OH264060   6.388   4.548  14.033  0.1559  0.5500  0.0542
14190TIP3    H164061   6.457   4.541  13.966  0.2361  1.0772  0.0803
14190TIP3    H264062   6.307   4.531  13.984  0.3652 -0.9119  0.1861
14191TIP3   OH264063   4.282   3.039   2.963  0.0457  0.0048 -0.3898
14191TIP3    H164064   4.222   2.983   2.916 -0.8565  0.3865  0.2848
14191TIP3    H264065   4.336   2.979   3.015 -0.2982 -0.2937 -0.3764
14192TIP3   OH264066   6.398   0.270   5.961  0.1861  0.2915 -0.1064
14192TIP3    H164067   6.350   0.352   5.954  1.2044  0.9746  0.7402
14192TIP3    H264068   6.397   0.249   6.055  0.1691 -0.5095 -0.2806
14193TIP3   OH264069   2.475   3.014   1.762  0.4039 -0.0949  0.3490
14193TIP3    H164070   2.412   3.056   1.703  1.2843  0.4453 -0.2238
14193TIP3    H264071   2.543   3.081   1.775  1.2994 -0.9747  0.2548
14194TIP3   OH264072   4.008   0.223   4.455 -0.5065 -0.2124 -0.0700
14194TIP3    H164073   4.026   0.267   4.372 -0.5704  1.4876  0.7938
14194TIP3    H264074   3.945   0.154   4.432 -0.1308 -0.0978 -1.5065
14195TIP3   OH264075   0.519   3.116  16.119 -0.8647 -0.1037  0.2749
14195TIP3    H164076   0.548   3.027  16.142 -0.2589 -0.1732 -0.7381
14195TIP3    H264077   0.425   3.107  16.103 -1.2050 -0.1516  2.2042
14196TIP3   OH264078   6.803   1.214  14.127 -0.4676 -0.1998 -0.1704
14196TIP3    H164079   6.832   1.129  14.162  0.0574 -0.7186 -1.8172
14196TIP3    H264080   6.716   1.227  14.165  0.0242 -0.8122  1.2003
14197TIP3   OH264081   3.064   4.196   6.111 -0.3374  0.0735 -0.2207
14197TIP3    H164082   3.134   4.193   6.176 -0.4432 -0.5665 -0.1335
14197TIP3    H264083   3.061   4.107   6.076 -1.8016 -0.1635  0.5000
14198TIP3   OH264084   0.307   5.274  13.790  0.2588  0.0623 -0.4748
14198TIP3    H164085   0.238   5.340  13.778 -0.4049 -0.4897  0.2208
14198TIP3    H264086   0.340   5.290  13.878  2.1447  1.3418 -1.3647
14199TIP3   OH264087   5.055   1.440   3.683  0.4651 -0.8255  0.9060
14199TIP3    H164088   4.999   1.367   3.658  0.2248 -0.0560 -0.8527
14199TIP3    H264089   5.132   1.399   3.723  0.4223 -2.0541 -0.2461
14200TIP3   OH264090   5.936   6.649   3.937 -0.1040  0.3749 -0.5548
14200TIP3    H164091   5.952   6.596   3.859 -1.8538 -0.6610 -0.2408
14200TIP3    H264092   5.976   6.734   3.917 -0.8682  0.2508 -2.7596
14201TIP3   OH264093   0.518   2.334   0.687 -0.0239 -0.2162  0.1426
14201TIP3    H164094   0.551   2.418   0.656 -0.0186 -0.5806 -0.8787
14201TIP3    H264095   0.423   2.346   0.694 -0.3032 -0.7773 -2.1918
14202TIP3   OH264096   3.045   3.043   3.084  0.7772 -0.0109 -0.0640
14202TIP3    H164097   3.134   3.028   3.118  0.9713 -0.2790 -0.6943
14202TIP3    H264098   3.048   3.012   2.994 -0.3341 -1.2737  0.3161
14203TIP3   OH264099   2.888   4.470  11.242  0.3862  0.2620 -0.0474
14203TIP3    H164100   2.811   4.526  11.250 -1.4811 -1.6213 -3.3280
14203TIP3    H264101   2.959   4.530  11.220 -0.3902  1.8916  1.7763
14204TIP3   OH264102   6.520   5.698   4.755 -0.1320  1.0872  0.0226
14204TIP3    H164103   6.472   5.728   4.678  1.0748 -0.5903 -1.4538
14204TIP3    H264104   6.463   5.632   4.794  0.8426 -0.8201 -1.6602
14205TIP3   OH264105   1.488   3.024  12.703 -0.1369  0.3415  0.5597
14205TIP3    H164106   1.409   2.971  12.715 -0.0489 -0.0517 -0.5202
14205TIP3    H264107   1.473   3.102  12.757 -2.2247  1.2998 -1.3043
14206TIP3   OH264108   5.828   6.487   5.822 -0.1052 -0.7952  0.7374
14206TIP3    H164109   5.914   6.471   5.860  0.5251 -1.3664 -0.8848
14206TIP3    H264110   5.770   6.428   5.869  0.4438 -0.6513  1.6125
14207TIP3   OH264111   2.933   2.640   1.395 -0.3884 -0.3538  0.5996
14207TIP3    H164112   2.846   2.679   1.382 -0.9310 -1.3060  1.3418
14207TIP3    H264113   2.951   2.596   1.312 -1.5951 -2.0203  1.1825
14208TIP3   OH264114   1.538   6.657   2.961 -0.0827  0.4542  0.3154
14208TIP3    H164115   1.542   6.657   2.865  1.0548  0.3376  0.3500
14208TIP3    H264116   1.479   6.586   2.983 -1.4663  1.3914 -0.3394
14209TIP3   OH264117   3.861   2.872  17.185  0.2012 -0.6778  0.6224
14209TIP3    H164118   3.853   2.846  17.094  0.4969 -1.0398  0.6962
14209TIP3    H264119   3.789   2.826  17.230 -0.9995  0.8446  0.2977
14210TIP3   OH264120   2.697   0.242   5.828 -0.0009 -0.0253 -0.0840
14210TIP3    H164121   2.644   0.255   5.749 -0.9378 -1.7644  0.2399
14210TIP3    H264122   2.650   0.288   5.896 -0.1970 -0.1169 -0.1565
14211TIP3   OH264123   4.040   1.951   5.475  0.0409 -0.9302 -0.3548
14211TIP3    H164124   4.106   2.018   5.460  0.9047 -1.9571 -1.2159
14211TIP3    H264125   3.964   1.981   5.425 -1.1212  1.6052  2.7652
14212TIP3   OH264126   5.497   6.259   5.514  0.5394  0.8124 -0.5338
14212TIP3    H164127   5.581   6.217   5.497  0.8570  0.6868  1.2600
14212TIP3    H264128   5.514   6.353   5.504  1.3435  0.9133  1.5984
14213TIP3   OH264129   5.180   3.854  13.050  0.0153 -0.3732 -0.1228
14213TIP3    H164130   5.131   3.885  12.974  0.3021 -0.5149 -0.3637
14213TIP3    H264131   5.262   3.903  13.048 -0.5250  0.6046  0.8478
14214TIP3   OH264132   3.063   0.197   0.490  0.6024 -0.0140  0.0867
14214TIP3    H164133   3.038   0.153   0.408 -0.3308 -0.8068  0.7921
14214TIP3    H264134   3.060   0.128   0.556  0.8271  0.7427  0.8893
14215TIP3   OH264135   6.006   0.042   4.794  0.5982  0.9576  0.0625
14215TIP3    H164136   6.055   0.039   4.711  0.3883  3.4440 -0.1941
14215TIP3    H264137   5.962   0.126   4.792 -0.5743  0.4098  2.0810
14216TIP3   OH264138   2.940   5.135  10.941 -0.0770  0.6236 -0.6644
14216TIP3    H164139   2.864   5.136  10.883  0.1883 -2.0972 -1.1088
14216TIP3    H264140   2.958   5.042  10.956  1.6365  1.2511  1.4504
14217TIP3   OH264141   2.183   5.957   2.165  0.1687 -0.1591  0.4141
14217TIP3    H164142   2.120   6.011   2.117 -1.2452 -1.3116  0.8976
14217TIP3    H264143   2.150   5.867   2.153  0.6787 -0.6070  2.2080
14218TIP3   OH264144   2.064   0.571  16.580  0.5200  0.1601 -0.8132
14218TIP3    H164145   1.971   0.591  16.593  1.1768  2.0884  1.3427
14218TIP3    H264146   2.072   0.480  16.607 -0.4305  0.5335  0.8319
14219TIP3   OH264147   5.177   5.335  13.552  0.3336  0.0243 -0.5467
14219TIP3    H164148   5.160   5.247  13.518  0.0525 -0.3833  0.6311
14219TIP3    H264149   5.193   5.322  13.645  0.0705  1.2551 -0.3203
14220TIP3   OH264150   3.098   3.215  12.407 -0.3312 -0.0068 -0.3885
14220TIP3    H164151   3.049   3.191  12.485  0.3994  2.2653  0.7991
14220TIP3    H264152   3.063   3.300  12.381  0.6504  0.0686 -1.5219
14221TIP3   OH264153   0.278   5.920  10.731 -0.1593  0.2540 -0.2640
14221TIP3    H164154   0.286   5.832  10.768  0.0607  0.7541  0.8776
14221TIP3    H264155   0.199   5.956  10.772 -1.0360  0.0962 -1.7613
14222TIP3   OH264156   5.626   0.670   1.224 -0.4762 -0.3645 -0.6203
14222TIP3    H164157   5.631   0.619   1.143 -0.1625  1.0477 -1.5138
14222TIP3    H264158   5.697   0.734   1.216 -1.2625  0.6185  0.1892
14223TIP3   OH264159   6.107   3.753   1.388 -0.0482  0.5242 -0.4153
14223TIP3    H164160   6.054   3.821   1.345 -0.7841 -0.6122 -1.3179
14223TIP3    H264161   6.067   3.671   1.361  3.1051 -0.4454 -2.3408
14224TIP3   OH264162   4.786   0.226  17.073 -0.3230  0.9446 -0.1003
14224TIP3    H164163   4.721   0.156  17.070  0.6811  0.0284 -0.9131
14224TIP3    H264164   4.852   0.200  17.009  1.4828  1.2311  1.6094
14225TIP3   OH264165   6.244   0.486  14.526 -0.1367  0.2231 -0.2558
14225TIP3    H164166   6.304   0.559  14.541 -0.5442 -0.0904  3.2928
14225TIP3    H264167   6.198   0.475  14.609 -1.8862 -2.4738 -1.4971
14226TIP3   OH264168   0.304   4.231   2.111  0.5013  0.5082 -0.1576
14226TIP3    H164169   0.247   4.251   2.037  1.0863  0.1830 -0.7039
14226TIP3    H264170   0.384   4.280   2.093  0.4958  0.7507  0.4698
14227TIP3   OH264171   2.382   1.706  12.975 -0.5085  0.0124 -0.0947
14227TIP3    H164172   2.467   1.732  12.941  0.3116 -4.3536 -1.6134
14227TIP3    H264173   2.401   1.647  13.047 -2.2092 -1.0504 -0.4759
14228TIP3   OH264174   3.294   5.181  14.884 -0.2412 -0.0508  0.1492
14228TIP3    H164175   3.289   5.121  14.810  0.4268  0.3268 -0.2015
14228TIP3    H264176   3.369   5.237  14.865 -2.6213  2.9049 -1.0298
14229TIP3   OH264177   3.712   3.965   2.323  0.3709 -0.6042 -0.3820
14229TIP3    H164178   3.662   3.990   2.401 -2.4446 -1.8589 -1.7234
14229TIP3    H264179   3.702   3.870   2.318  1.5817 -0.6792 -1.6140
14230TIP3   OH264180   1.247   1.901  15.781 -0.6250 -0.2441  0.5650
14230TIP3    H164181   1.176   1.949  15.738  0.9822  1.8167  0.1423
14230TIP3    H264182   1.236   1.811  15.750 -1.1763  0.6543 -1.9918
14231TIP3   OH264183   2.744   1.460  12.701  0.1790  0.1369 -0.8273
14231TIP3    H164184   2.773   1.550  12.712  1.7549 -0.6387  1.7423
14231TIP3    H264185   2.707   1.436  12.786 -0.0701 -1.7048 -1.4338
14232TIP3   OH264186   2.305   1.872  16.306  0.0085 -0.2431 -0.3198
14232TIP3    H164187   2.300   1.777  16.315 -0.7171 -0.4051 -2.1276
14232TIP3    H264188   2.259   1.891  16.224 -2.1767  1.9309  1.3234
14233TIP3   OH264189   5.164   0.197   1.459  0.2094  0.2863  0.0260
14233TIP3    H164190   5.137   0.249   1.383  0.1001 -0.4060 -0.4145
14233TIP3    H264191   5.130   0.245   1.534 -0.1884  0.6747 -0.3991
14234TIP3   OH264192   0.829   1.588   1.120  0.8626  0.2529  0.4514
14234TIP3    H164193   0.766   1.647   1.163 -1.9677 -2.4696  0.1973
14234TIP3    H264194   0.815   1.602   1.027  2.9782  1.9522  0.3318
14235TIP3   OH264195   4.075   5.091  15.715 -0.3034 -0.0834 -0.4080
14235TIP3    H164196   4.026   5.018  15.677 -0.7461  0.0246 -0.0372
14235TIP3    H264197   4.109   5.057  15.798  0.7163 -0.3384 -0.9120
14236TIP3   OH264198   3.603   3.989  13.465 -0.6406  0.0556 -0.2663
14236TIP3    H164199   3.560   3.907  13.441  0.5321 -0.8079  0.5092
14236TIP3    H264200   3.547   4.058  13.428 -1.0837 -1.1116 -1.8082
14237TIP3   OH264201   2.265   6.184  14.590 -0.3476  0.1855  0.7045
14237TIP3    H164202   2.271   6.279  14.599 -3.6924  0.6565 -1.0479
14237TIP3    H264203   2.187   6.160  14.642 -1.1250 -1.1984 -1.0500
14238TIP3   OH264204   0.418   0.023  15.538 -0.2601  0.2003 -0.6574
14238TIP3    H164205   0.361  -0.031  15.483  0.9008 -0.4115 -1.2801
14238TIP3    H264206   0.409   0.111  15.503 -2.0446  0.4164  0.2624
14239TIP3   OH264207   5.416   1.538  14.262 -0.0774  0.3210  0.2959
14239TIP3    H164208   5.435   1.452  14.226 -0.4705  0.1979  0.3813
14239TIP3    H264209   5.438   1.599  14.192  0.0702  0.1437  0.1884
14240TIP3   OH264210   3.000   4.464   3.083 -0.5158  0.4791  0.0247
14240TIP3    H164211   3.095   4.458   3.089 -0.5420 -0.0984 -0.0915
14240TIP3    H264212   2.969   4.374   3.099 -1.0323  0.6476 -0.0175
14241TIP3   OH264213   1.899   3.237  11.622  0.4056  0.2952  0.3894
14241TIP3    H164214   1.839   3.209  11.554  1.6661 -1.6821  0.0424
14241TIP3    H264215   1.907   3.332  11.610  0.8816 -0.0571 -2.4479
14242TIP3   OH264216   2.782   2.032  12.191  0.0282 -0.5262  0.3983
14242TIP3    H164217   2.819   2.094  12.128 -1.2944  1.5118  1.5789
14242TIP3    H264218   2.738   1.967  12.137 -0.0954  0.5555 -0.8393
14243TIP3   OH264219   3.567   0.739  13.662 -0.6874  0.0163  0.2665
14243TIP3    H164220   3.521   0.820  13.638 -1.5027 -0.6725 -0.5211
14243TIP3    H264221   3.610   0.760  13.745 -0.8231  1.2848  0.0299
14244TIP3   OH264222   0.141   2.469  16.963 -0.0719 -0.8989  0.2028
14244TIP3    H164223   0.176   2.382  16.979  0.0338 -1.0907 -0.9786
14244TIP3    H264224   0.217   2.527  16.969 -0.3587 -0.7012  2.2990
14245TIP3   OH264225   2.525   3.764  13.106  0.2694 -0.1459 -0.1147
14245TIP3    H164226   2.575   3.687  13.134 -0.8377 -0.8298  0.0111
14245TIP3    H264227   2.541   3.829  13.175  0.4374 -0.5936  0.2729
14246TIP3   OH264228   6.702   3.107   4.245 -0.1100  0.6914  0.6296
14246TIP3    H164229   6.624   3.150   4.209 -0.0810 -0.5183 -0.9470
14246TIP3    H264230   6.773   3.130   4.185  0.8348  2.0019  2.2086
14247TIP3   OH264231   5.321   0.839  14.848 -0.0447 -0.4165  0.0495
14247TIP3    H164232   5.271   0.895  14.908  0.3526  0.2261 -0.2130
14247TIP3    H264233   5.346   0.764  14.901 -0.7129 -0.4250  0.3672
14248TIP3   OH264234   5.850   3.098  15.170  0.2613  0.4511 -0.4167
14248TIP3    H164235   5.917   3.132  15.229  1.5108 -0.2148 -1.4425
14248TIP3    H264236   5.836   3.008  15.198 -0.3757  0.6544 -0.0663
14249TIP3   OH264237   1.875   3.973  15.122 -0.0118 -0.0290 -0.4265
14249TIP3    H164238   1.901   4.065  15.117 -1.7047  0.5073  0.1342
14249TIP3    H264239   1.956   3.924  15.109  1.0790  1.5494  0.2916
14250TIP3   OH264240   5.543   5.075  12.100 -0.7400 -0.1133  0.0716
14250TIP3    H164241   5.530   5.163  12.135 -1.2621  1.0695 -2.8622
14250TIP3    H264242   5.455   5.046  12.076 -0.7369 -2.0041  2.2135
14251TIP3   OH264243   6.508   2.354   2.215  0.2222  0.6086 -0.4650
14251TIP3    H164244   6.566   2.282   2.237  0.7902  0.7530 -1.4493
14251TIP3    H264245   6.508   2.410   2.293  1.6622  0.7778 -0.5737
14252TIP3   OH264246   4.799   2.530   2.463 -0.2817  0.4262  0.1650
14252TIP3    H164247   4.807   2.453   2.520 -1.8822  0.9938  1.1739
14252TIP3    H264248   4.854   2.596   2.506 -0.0628  0.2921  0.0902
14253TIP3   OH264249   0.134   0.421   4.262 -0.8000  0.6060 -0.5149
14253TIP3    H164250   0.142   0.512   4.235  0.2955  0.8027  0.4228
14253TIP3    H264251   0.209   0.377   4.224 -1.6576 -0.0427 -1.4738
14254TIP3   OH264252   4.106   5.978  12.560 -0.0568 -0.0608 -0.2684
14254TIP3    H164253   4.022   5.961  12.516 -0.7869  0.5971  0.8657
14254TIP3    H264254   4.164   6.005  12.489 -0.8039 -0.4818 -1.0583
14255TIP3   OH264255   0.405   4.592   6.353 -0.4053 -0.0738 -0.4118
14255TIP3    H164256   0.309   4.593   6.354 -0.4124  1.1495 -1.0889
14255TIP3    H264257   0.429   4.510   6.396 -1.7672 -0.6603 -0.7450
14256TIP3   OH264258   3.197   1.544   5.936 -0.6203  0.0632  0.3292
14256TIP3    H164259   3.236   1.488   5.869  1.2304  1.1991  0.4300
14256TIP3    H264260   3.124   1.587   5.890  1.2184  1.5658 -1.2802
14257TIP3   OH264261   0.253   6.606  16.599  0.6892  0.2189  0.4395
14257TIP3    H164262   0.294   6.690  16.579 -0.0008  0.7151  1.0878
14257TIP3    H264263   0.159   6.624  16.599  0.5830 -0.2697  1.8268
14258TIP3   OH264264   1.041   4.592  11.310 -0.1273  0.2549  0.0938
14258TIP3    H164265   1.127   4.594  11.351 -0.8820  1.2878  1.6609
14258TIP3    H264266   0.991   4.661  11.354 -1.0925  1.1341 -2.2911
14259TIP3   OH264267   2.009   1.167   0.961  0.4224  0.4940  0.0270
14259TIP3    H164268   1.926   1.167   0.914  0.3291  1.2240  0.1826
14259TIP3    H264269   2.056   1.243   0.926  0.4690  0.8802  0.9186
14260TIP3   OH264270   6.628   3.720   1.900 -0.0875  0.2238  0.4555
14260TIP3    H164271   6.585   3.778   1.962 -2.1704 -0.3121 -0.4622
14260TIP3    H264272   6.586   3.738   1.816  1.0839 -0.7200 -0.3641
14261TIP3   OH264273   2.787   1.372  13.397 -0.0057  0.0044  0.1221
14261TIP3    H164274   2.797   1.292  13.345 -0.8392  0.7069 -1.1417
14261TIP3    H264275   2.698   1.366  13.433 -0.0692  0.3711  0.0235
14262TIP3   OH264276   2.492   2.586  17.156 -0.6430 -0.0224 -0.1477
14262TIP3    H164277   2.524   2.602  17.068  0.0119 -0.8719 -0.0733
14262TIP3    H264278   2.570   2.582  17.210 -0.9426 -0.9099  0.2339
14263TIP3   OH264279   5.963   6.276   3.347  0.5446  0.4182 -0.1478
14263TIP3    H164280   6.051   6.301   3.316  1.2069  2.0035  2.8233
14263TIP3    H264281   5.907   6.350   3.323  0.2559 -0.0559 -0.9524
14264TIP3   OH264282   1.261   0.167   6.059  0.1620 -0.2918 -0.4195
14264TIP3    H164283   1.171   0.199   6.061 -0.0707 -0.9724  1.5045
14264TIP3    H264284   1.283   0.152   6.151  1.4522 -2.2905 -1.0183
14265TIP3   OH264285   4.491   6.470   3.914 -0.2111  0.0678 -0.1535
14265TIP3    H164286   4.404   6.453   3.951 -0.0983  0.3860  0.2591
14265TIP3    H264287   4.551   6.420   3.970 -0.1171 -0.0704 -0.3759
14266TIP3   OH264288   0.579   0.868  15.740  0.2704  0.1760  0.0346
14266TIP3    H164289   0.490   0.873  15.704 -0.1257 -1.4786  0.7558
14266TIP3    H264290   0.578   0.790  15.795  2.5227 -0.5423 -0.8990
14267TIP3   OH264291   1.306   2.127   1.354 -0.2229 -0.3812 -0.3360
14267TIP3    H164292   1.344   2.080   1.428 -0.5945  2.7809  1.9561
14267TIP3    H264293   1.378   2.181   1.320 -1.2678  1.8388  0.8507
14268TIP3   OH264294   4.860   0.690  13.575  0.5761  0.1664 -0.2807
14268TIP3    H164295   4.865   0.746  13.652  2.1501 -0.0223 -0.2256
14268TIP3    H264296   4.892   0.745  13.503 -0.2831  0.1380 -0.6912
14269TIP3   OH264297   2.641   5.065  17.172 -0.2875 -0.0448 -0.3114
14269TIP3    H164298   2.641   5.029  17.083  0.0155 -0.5430 -0.1101
14269TIP3    H264299   2.727   5.042  17.207 -1.4441 -2.3170  1.1080
14270TIP3   OH264300   5.298   2.668  11.822 -0.0700  0.2976 -0.4760
14270TIP3    H164301   5.257   2.648  11.905  1.8589  1.1653  0.7309
14270TIP3    H264302   5.272   2.758  11.803  1.7535  1.0745  0.6158
14271TIP3   OH264303   0.030   1.298  15.491 -0.4831 -0.2003  0.0580
14271TIP3    H164304  -0.024   1.364  15.449  2.4126  2.4301  0.2937
14271TIP3    H264305  -0.029   1.224  15.505 -3.2740  1.5216 -2.1226
14272TIP3   OH264306   5.186   4.999   3.916 -0.0046 -0.2979 -0.0481
14272TIP3    H164307   5.097   5.009   3.881 -0.0256 -0.5342 -0.0642
14272TIP3    H264308   5.236   4.965   3.843 -0.4762 -2.6470  0.6804
14273TIP3   OH264309   2.553   0.728  17.255 -0.4976 -0.8960  0.2175
14273TIP3    H164310   2.458   0.719  17.248 -0.6293 -0.2536  1.0687
14273TIP3    H264311   2.584   0.640  17.276 -0.5363 -1.8709 -3.4941
14274TIP3   OH264312   5.826   5.334  13.721  0.3664 -0.5429 -0.2722
14274TIP3    H164313   5.829   5.316  13.815  1.8766 -1.9494 -0.5688
14274TIP3    H264314   5.911   5.304  13.689 -0.7723 -1.5610 -2.3701
14275TIP3   OH264315   1.257   2.214   4.362  0.2653  0.0699  0.2499
14275TIP3    H164316   1.187   2.155   4.392  1.1115 -0.8874  0.3699
14275TIP3    H264317   1.316   2.157   4.313 -0.3798  1.3687 -2.0738
14276TIP3   OH264318   5.939   4.915  15.342  0.0421 -0.4054 -0.1559
14276TIP3    H164319   6.017   4.926  15.396 -0.2220  0.4173  0.0729
14276TIP3    H264320   5.902   5.004  15.335 -2.4870 -1.1929  2.2131
14277TIP3   OH264321   0.053   6.255   5.096 -0.1057 -0.2839 -0.2171
14277TIP3    H164322   0.084   6.345   5.089  1.7408 -0.8736  0.0097
14277TIP3    H264323   0.055   6.236   5.190 -0.0790 -0.6836 -0.2971
14278TIP3   OH264324   2.137   4.056  16.184 -0.5298  0.2170  0.0742
14278TIP3    H164325   2.153   4.144  16.150  3.0324 -0.3760 -0.0007
14278TIP3    H264326   2.116   4.003  16.106  1.0395  0.2652 -0.4126
14279TIP3   OH264327   4.512   3.662  16.415 -0.0893 -0.2415  0.0668
14279TIP3    H164328   4.490   3.725  16.347 -0.6286 -1.0995 -0.5630
14279TIP3    H264329   4.595   3.693  16.451  0.5554 -0.1639 -1.4579
14280TIP3   OH264330   1.046   1.998   1.601 -0.7695  0.9031  0.1603
14280TIP3    H164331   1.056   1.994   1.506  0.5415  0.0684  0.3240
14280TIP3    H264332   1.106   2.068   1.629  1.3625 -1.0986  0.6980
14281TIP3   OH264333   4.032   0.200   3.395 -0.2671 -0.1088 -0.3718
14281TIP3    H164334   4.073   0.176   3.312  0.4622 -0.0283 -0.0407
14281TIP3    H264335   4.056   0.292   3.408 -0.0445 -0.2397  0.1287
14282TIP3   OH264336   2.323   2.078   6.106 -0.1635  0.6109 -0.3311
14282TIP3    H164337   2.326   1.994   6.062  1.9651  0.3860  0.1773
14282TIP3    H264338   2.260   2.066   6.178  0.4923 -0.6895  0.0321
14283TIP3   OH264339   1.448   3.311   5.492 -0.3292 -0.4041  0.6303
14283TIP3    H164340   1.369   3.284   5.538  0.3550  1.1556  2.8003
14283TIP3    H264341   1.446   3.407   5.496  1.4158 -0.3372  0.3028
14284TIP3   OH264342   6.052   5.384   1.068 -0.5737  0.1256 -0.4482
14284TIP3    H164343   6.037   5.478   1.060  1.8334  0.6141  0.3562
14284TIP3    H264344   6.125   5.366   1.008 -0.8968 -1.2031 -0.4594
14285TIP3   OH264345   5.072   0.458   3.604 -0.2280  0.1116 -0.4391
14285TIP3    H164346   5.047   0.389   3.543  2.3813 -2.2063  1.0053
14285TIP3    H264347   4.996   0.465   3.663 -1.0491 -0.5667 -1.3886
14286TIP3   OH264348   6.348   2.114   6.881 -0.3909  1.0208  0.6671
14286TIP3    H164349   6.422   2.167   6.853  1.3150 -1.6041  0.0481
14286TIP3    H264350   6.381   2.066   6.958 -1.0534 -1.0029 -0.2816
14287TIP3   OH264351   0.975   5.465   4.941 -0.0137 -0.2343 -0.1812
14287TIP3    H164352   0.992   5.384   4.893 -0.5827  1.3387 -3.1863
14287TIP3    H264353   0.921   5.517   4.882 -0.8236  1.7989  2.2376
14288TIP3   OH264354   5.127   4.456  15.151  0.4685 -0.1299 -0.1705
14288TIP3    H164355   5.154   4.384  15.208 -0.6488 -0.0429  0.4830
14288TIP3    H264356   5.033   4.445  15.141  0.1913  1.5659  0.4194
14289TIP3   OH264357   4.354   4.219  13.235  0.3273 -0.4289 -0.8120
14289TIP3    H164358   4.392   4.285  13.177 -0.3700 -0.9039 -1.8245
14289TIP3    H264359   4.366   4.254  13.323 -1.9633  2.0578 -1.4573
14290TIP3   OH264360   0.146   4.906   1.004 -0.5411 -0.0928 -0.3325
14290TIP3    H164361   0.081   4.839   0.984  1.1861 -1.9954  0.2610
14290TIP3    H264362   0.222   4.882   0.951 -0.0039  1.6183 -0.3740
14291TIP3   OH264363   1.183   5.198  15.273 -0.2014 -0.3577 -0.3165
14291TIP3    H164364   1.277   5.211  15.263 -0.3104  0.7501 -0.0051
14291TIP3    H264365   1.173   5.154  15.358 -0.0043  0.1492 -0.0276
14292TIP3   OH264366   6.574   3.853   3.708  0.4497  0.3654 -0.2543
14292TIP3    H164367   6.595   3.828   3.618  0.1527  0.6370 -0.3966
14292TIP3    H264368   6.524   3.934   3.700  0.0758  0.1737  0.1375
14293TIP3   OH264369   6.075   5.151   6.183 -0.0030  0.4983  0.3811
14293TIP3    H164370   6.032   5.154   6.098  1.3906 -1.8873 -0.4578
14293TIP3    H264371   6.142   5.084   6.174  0.3967  0.4277  3.2697
14294TIP3   OH264372   5.793   0.929   5.977  0.4411  0.5236 -0.0182
14294TIP3    H164373   5.883   0.930   5.945 -0.5168 -2.1037 -2.9864
14294TIP3    H264374   5.790   0.854   6.037  0.5778  1.5213  1.2595
14295TIP3   OH264375   5.787   4.193   3.018  0.1376  0.0276  0.0371
14295TIP3    H164376   5.797   4.105   2.982 -0.3025 -0.6246  1.5012
14295TIP3    H264377   5.871   4.212   3.059  0.5662  0.6892 -1.1214
14296TIP3   OH264378   3.674   3.025  12.468 -0.2813  0.3002  0.4612
14296TIP3    H164379   3.699   2.993  12.555 -3.0128  0.4096  1.3225
14296TIP3    H264380   3.589   3.067  12.481 -0.7133  0.3601 -2.2545
14297TIP3   OH264381   0.055   1.547  16.935  0.0220 -0.5750 -0.4095
14297TIP3    H164382  -0.018   1.608  16.950  1.2581  0.6707  0.6413
14297TIP3    H264383   0.124   1.602  16.898  0.9382 -1.4690 -0.0364
14298TIP3   OH264384   5.373   5.445   1.689 -0.0045  0.2496  0.0507
14298TIP3    H164385   5.368   5.493   1.771 -1.7265  0.3593 -0.1007
14298TIP3    H264386   5.366   5.513   1.621  1.7784  0.2016 -0.2157
14299TIP3   OH264387   2.203   4.776  11.190 -0.1350 -0.0696 -0.2361
14299TIP3    H164388   2.175   4.774  11.099 -2.1041  0.4006  0.3274
14299TIP3    H264389   2.219   4.685  11.213  3.5339  0.0735 -1.9441
14300TIP3   OH264390   3.173   0.934   5.515  0.0917 -0.5045 -0.5237
14300TIP3    H164391   3.236   0.915   5.585 -1.0782 -0.6071  0.5167
14300TIP3    H264392   3.120   0.855   5.509  0.1149 -0.4499 -1.4663
14301TIP3   OH264393   2.233   0.868  12.110 -0.2742  0.1380 -0.2282
14301TIP3    H164394   2.293   0.800  12.140 -1.3926 -0.9974 -0.5357
14301TIP3    H264395   2.147   0.837  12.136 -0.6713  2.0931  0.8155
14302TIP3   OH264396   1.278   6.281  14.541 -0.4059 -0.1986  0.0640
14302TIP3    H164397   1.276   6.200  14.489 -2.7354  0.3242 -0.7332
14302TIP3    H264398   1.218   6.340  14.495  0.5538  1.6729  1.1619
14303TIP3   OH264399   0.191   6.637   0.154 -0.0579  0.0567  0.4303
14303TIP3    H164400   0.245   6.653   0.077  0.0048 -1.1170  0.2308
14303TIP3    H264401   0.157   6.548   0.142 -0.8042  0.2183  1.2940
14304TIP3   OH264402   4.704   6.211   2.554 -0.0908 -0.0381  0.0918
14304TIP3    H164403   4.793   6.199   2.520 -0.0145 -1.6987  0.8324
14304TIP3    H264404   4.665   6.276   2.495  1.6970  0.9440 -0.0688
14305TIP3   OH264405   3.850   4.022   4.596 -0.0866 -0.2836 -0.2962
14305TIP3    H164406   3.853   3.997   4.689 -0.8275 -0.5171 -0.3261
14305TIP3    H264407   3.940   4.015   4.566 -0.0325 -1.4723  0.0857
14306TIP3   OH264408   2.289   5.844   2.388 -0.0686 -0.2299  0.6198
14306TIP3    H164409   2.262   5.887   2.469 -0.3823 -1.5708  1.2485
14306TIP3    H264410   2.230   5.879   2.321  0.4663  1.2004  0.8855
14307TIP3   OH264411   2.930   0.990   5.979  0.6609 -0.1269 -0.1708
14307TIP3    H164412   2.849   0.943   5.958  0.3431  0.1213  0.4837
14307TIP3    H264413   2.955   1.032   5.896  0.6175 -0.9391 -0.6006
14308TIP3   OH264414   6.665   1.729  16.969  0.1594 -0.0002  0.1907
14308TIP3    H164415   6.603   1.664  17.001 -1.1502  0.3147 -1.5612
14308TIP3    H264416   6.642   1.809  17.016 -1.3756  0.3231 -1.0405
14309TIP3   OH264417   2.532   2.551  14.970  0.2885  0.1310  0.2133
14309TIP3    H164418   2.499   2.547  14.880  1.0273  0.8821 -0.0974
14309TIP3    H264419   2.596   2.621  14.969  1.6853 -1.1112  0.8818
14310TIP3   OH264420   4.110   3.532   0.279  0.2317 -0.1403 -0.2685
14310TIP3    H164421   4.162   3.609   0.255  0.4153 -0.1893 -0.0238
14310TIP3    H264422   4.108   3.479   0.199  1.1799 -0.4983 -0.0639
14311TIP3   OH264423   6.227   3.393  11.983 -0.0895 -0.4440 -0.4308
14311TIP3    H164424   6.268   3.374  12.067  1.8873  0.2263 -1.2093
14311TIP3    H264425   6.276   3.340  11.920  0.6073  1.5228 -1.5909
14312TIP3   OH264426   0.116   1.507  15.062  0.5328  0.4673  0.1106
14312TIP3    H164427   0.181   1.447  15.025  0.8886  1.6444 -1.1900
14312TIP3    H264428   0.124   1.587  15.010 -0.5137  1.3611  1.2954
14313TIP3   OH264429   1.373   6.714   3.414  0.2147 -0.0274  1.2285
14313TIP3    H164430   1.392   6.777   3.483  1.4823 -0.4750  1.3080
14313TIP3    H264431   1.363   6.767   3.335  0.7881  0.3111  1.3840
14314TIP3   OH264432   4.224   6.167  11.646 -0.3293 -0.4527 -0.0930
14314TIP3    H164433   4.250   6.214  11.725  1.0704 -0.7962 -0.3379
14314TIP3    H264434   4.191   6.235  11.587  0.8519  0.1206 -0.1025
14315TIP3   OH264435   3.877   0.736  16.576 -0.4467  0.1200  0.1890
14315TIP3    H164436   3.837   0.666  16.627 -0.8370  0.3309  0.1789
14315TIP3    H264437   3.966   0.744  16.610  0.2805 -1.7788 -1.2210
14316TIP3   OH264438   2.352   1.803  13.628  0.4751 -0.1760 -0.4081
14316TIP3    H164439   2.435   1.763  13.603  1.4512  0.6799  1.4344
14316TIP3    H264440   2.374   1.864  13.698 -1.6190  0.5020 -0.3100
14317TIP3   OH264441   2.048   6.318   3.462 -0.2511  0.4402 -0.1441
14317TIP3    H164442   2.081   6.241   3.415  1.3667  1.5363 -0.8265
14317TIP3    H264443   2.034   6.384   3.395 -2.0447  0.6346  0.3890
14318TIP3   OH264444   0.270   0.295   4.908 -0.0703 -0.1798  0.2776
14318TIP3    H164445   0.196   0.241   4.937 -0.4338  0.7160  1.0411
14318TIP3    H264446   0.231   0.381   4.892  0.6888  0.1154  0.0396
14319TIP3   OH264447   5.123   5.061   3.011  0.3892  0.3128  0.9381
14319TIP3    H164448   5.139   5.153   2.987  1.1494  0.5932  2.5030
14319TIP3    H264449   5.051   5.034   2.953  1.4668  1.2944 -0.8962
14320TIP3   OH264450   5.051   3.143  14.200 -0.3159  0.0433 -0.7059
14320TIP3    H164451   5.146   3.136  14.211 -0.5235  0.6043  1.8514
14320TIP3    H264452   5.036   3.231  14.168 -0.1667  1.2488  2.3589
14321TIP3   OH264453   3.897   3.052  16.489  0.0574  0.1467 -0.2279
14321TIP3    H164454   3.808   3.076  16.465  0.2016 -0.7337 -1.7454
14321TIP3    H264455   3.911   3.092  16.575 -1.6116  0.7147 -0.2048
14322TIP3   OH264456   6.016   3.085  13.360  0.0434 -0.2140 -0.5370
14322TIP3    H164457   6.051   3.050  13.278  0.0871 -0.7543 -0.2863
14322TIP3    H264458   6.022   3.012  13.422 -3.1591 -0.8979 -0.9275
14323TIP3   OH264459   0.238   4.261  13.044 -0.5495 -0.1829  0.0514
14323TIP3    H164460   0.205   4.315  13.115  1.1059 -1.5610  1.9117
14323TIP3    H264461   0.207   4.172  13.064 -2.0891 -0.2260 -2.2387
14324TIP3   OH264462   3.257   2.328   3.859  0.1126  0.6355  0.2764
14324TIP3    H164463   3.307   2.285   3.928  2.3008  0.8620 -1.1132
14324TIP3    H264464   3.289   2.419   3.860 -0.2203  0.7701 -0.6801
14325TIP3   OH264465   6.737   6.277  13.237  0.2635  0.4011 -0.1677
14325TIP3    H164466   6.793   6.319  13.172 -0.3236  1.3002 -0.0896
14325TIP3    H264467   6.770   6.310  13.321 -0.3398  0.8737 -0.1173
14326TIP3   OH264468   5.008   6.652   3.722  0.0938  0.0517 -0.0520
14326TIP3    H164469   4.921   6.647   3.682 -0.1221 -1.5714  0.5838
14326TIP3    H264470   5.058   6.583   3.678  0.5023 -0.2605  0.8994
14327TIP3   OH264471   2.785   0.111   5.074  0.3835 -0.2104  0.3590
14327TIP3    H164472   2.858   0.171   5.090  0.8954 -1.1240  1.5501
14327TIP3    H264473   2.823   0.044   5.016 -0.2978  0.8233 -1.2989
14328TIP3   OH264474   5.554   6.160   2.151 -0.1373 -0.5857  0.0002
14328TIP3    H164475   5.558   6.096   2.080 -0.8397  0.6156 -1.1497
14328TIP3    H264476   5.490   6.225   2.122 -1.6278 -0.8861  2.4484
14329TIP3   OH264477   5.120   6.018  16.699  0.2630  0.0934 -0.2751
14329TIP3    H164478   5.042   6.060  16.662 -0.3630 -1.1531 -0.3714
14329TIP3    H264479   5.147   5.955  16.633 -0.1171 -1.2520  0.8396
14330TIP3   OH264480   1.611   1.236   3.071 -0.1256 -0.4846 -0.1240
14330TIP3    H164481   1.628   1.157   3.123 -1.2686 -0.5646  0.1518
14330TIP3    H264482   1.597   1.203   2.982 -1.0131 -0.6417  0.0695
14331TIP3   OH264483   1.452   5.058  13.035 -0.3677 -0.0077  0.2394
14331TIP3    H164484   1.419   4.984  13.086  0.6883 -1.1597 -0.7009
14331TIP3    H264485   1.393   5.062  12.959 -1.1268  0.8549  0.8712
14332TIP3   OH264486   5.850   4.376  14.300  0.2250 -0.3802 -0.3909
14332TIP3    H164487   5.774   4.318  14.311 -0.3053  0.4965  0.6546
14332TIP3    H264488   5.853   4.427  14.381  2.0117 -0.4796 -0.3718
14333TIP3   OH264489   2.094   0.401  16.037 -0.0799  0.4984  0.0468
14333TIP3    H164490   2.110   0.382  15.945 -0.5875 -2.7256  0.5440
14333TIP3    H264491   2.106   0.495  16.045 -0.5980  0.9252 -3.4287
14334TIP3   OH264492   0.671   4.232  14.783 -0.1649  0.0186 -0.3533
14334TIP3    H164493   0.751   4.257  14.736  0.2246 -1.2680 -0.3759
14334TIP3    H264494   0.696   4.232  14.875 -0.4510  0.7518 -0.2732
14335TIP3   OH264495   6.414   5.345   2.123  0.0131 -0.2046 -0.5807
14335TIP3    H164496   6.455   5.261   2.101  0.4442 -0.9137  2.7383
14335TIP3    H264497   6.341   5.322   2.180 -0.7046  1.6133 -0.7280
14336TIP3   OH264498   6.754   2.642   3.035  0.1448  0.1753  0.2185
14336TIP3    H164499   6.759   2.557   3.079 -1.3193  0.4994  1.0339
14336TIP3    H264500   6.752   2.706   3.106 -1.4687  0.7443 -0.3335
14337TIP3   OH264501   2.932   0.687  12.881 -0.2014  0.4909  0.0761
14337TIP3    H164502   2.904   0.776  12.899  1.9662  1.5600 -1.5875
14337TIP3    H264503   2.856   0.645  12.840 -1.3749  1.4158  1.3004
14338TIP3   OH264504   0.842   0.468  12.949 -0.3191  0.5040  0.0439
14338TIP3    H164505   0.924   0.442  12.907  0.3849 -2.8009  3.2579
14338TIP3    H264506   0.868   0.532  13.015 -0.5251  0.6413 -0.0102
14339TIP3   OH264507   3.251   6.386  12.192  0.6080 -0.5519 -0.1277
14339TIP3    H164508   3.285   6.428  12.113  1.5612  0.2472  0.6917
14339TIP3    H264509   3.160   6.415  12.197  0.1277 -1.7396 -1.6831
14340TIP3   OH264510   5.531   0.173   3.862  0.0084  1.0606 -0.0349
14340TIP3    H164511   5.512   0.085   3.827  0.2488  1.6009 -1.5731
14340TIP3    H264512   5.626   0.183   3.851 -0.0567  1.6047 -0.1094
14341TIP3   OH264513   0.755   3.312  13.497 -0.7844 -0.2747 -0.0217
14341TIP3    H164514   0.802   3.379  13.546  0.1081 -0.5746 -0.4606
14341TIP3    H264515   0.665   3.345  13.491 -0.6366  0.2924  0.8296
14342TIP3   OH264516   3.373   3.131  14.909  0.2269  0.4077  0.4963
14342TIP3    H164517   3.418   3.159  14.829  2.8949 -0.2182  1.7387
14342TIP3    H264518   3.321   3.207  14.935 -0.7713  0.5733 -1.8899
14343TIP3   OH264519   1.501   6.113   3.468  0.0385 -0.4385  0.5800
14343TIP3    H164520   1.586   6.109   3.424  0.7519 -0.6414  1.9535
14343TIP3    H264521   1.469   6.202   3.450  0.4848 -0.3977 -0.0344
14344TIP3   OH264522   3.876   6.563  11.993 -0.1836  0.0931  0.0727
14344TIP3    H164523   3.926   6.515  12.059 -2.1648 -1.1025  0.7470
14344TIP3    H264524   3.929   6.641  11.974  2.0865 -1.3152  0.4717
14345TIP3   OH264525   4.351   0.653  14.352  0.4386 -0.3885  0.1459
14345TIP3    H164526   4.433   0.674  14.306  1.1214  1.6839  2.2117
14345TIP3    H264527   4.326   0.567  14.318  2.5617 -0.2961 -1.7805
14346TIP3   OH264528   0.574   0.207  16.059 -0.4929  0.0046  0.0033
14346TIP3    H164529   0.530   0.122  16.066 -2.9306  1.3260  1.4807
14346TIP3    H264530   0.588   0.218  15.964  1.7298 -2.8819 -0.0857
14347TIP3   OH264531   0.436   2.037  12.557  0.3904  0.3563 -0.0243
14347TIP3    H164532   0.378   2.056  12.631  0.5573 -1.6565  0.6584
14347TIP3    H264533   0.385   2.060  12.480 -1.6727 -2.1930  0.5302
14348TIP3   OH264534   5.758   4.796  11.922 -0.1659 -0.2888 -0.1706
14348TIP3    H164535   5.792   4.766  11.838 -0.2952 -1.4130  0.1665
14348TIP3    H264536   5.762   4.891  11.917  1.4186 -0.3641 -0.8070
14349TIP3   OH264537   2.420   2.391  14.238 -0.0875  0.2580  0.0242
14349TIP3    H164538   2.435   2.366  14.329  2.5886 -0.0758 -0.4784
14349TIP3    H264539   2.347   2.454  14.242  0.9721  1.3873  2.5478
14350TIP3   OH264540   6.104   2.658   5.875 -0.5286 -0.0764  0.2823
14350TIP3    H164541   6.107   2.652   5.970  1.8332  1.4877  0.3543
14350TIP3    H264542   6.086   2.569   5.845  1.0495 -1.0345  2.1324
14351TIP3   OH264543   6.101   4.092  11.896 -0.0097  0.0937 -0.5153
14351TIP3    H164544   6.079   4.134  11.979 -1.6056 -0.9425 -0.4005
14351TIP3    H264545   6.149   4.013  11.921 -0.5133 -0.2319 -0.5776
14352TIP3   OH264546   4.316   6.156  14.037 -0.2413  0.1222  0.1893
14352TIP3    H164547   4.382   6.191  14.098  0.5041  2.1358 -1.7195
14352TIP3    H264548   4.366   6.133  13.958 -1.6493  0.5306 -0.8376
14353TIP3   OH264549   5.501   3.110  13.127 -0.0255  0.6728  0.4710
14353TIP3    H164550   5.525   3.192  13.082  0.2782 -0.3236 -1.2315
14353TIP3    H264551   5.406   3.109  13.126 -0.1179  2.3056  2.9421
14354TIP3   OH264552   3.682   4.343   0.498  0.3077 -0.5668 -0.5981
14354TIP3    H164553   3.603   4.381   0.536  0.4392  1.4911 -2.2751
14354TIP3    H264554   3.723   4.415   0.450  3.3276 -1.5403  0.3922
14355TIP3   OH264555   4.609   5.381   3.695 -0.4766  0.3573 -0.4303
14355TIP3    H164556   4.672   5.369   3.624 -0.3879 -2.3234  0.0520
14355TIP3    H264557   4.662   5.405   3.771 -0.3153  0.7718 -0.6758
14356TIP3   OH264558   6.568   2.405   2.723 -1.1603 -0.3598 -0.4749
14356TIP3    H164559   6.480   2.395   2.687 -1.3735  2.7919 -0.9897
14356TIP3    H264560   6.569   2.351   2.802 -3.5683 -0.3719 -0.4319
14357TIP3   OH264561   6.789   1.871  14.271  0.8600 -0.4462 -0.2448
14357TIP3    H164562   6.869   1.860  14.322  0.8353 -0.5467 -0.2276
14357TIP3    H264563   6.759   1.781  14.254 -1.2622 -0.3867  2.8974
14358TIP3   OH264564   1.429   6.730  12.523  1.1701  0.7043  0.4130
14358TIP3    H164565   1.436   6.742  12.428 -0.3028  0.0472  0.2104
14358TIP3    H264566   1.520   6.722  12.553  1.5729 -1.0469 -1.1967
14359TIP3   OH264567   4.043   6.055   2.011  0.3642 -0.2480 -0.2400
14359TIP3    H164568   3.999   5.995   2.072 -0.0649 -0.6158 -0.9041
14359TIP3    H264569   4.024   6.142   2.045  0.3417 -0.4581  0.2960
14360TIP3   OH264570   4.094   3.687  11.841  0.5218 -0.1793  0.3798
14360TIP3    H164571   4.086   3.779  11.867  0.5003 -0.2284  0.5454
14360TIP3    H264572   4.037   3.640  11.902 -0.2383 -0.1895 -0.3350
14361TIP3   OH264573   0.763   2.528   5.167 -0.2880 -0.5744  0.2566
14361TIP3    H164574   0.778   2.508   5.259 -0.0961  1.8960  0.8123
14361TIP3    H264575   0.679   2.575   5.166  0.3277  0.5497 -0.6346
14362TIP3   OH264576   1.878   2.255   2.938  0.3617  0.2516  0.0001
14362TIP3    H164577   1.818   2.283   3.007 -0.2574 -1.0183 -0.0194
14362TIP3    H264578   1.945   2.204   2.984  0.5011  0.2469 -0.2079
14363TIP3   OH264579   2.946   1.670  15.161 -0.2202 -0.6868  0.4501
14363TIP3    H164580   2.910   1.746  15.116  1.0097 -0.1351  0.3814
14363TIP3    H264581   3.012   1.634  15.101 -0.2986 -1.3883  0.7734
14364TIP3   OH264582   5.158   6.421   5.138 -0.0474  0.4364 -0.4497
14364TIP3    H164583   5.111   6.344   5.107  2.1668 -0.3200 -2.0938
14364TIP3    H264584   5.192   6.395   5.224  2.3371 -1.2185 -1.8098
14365TIP3   OH264585   6.689   1.764  11.205  0.5028  0.0175  0.2961
14365TIP3    H164586   6.653   1.829  11.144 -1.1855  0.4305  1.6732
14365TIP3    H264587   6.727   1.697  11.149 -0.5629  0.6299 -1.2112
14366TIP3   OH264588   5.292   1.945  12.129  0.2321 -0.3876 -0.0861
14366TIP3    H164589   5.317   1.999  12.204  1.4251 -0.0748 -0.7017
14366TIP3    H264590   5.292   1.856  12.162 -0.5548 -0.1324  0.6225
14367TIP3   OH264591   0.059   4.442   2.310  0.2859 -0.0906 -0.0966
14367TIP3    H164592   0.108   4.523   2.321 -0.1359  0.4068 -1.6912
14367TIP3    H264593   0.023   4.448   2.222  0.6035 -2.1956 -0.4042
14368TIP3   OH264594   5.100   2.996   4.048 -0.0902 -0.6815 -0.0316
14368TIP3    H164595   5.086   2.950   3.966 -0.0313 -2.0228  0.6974
14368TIP3    H264596   5.020   2.980   4.099  0.5217 -1.1668  0.7842
14369TIP3   OH264597   3.510   0.429  14.584  0.5524 -0.1972 -0.2301
14369TIP3    H164598   3.422   0.452  14.614  0.7901  0.3684  0.0404
14369TIP3    H264599   3.508   0.333  14.573 -0.6633  0.0321 -2.1423
14370TIP3   OH264600   5.825   0.623  12.041  0.0957  0.5911 -0.1432
14370TIP3    H164601   5.770   0.701  12.043  1.1856  1.3520  0.0965
14370TIP3    H264602   5.828   0.594  12.133  0.1374  0.5740 -0.1500
14371TIP3   OH264603   0.994   4.177  12.589 -0.0385  0.3196  0.4043
14371TIP3    H164604   0.992   4.176  12.493  0.2150  0.2739  0.4002
14371TIP3    H264605   1.040   4.257  12.612  0.5883 -0.0590  0.4779
14372TIP3   OH264606   6.245   6.247   3.181 -0.2943  0.9708 -0.0553
14372TIP3    H164607   6.337   6.221   3.177 -0.6990 -0.3539 -1.0985
14372TIP3    H264608   6.197   6.165   3.193 -1.1854  1.9173  3.0780
14373TIP3   OH264609   0.522   2.142   5.447  0.3010 -0.4488  0.7251
14373TIP3    H164610   0.542   2.200   5.520 -0.2792 -0.1446  0.6436
14373TIP3    H264611   0.594   2.078   5.447  1.0106  0.3351  0.7402
14374TIP3   OH264612   0.566   4.283   5.544  0.4868 -0.2139 -0.3935
14374TIP3    H164613   0.658   4.308   5.548  0.5500 -0.5046  0.0218
14374TIP3    H264614   0.550   4.265   5.451  1.0618 -0.9465 -0.3575
14375TIP3   OH264615   6.065   6.816  16.376  0.5807 -0.3441 -0.6605
14375TIP3    H164616   6.128   6.814  16.303 -0.0078  1.1845 -1.2188
14375TIP3    H264617   6.105   6.874  16.440 -0.1475  0.4389 -0.9148
14376TIP3   OH264618   6.726   1.177  16.864 -0.1921  0.2888 -0.2356
14376TIP3    H164619   6.690   1.151  16.948 -0.3038  1.1459 -0.0066
14376TIP3    H264620   6.769   1.099  16.830 -0.2794 -0.0995  0.5506
14377TIP3   OH264621   3.883   5.855   1.437  0.2843  0.0365  0.3491
14377TIP3    H164622   3.873   5.880   1.346  0.3762  0.7884  0.5472
14377TIP3    H264623   3.803   5.807   1.458  0.6302 -0.8625 -0.3626
14378TIP3   OH264624   3.629   2.378  11.896 -0.0886  0.0093 -0.1957
14378TIP3    H164625   3.722   2.367  11.916 -0.3289 -0.8378  0.5091
14378TIP3    H264626   3.603   2.295  11.855 -0.6830 -0.0106  0.2148
14379TIP3   OH264627   1.836   6.195  14.409 -0.5908 -0.0232  0.1335
14379TIP3    H164628   1.767   6.239  14.459 -0.5261  1.1853 -0.8201
14379TIP3    H264629   1.790   6.137  14.350 -0.7729  0.4689 -0.2074
14380TIP3   OH264630   4.466   5.521   3.100 -0.0505  0.3328 -0.0525
14380TIP3    H164631   4.387   5.530   3.153  0.3431  0.6887  0.4738
14380TIP3    H264632   4.534   5.494   3.162  0.4443  0.8878 -0.3467
14381TIP3   OH264633   0.098   4.175  11.580  0.0874 -0.3810 -0.1400
14381TIP3    H164634   0.181   4.202  11.541 -0.0907  0.0141 -0.2536
14381TIP3    H264635   0.110   4.082  11.600  0.1440 -0.6258 -1.2533
14382TIP3   OH264636   6.326   1.824  13.111 -0.1855 -0.5510 -0.8453
14382TIP3    H164637   6.246   1.780  13.140 -0.5784  0.5969 -0.1323
14382TIP3    H264638   6.397   1.766  13.137 -0.5209  0.3949  2.4631
14383TIP3   OH264639   6.339   4.669  12.772  0.1408  0.0053 -0.0827
14383TIP3    H164640   6.363   4.745  12.824 -0.1181  0.3645 -0.4866
14383TIP3    H264641   6.244   4.674  12.765  0.2657  0.5884 -1.5527
14384TIP3   OH264642   1.847   1.514  14.133  0.2581 -0.3411 -0.5033
14384TIP3    H164643   1.793   1.539  14.209  2.1789  0.1298  0.7379
14384TIP3    H264644   1.793   1.452  14.085 -2.1350  1.5133 -0.2979
14385TIP3   OH264645   0.432   5.503   3.388  0.7036 -0.2100 -0.8346
14385TIP3    H164646   0.367   5.516   3.457  2.6224  0.6766  0.8823
14385TIP3    H264647   0.489   5.579   3.396  1.5711 -0.6545 -2.7207
14386TIP3   OH264648   0.063   3.511  16.759  0.2787 -0.0778 -0.5483
14386TIP3    H164649   0.015   3.455  16.820 -0.3521 -0.2610 -1.1994
14386TIP3    H264650   0.018   3.498  16.675 -0.3712  2.0082 -0.5494
14387TIP3   OH264651   1.405   1.917   3.315 -0.1970 -0.1169  0.4318
14387TIP3    H164652   1.331   1.856   3.323 -0.0415 -0.4473 -0.5923
14387TIP3    H264653   1.370   1.991   3.266 -0.2670  0.4324  1.3042
14388TIP3   OH264654   1.381   1.567   0.703  0.0945  0.2847  0.3891
14388TIP3    H164655   1.444   1.566   0.631  0.1842  0.2717  0.4674
14388TIP3    H264656   1.385   1.479   0.739  1.9568  1.0077  2.0601
14389TIP3   OH264657   5.559   3.775   5.377  0.0701 -0.9803  0.0291
14389TIP3    H164658   5.543   3.794   5.469  1.2632 -1.8484  0.4239
14389TIP3    H264659   5.595   3.857   5.342 -2.0365 -0.0819 -0.0951
14390TIP3   OH264660   5.290   5.341  12.543  0.1028  0.2276  0.1100
14390TIP3    H164661   5.268   5.344  12.636  1.8926  1.5456  0.5045
14390TIP3    H264662   5.361   5.276  12.538 -0.3006 -0.1766 -0.4099
14391TIP3   OH264663   4.858   5.244   5.087 -0.5541  0.1365 -0.0486
14391TIP3    H164664   4.815   5.239   5.172 -0.3378 -0.5179  0.0170
14391TIP3    H264665   4.829   5.328   5.051 -0.6531  0.4071  0.6614
14392TIP3   OH264666   2.788   6.760   3.458  0.6432 -0.4881 -0.0026
14392TIP3    H164667   2.712   6.719   3.499  0.1110  1.2155  0.7682
14392TIP3    H264668   2.811   6.833   3.517  1.3422  0.5290 -1.4957
14393TIP3   OH264669   4.064   0.166  13.287  0.0268 -0.1770  0.0238
14393TIP3    H164670   3.997   0.189  13.350  0.2985  1.3462 -0.2373
14393TIP3    H264671   4.033   0.084  13.247 -1.7784  0.6375 -0.2519
14394TIP3   OH264672   2.713   5.690  16.436  1.0943 -0.1618  0.6445
14394TIP3    H164673   2.668   5.705  16.352 -2.3461 -0.3357  2.3543
14394TIP3    H264674   2.737   5.778  16.466  1.2843  0.0011  0.0228
14395TIP3   OH264675   6.591   2.103   2.364 -0.7938  0.1065 -0.0945
14395TIP3    H164676   6.649   2.134   2.434 -0.5694  1.5462 -0.8808
14395TIP3    H264677   6.648   2.100   2.287 -1.1730 -0.9214 -0.3285
14396TIP3   OH264678   5.641   1.742   5.087  0.0826  0.0714  0.2289
14396TIP3    H164679   5.671   1.690   5.012  1.6828  2.2832 -0.7061
14396TIP3    H264680   5.615   1.676   5.151  1.7904 -1.9269 -1.0172
14397TIP3   OH264681   4.287   4.583   3.896 -0.2412 -0.7938  0.2724
14397TIP3    H164682   4.205   4.576   3.946 -0.1825 -0.9002  0.3546
14397TIP3    H264683   4.274   4.526   3.820 -1.4053  1.5366 -1.3210
14398TIP3   OH264684   5.221   6.815  14.413  0.3284  0.0106  0.5152
14398TIP3    H164685   5.297   6.785  14.364  0.1783 -1.6469  1.2632
14398TIP3    H264686   5.247   6.901  14.447  1.6725 -0.3247  0.3557
14399TIP3   OH264687   2.153   1.014  14.819 -0.5361  0.2558 -0.0160
14399TIP3    H164688   2.235   0.979  14.784 -0.9925 -0.1872 -0.6433
14399TIP3    H264689   2.178   1.055  14.902  0.5546  1.2924 -0.8346
14400TIP3   OH264690   5.786   3.524   3.841  0.0636 -0.0005  0.9412
14400TIP3    H164691   5.699   3.550   3.810  0.4106  1.9013  1.4631
14400TIP3    H264692   5.846   3.556   3.773  0.3595 -1.3615  0.5518
14401TIP3   OH264693   6.139   2.770   4.972  0.1137 -0.3112 -0.5180
14401TIP3    H164694   6.206   2.713   5.011 -1.2264 -1.8098 -0.3388
14401TIP3    H264695   6.160   2.857   5.004  3.2378 -0.3734 -2.1617
14402TIP3   OH264696   5.389   1.512  10.642  0.3123 -0.3419 -0.1679
14402TIP3    H164697   5.334   1.570  10.590  0.0144  1.8519  2.4932
14402TIP3    H264698   5.474   1.556  10.647 -0.2516  0.5011  2.8207
14403TIP3   OH264699   2.060   5.390  13.150 -0.5928 -0.3024  0.3183
14403TIP3    H164700   2.041   5.417  13.060  0.2746  0.1391  0.2633
14403TIP3    H264701   1.981   5.414  13.199 -1.0876 -0.5890 -0.3320
14404TIP3   OH264702   4.558   1.224  11.537  0.3467 -0.2222 -0.1509
14404TIP3    H164703   4.643   1.249  11.572  0.6988 -0.6456 -0.6948
14404TIP3    H264704   4.572   1.219  11.442 -0.5241  0.6473 -0.3347
14405TIP3   OH264705   3.395   6.581  12.738  0.5436 -0.3160 -0.1461
14405TIP3    H164706   3.343   6.627  12.671  1.3438 -3.3296 -2.9324
14405TIP3    H264707   3.337   6.511  12.769  1.2480 -0.7642  0.1677
14406TIP3   OH264708   5.357   6.214  14.748 -0.3105 -0.1252  0.3488
14406TIP3    H164709   5.296   6.140  14.753 -0.7252  0.2876  1.7550
14406TIP3    H264710   5.443   6.176  14.764 -0.2893 -0.5740 -0.7649
14407TIP3   OH264711   3.307   4.260  15.885  0.0388  0.2556 -0.1925
14407TIP3    H164712   3.278   4.337  15.837 -0.0471 -0.7949 -1.8787
14407TIP3    H264713   3.316   4.192  15.818  3.4330 -0.2750  0.6911
14408TIP3   OH264714   1.846   1.972   1.032  0.0460 -0.2284 -0.0270
14408TIP3    H164715   1.896   1.992   1.111 -0.8258 -0.5233  0.6091
14408TIP3    H264716   1.758   1.952   1.064 -0.0356 -1.4438 -0.9753
14409TIP3   OH264717   0.705   2.079  15.318 -0.2643  0.2041 -0.3374
14409TIP3    H164718   0.794   2.111  15.334  0.2226 -1.2775  0.0297
14409TIP3    H264719   0.661   2.088  15.402 -0.4571  0.9347 -0.5180
14410TIP3   OH264720   3.226   4.582  10.502  0.0505 -0.4597  0.0617
14410TIP3    H164721   3.283   4.598  10.577 -0.0200 -0.8562  0.2035
14410TIP3    H264722   3.262   4.504  10.460 -1.7521 -2.1309  1.5153
14411TIP3   OH264723   3.151   5.268   5.276 -0.8412  0.3469 -0.2411
14411TIP3    H164724   3.114   5.244   5.361 -1.0148  0.3595 -0.3125
14411TIP3    H264725   3.226   5.209   5.264  0.5943  1.8593  0.9616
14412TIP3   OH264726   5.428   4.416   3.772  0.5571  0.2853  0.0200
14412TIP3    H164727   5.404   4.365   3.849  2.0433  0.4424  0.6036
14412TIP3    H264728   5.351   4.410   3.715 -0.7035  0.4849  1.6505
14413TIP3   OH264729   1.097   4.317  12.943  0.3858 -0.3235  0.3708
14413TIP3    H164730   1.147   4.334  13.023  2.7062  0.8377 -1.2812
14413TIP3    H264731   1.051   4.235  12.961  1.9250 -0.7915  2.4039
14414TIP3   OH264732   4.567   5.860   1.054  0.5906 -0.6609 -0.1083
14414TIP3    H164733   4.510   5.920   1.006  1.2972  0.7022  0.7223
14414TIP3    H264734   4.582   5.903   1.138  2.0239 -1.4754  0.0755
14415TIP3   OH264735   6.186   5.571   6.376 -0.0084 -0.0244  0.4028
14415TIP3    H164736   6.232   5.655   6.368  0.5591 -0.5324 -2.5097
14415TIP3    H264737   6.127   5.582   6.450  1.1951  2.3987  1.0525
14416TIP3   OH264738   3.042   1.535  15.981  0.0585  0.5956 -0.2648
14416TIP3    H164739   3.035   1.457  15.926  1.1218  0.2075  0.1435
14416TIP3    H264740   2.977   1.521  16.050  0.2877  0.0510 -0.1576
14417TIP3   OH264741   4.392   0.752  15.506 -0.4386 -0.0334 -0.6867
14417TIP3    H164742   4.323   0.688  15.522 -0.4492  0.5612  1.9337
14417TIP3    H264743   4.363   0.801  15.429 -3.4706  0.8549  0.9463
14418TIP3   OH264744   6.033   5.824  12.013 -0.7977  0.4463 -0.2236
14418TIP3    H164745   6.098   5.771  12.060 -0.4708  0.2476 -0.8943
14418TIP3    H264746   5.968   5.847  12.080  0.1838  1.0142  0.5539
14419TIP3   OH264747   5.777   2.292   4.768  0.0240 -0.5312  0.0528
14419TIP3    H164748   5.718   2.332   4.704 -0.7788 -0.5799  0.7492
14419TIP3    H264749   5.855   2.268   4.718  0.4228  1.6459 -0.4505
14420TIP3   OH264750   1.044   0.979   4.008  0.1097  0.2252  0.1925
14420TIP3    H164751   1.120   0.944   3.961 -0.3786  0.3294 -0.6833
14420TIP3    H264752   1.011   0.904   4.058 -0.7601 -0.5079 -1.4531
14421TIP3   OH264753   2.881   2.436   1.598 -0.2797 -0.0431  0.0150
14421TIP3    H164754   2.849   2.377   1.530 -2.0112 -1.6725  2.1723
14421TIP3    H264755   2.917   2.510   1.550 -1.2919 -1.2171 -2.6769
14422TIP3   OH264756   5.141   2.874   3.804  0.3722  0.3342 -0.0047
14422TIP3    H164757   5.189   2.818   3.864  0.8288 -0.2963 -0.9438
14422TIP3    H264758   5.206   2.901   3.740  0.7025  3.7357  1.6457
14423TIP3   OH264759   0.273   6.109   5.800 -0.1725 -0.4785 -0.2899
14423TIP3    H164760   0.266   6.040   5.866  1.2524  0.9356  1.4051
14423TIP3    H264761   0.264   6.191   5.850  3.3285  0.7124 -1.4455
14424TIP3   OH264762   6.777   0.855   1.323  0.1371  0.0416  0.3067
14424TIP3    H164763   6.803   0.793   1.256  0.0136  1.5313 -1.1509
14424TIP3    H264764   6.726   0.804   1.386 -1.5723 -0.9448 -1.8467
14425TIP3   OH264765   3.543   1.209   0.915 -0.7125  0.2600 -0.2823
14425TIP3    H164766   3.604   1.156   0.966  0.4079  1.3988 -0.3951
14425TIP3    H264767   3.499   1.264   0.980 -1.0025  0.0287 -0.2857
14426TIP3   OH264768   6.154   3.772  15.622  0.6383  0.0579  0.8048
14426TIP3    H164769   6.159   3.726  15.539  0.5261  0.3629  0.6290
14426TIP3    H264770   6.123   3.706  15.684  0.4255 -0.0871  0.5434
14427TIP3   OH264771   2.644   4.918  16.952  0.0413 -0.2770  0.6330
14427TIP3    H164772   2.560   4.886  16.920 -0.2125  0.9904 -0.0104
14427TIP3    H264773   2.709   4.881  16.893 -0.2221  0.1267  0.0857
14428TIP3   OH264774   1.123   3.455  15.584 -0.4383  0.0157  0.2904
14428TIP3    H164775   1.195   3.404  15.549  0.6595  1.6854  0.0757
14428TIP3    H264776   1.069   3.391  15.631  1.9610 -1.0374  1.7262
14429TIP3   OH264777   1.249   5.067   4.299  0.2779  0.4782 -0.5042
14429TIP3    H164778   1.164   5.084   4.339  0.8809  2.1345  0.1054
14429TIP3    H264779   1.301   5.029   4.369  0.7665  1.6821 -0.2007
14430TIP3   OH264780   0.460   2.153   1.506  0.1846 -0.0560 -0.1275
14430TIP3    H164781   0.520   2.190   1.441 -1.3343  0.0423 -1.5024
14430TIP3    H264782   0.374   2.184   1.479 -0.7924 -2.3383  0.2819
14431TIP3   OH264783   1.958   6.051  15.338 -0.4075  0.5012 -0.3729
14431TIP3    H164784   2.018   6.055  15.412  1.5048 -0.8764 -1.7854
14431TIP3    H264785   1.875   6.083  15.372  1.1651  2.6886  1.5995
14432TIP3   OH264786   6.561   5.182   4.253 -0.2417 -0.0683  0.4839
14432TIP3    H164787   6.494   5.161   4.319  0.6254 -0.6858  1.1818
14432TIP3    H264788   6.583   5.097   4.214 -1.7629  0.4561 -1.6045
14433TIP3   OH264789   4.158   4.177  16.609 -0.5635  0.3416 -0.1559
14433TIP3    H164790   4.063   4.178  16.621 -0.6286  0.4491 -0.6449
14433TIP3    H264791   4.191   4.122  16.680 -0.8332  1.7039  1.0577
14434TIP3   OH264792   1.336   6.741   2.704  0.8741  0.0513 -0.0357
14434TIP3    H164793   1.411   6.800   2.699  2.4672 -1.8753  0.0372
14434TIP3    H264794   1.334   6.698   2.618 -0.2106  0.1760 -0.0717
14435TIP3   OH264795   5.194   4.672   4.498  0.3684  0.4426  0.3367
14435TIP3    H164796   5.279   4.638   4.468 -0.6765 -2.8399  0.8675
14435TIP3    H264797   5.132   4.643   4.430 -0.2959  3.2974 -0.3351
14436TIP3   OH264798   5.971   0.487   1.259  0.3730  0.6728 -0.3933
14436TIP3    H164799   6.005   0.575   1.240 -1.5746  2.0171  2.0104
14436TIP3    H264800   6.000   0.469   1.348  0.5591 -1.0302 -0.7911
14437TIP3   OH264801   1.749   3.932   4.327  0.2397 -0.0965  0.3336
14437TIP3    H164802   1.827   3.987   4.332 -1.0449  1.7982  0.0267
14437TIP3    H264803   1.722   3.919   4.418  1.2639 -1.2964  0.4756
14438TIP3   OH264804   1.556   1.012   3.574 -0.2805  0.6243 -0.0334
14438TIP3    H164805   1.522   1.045   3.491  0.1574 -0.1050 -0.5080
14438TIP3    H264806   1.607   1.085   3.609  0.2784  0.6311 -0.8426
14439TIP3   OH264807   3.876   4.093  15.674  0.1024  0.5574 -0.7024
14439TIP3    H164808   3.809   4.106  15.608 -0.7953 -1.1807 -0.1551
14439TIP3    H264809   3.913   4.180  15.689 -2.3953  1.6233 -0.6028
14440TIP3   OH264810   1.669   6.709  11.544 -0.4989  0.0491 -0.1064
14440TIP3    H164811   1.659   6.661  11.626 -1.6040  0.2483 -0.1262
14440TIP3    H264812   1.698   6.796  11.570  0.6915 -0.3569 -0.0236
14441TIP3   OH264813   5.327   0.395  11.338  0.2440  0.4410 -0.2038
14441TIP3    H164814   5.360   0.306  11.324  0.3936  0.2671  1.1585
14441TIP3    H264815   5.273   0.388  11.417  0.6447  1.6590  0.1834
14442TIP3   OH264816   1.071   0.746   2.841 -0.0984  0.1891  0.1567
14442TIP3    H164817   1.080   0.825   2.894  1.9611 -0.8834  1.4816
14442TIP3    H264818   1.048   0.677   2.903 -1.9908 -0.2815 -0.9986
14443TIP3   OH264819   0.841   1.641   4.766 -0.1234  0.1670 -0.4399
14443TIP3    H164820   0.925   1.685   4.778 -0.6118  1.1841 -0.6861
14443TIP3    H264821   0.862   1.548   4.772  1.3352  0.3272 -2.4410
14444TIP3   OH264822   0.174   2.656  13.397 -0.0220  0.0744  0.0079
14444TIP3    H164823   0.104   2.615  13.346 -0.4929  0.7413  0.1268
14444TIP3    H264824   0.217   2.715  13.335  0.2208 -0.0703  0.0349
14445TIP3   OH264825   4.300   5.716   3.684 -0.6033  0.1244 -0.2671
14445TIP3    H164826   4.368   5.783   3.688  0.0104 -0.4641 -0.8897
14445TIP3    H264827   4.306   5.672   3.769 -0.7191  0.5618 -0.0257
14446TIP3   OH264828   3.034   0.175   6.688 -0.4034 -0.1544  0.0407
14446TIP3    H164829   3.028   0.083   6.664  0.1557  0.1476 -1.2913
14446TIP3    H264830   3.121   0.202   6.658 -1.1234  1.1758 -0.9125
14447TIP3   OH264831   3.917   5.546  15.225 -0.7060 -0.0905 -0.1504
14447TIP3    H164832   3.826   5.571  15.244 -0.7072  0.4760 -0.8932
14447TIP3    H264833   3.938   5.590  15.143  1.4144  2.6788  1.7747
14448TIP3   OH264834   4.022   6.147   5.378 -0.0916  0.5316  0.3149
14448TIP3    H164835   3.938   6.180   5.410 -0.7620  0.4056 -1.2698
14448TIP3    H264836   4.055   6.217   5.321  0.2703  0.0431 -0.0878
14449TIP3   OH264837   6.184   0.817   0.030  0.7136  0.2421  0.1883
14449TIP3    H164838   6.276   0.791   0.037  0.6880 -0.1147 -0.7111
14449TIP3    H264839   6.157   0.787  -0.057  0.4084  2.3752 -0.4828
14450TIP3   OH264840   4.460   3.097  13.648  0.0590  0.2189 -0.6326
14450TIP3    H164841   4.378   3.123  13.607 -0.5743 -0.5466  0.1392
14450TIP3    H264842   4.478   3.010  13.612  1.6815  1.2534 -2.4838
14451TIP3   OH264843   4.269   6.226   4.329  0.2440  0.0005  0.0082
14451TIP3    H164844   4.348   6.213   4.381  0.6078 -0.8262 -0.7389
14451TIP3    H264845   4.289   6.187   4.244 -1.1642 -0.7438 -0.0049
14452TIP3   OH264846   4.507   5.748  17.201 -0.0906  0.2008  0.1042
14452TIP3    H164847   4.445   5.685  17.238  0.4770 -0.7193 -0.4941
14452TIP3    H264848   4.460   5.831  17.202 -1.2033 -0.4163 -0.0065
14453TIP3   OH264849   1.774   3.435  14.165 -0.0500  0.5402 -0.2052
14453TIP3    H164850   1.729   3.512  14.200 -0.5961 -0.3374  1.0816
14453TIP3    H264851   1.766   3.443  14.070 -1.6020  1.1822 -0.0343
14454TIP3   OH264852   3.113   5.320  16.158 -0.1931 -0.3745 -0.2632
14454TIP3    H164853   3.125   5.415  16.162  0.8669 -0.5369  0.6383
14454TIP3    H264854   3.101   5.301  16.065 -1.6288  0.7786 -0.3360
14455TIP3   OH264855   3.040   2.011  11.857  0.1422  0.2331  0.2420
14455TIP3    H164856   3.120   2.032  11.808  0.8861  0.1374  1.3947
14455TIP3    H264857   3.024   2.089  11.911  0.3932 -0.3831  1.2280
14456TIP3   OH264858   4.412   4.211  15.455 -0.3720  0.1791  0.0634
14456TIP3    H164859   4.479   4.246  15.396 -1.6516  1.8208 -0.4591
14456TIP3    H264860   4.410   4.273  15.528 -0.6284 -0.4067  0.5542
14457TIP3   OH264861   0.737   0.382  15.898  0.0402 -0.0878 -0.1010
14457TIP3    H164862   0.735   0.449  15.966  0.7759  1.2490 -1.3583
14457TIP3    H264863   0.697   0.424  15.822 -0.2499 -1.3633 -0.6667
14458TIP3   OH264864   4.632   5.707   2.946  0.2927  0.2587  0.4465
14458TIP3    H164865   4.579   5.650   3.003  1.9951 -0.4418  1.3468
14458TIP3    H264866   4.715   5.661   2.936  0.2530  0.6822 -2.1124
14459TIP3   OH264867   6.189   3.655  12.817 -0.2977  0.6236  0.0384
14459TIP3    H164868   6.193   3.643  12.912  0.6858  1.5651  0.1265
14459TIP3    H264869   6.165   3.748  12.806 -0.2065  0.5686 -0.6309
14460TIP3   OH264870   3.656   2.424   3.328 -0.2356 -0.0963 -0.1342
14460TIP3    H164871   3.668   2.517   3.343  1.4309 -0.5502  1.4492
14460TIP3    H264872   3.632   2.388   3.414 -1.9963 -0.9730 -0.9501
14461TIP3   OH264873   1.812   0.421  16.372  0.2945  0.4302  0.0244
14461TIP3    H164874   1.886   0.361  16.378 -0.9768 -1.1526  0.0275
14461TIP3    H264875   1.735   0.365  16.372 -0.9622  2.1011  0.9856
14462TIP3   OH264876   3.651   3.315  13.931  0.0310  0.6713 -0.3296
14462TIP3    H164877   3.672   3.264  13.853 -0.8986  1.9994 -1.4841
14462TIP3    H264878   3.719   3.382  13.935  0.4104  0.2479  0.3374
14463TIP3   OH264879   0.865   6.680   0.640 -0.8680  0.3087 -0.4865
14463TIP3    H164880   0.783   6.719   0.671 -0.4936  1.4433 -0.8980
14463TIP3    H264881   0.931   6.711   0.703 -0.4893  0.7361 -1.0937
14464TIP3   OH264882   0.347   2.512   5.404 -0.4624 -0.3939  0.1794
14464TIP3    H164883   0.315   2.543   5.488 -0.5673  0.9695 -0.3592
14464TIP3    H264884   0.426   2.461   5.425 -0.1801  0.4000  1.0434
14465TIP3   OH264885   1.729   2.001   4.239 -0.6943 -0.0409  0.0816
14465TIP3    H164886   1.744   2.072   4.301 -1.1822  1.0501 -1.0278
14465TIP3    H264887   1.815   1.977   4.206 -0.6461  0.8994 -0.4780
14466TIP3   OH264888   1.935   4.157   1.881  0.1688 -0.7706 -0.2353
14466TIP3    H164889   1.982   4.214   1.942  0.2391 -0.6524 -0.3996
14466TIP3    H264890   1.906   4.084   1.935  0.4847 -0.8118 -0.1186
14467TIP3   OH264891   5.855   5.327   4.865  0.7935  0.2973  0.0595
14467TIP3    H164892   5.796   5.322   4.940 -0.4849 -0.7588 -1.0041
14467TIP3    H264893   5.798   5.343   4.790  1.5138 -3.3171 -1.3598
14468TIP3   OH264894   0.380   1.270   2.403  0.1840 -0.4630 -0.5206
14468TIP3    H164895   0.308   1.207   2.395 -0.6528  0.3290  0.4708
14468TIP3    H264896   0.445   1.226   2.458 -1.6178  0.5185  2.5338
14469TIP3   OH264897   0.413   3.184  17.089 -0.1571  0.5305 -0.7269
14469TIP3    H164898   0.474   3.241  17.137 -1.2758  0.9333  0.2252
14469TIP3    H264899   0.355   3.244  17.042  0.4152  0.1399 -1.9500
14470TIP3   OH264900   0.251   6.374  16.112  0.5318  0.1708  0.0074
14470TIP3    H164901   0.283   6.406  16.197 -0.8319  1.3283  0.1012
14470TIP3    H264902   0.165   6.336  16.132 -0.0649  0.9906 -0.9382
14471TIP3   OH264903   5.345   6.164  13.104 -0.0249  0.1376  0.4278
14471TIP3    H164904   5.314   6.224  13.036 -0.4159  0.3588  0.7984
14471TIP3    H264905   5.436   6.147  13.082 -0.9571 -2.2745 -1.9683
14472TIP3   OH264906   5.442   0.009   2.820 -0.3341 -0.5818 -0.2623
14472TIP3    H164907   5.387   0.046   2.750  0.6277  0.0843 -0.6720
14472TIP3    H264908   5.504  -0.048   2.774  1.8735  1.7094 -0.2604
14473TIP3   OH264909   0.395   5.450  10.880 -0.4066 -0.4859  0.2330
14473TIP3    H164910   0.432   5.401  10.807  0.4897 -0.4009  0.6256
14473TIP3    H264911   0.400   5.391  10.955 -1.5765 -0.6754  0.1761
14474TIP3   OH264912   3.120   0.709   1.963 -0.0482 -0.5218  0.7344
14474TIP3    H164913   3.209   0.675   1.953  0.6015  1.2478  0.3400
14474TIP3    H264914   3.131   0.793   2.006 -1.6087 -0.6711  1.4451
14475TIP3   OH264915   0.544   1.213  15.374  0.0717 -0.9124  0.1051
14475TIP3    H164916   0.561   1.304  15.401  0.5503 -1.1053  0.4542
14475TIP3    H264917   0.563   1.213  15.280  1.3340 -0.9487  0.3419
14476TIP3   OH264918   1.878   4.521   5.278 -0.2699 -0.3357 -0.4385
14476TIP3    H164919   1.843   4.607   5.254 -1.6535 -0.5932  0.6051
14476TIP3    H264920   1.922   4.536   5.362  1.1287 -0.2572 -1.1817
14477TIP3   OH264921   4.882   0.670   0.051  0.4755  0.0117 -0.0471
14477TIP3    H164922   4.945   0.742   0.046  0.2064  0.2348 -0.2527
14477TIP3    H264923   4.871   0.654   0.145  1.5503 -0.6561 -0.0298
14478TIP3   OH264924   0.083   2.424  11.938 -0.3566 -0.5129  0.0003
14478TIP3    H164925   0.017   2.398  12.002 -1.0804 -0.5398 -0.7358
14478TIP3    H264926   0.132   2.495  11.980 -0.7709 -0.5869  0.6077
14479TIP3   OH264927   6.168   5.361   0.810 -0.5267 -0.5696 -0.2703
14479TIP3    H164928   6.161   5.339   0.717 -0.1165  1.4915 -0.7979
14479TIP3    H264929   6.259   5.339   0.833  0.1944  1.5518 -1.0606
14480TIP3   OH264930   6.208   5.350  11.004  0.0706 -0.3796  0.1778
14480TIP3    H164931   6.265   5.426  10.996 -1.7543  1.1067  0.9107
14480TIP3    H264932   6.262   5.283  11.045  1.1919  1.1172  1.1710
14481TIP3   OH264933   4.218   2.760  13.677 -0.0636  0.3391 -0.0755
14481TIP3    H164934   4.259   2.707  13.744  0.1022 -0.6466 -0.9503
14481TIP3    H264935   4.291   2.809  13.637  0.1118 -0.5219 -0.8283
14482TIP3   OH264936   1.807   0.736  16.868  0.1821 -0.1543  0.0291
14482TIP3    H164937   1.853   0.749  16.951 -2.6852  2.1744  1.3685
14482TIP3    H264938   1.848   0.798  16.808  2.5247 -2.1151 -0.4946
14483TIP3   OH264939   3.672   0.001   1.202 -0.0751 -0.0679  0.7060
14483TIP3    H164940   3.741  -0.065   1.189 -0.3548  0.0695 -1.6203
14483TIP3    H264941   3.593  -0.040   1.167 -1.0361  0.1231  2.5637
14484TIP3   OH264942   0.574   6.047  11.491  1.0086  0.1630  0.0066
14484TIP3    H164943   0.602   5.969  11.539  0.4319 -0.4209 -0.5863
14484TIP3    H264944   0.485   6.026  11.463 -0.0736  2.0150  1.9536
14485TIP3   OH264945   3.312   3.872   0.612 -0.4014 -0.5510 -0.5699
14485TIP3    H164946   3.357   3.950   0.645 -2.3299  0.2344  0.2210
14485TIP3    H264947   3.360   3.849   0.532  0.8482  0.8023 -0.2343
14486TIP3   OH264948   2.918   6.163   3.598  0.3328  0.2554 -0.4600
14486TIP3    H164949   2.913   6.082   3.650  0.3988  0.1021 -0.6936
14486TIP3    H264950   2.974   6.141   3.524 -0.0467  0.3674 -0.7867
14487TIP3   OH264951   6.673   1.114  13.844 -0.9213 -0.0625  0.5318
14487TIP3    H164952   6.743   1.159  13.890 -1.8391 -0.0421  1.9223
14487TIP3    H264953   6.593   1.158  13.872 -1.5911 -0.8400 -0.1407
14488TIP3   OH264954   4.548   4.351  14.073  0.1932 -0.2530 -0.3171
14488TIP3    H164955   4.541   4.402  13.991 -0.6328 -1.8125 -1.2280
14488TIP3    H264956   4.495   4.400  14.136  1.1618  1.1851 -0.5857
14489TIP3   OH264957   2.206   5.207  14.131  0.0621  0.7322 -0.3627
14489TIP3    H164958   2.294   5.199  14.167  0.2583 -0.5577 -1.0685
14489TIP3    H264959   2.154   5.243  14.202  1.3212  2.2834 -0.1901
14490TIP3   OH264960   4.542   0.706   3.234 -0.1366 -0.2628  0.0876
14490TIP3    H164961   4.622   0.719   3.284 -0.4255  0.7713  0.2919
14490TIP3    H264962   4.539   0.780   3.174 -0.4736 -0.7873 -0.5502
14491TIP3   OH264963   4.769   2.580  12.208  0.1874 -0.2910 -0.2642
14491TIP3    H164964   4.753   2.667  12.247  3.4819  0.0080  0.5869
14491TIP3    H264965   4.722   2.582  12.125 -0.6080  1.9458  0.1973
14492TIP3   OH264966   6.596   1.594   4.628  0.3041  0.3710 -0.8411
14492TIP3    H164967   6.554   1.580   4.543  0.7646  1.0745 -1.1921
14492TIP3    H264968   6.584   1.687   4.645 -0.9251 -0.0312  0.4833
14493TIP3   OH264969   3.161   6.116  11.055  0.5765 -0.6206  0.0578
14493TIP3    H164970   3.157   6.030  11.097  1.1844 -0.2456  0.8933
14493TIP3    H264971   3.094   6.112  10.987 -0.3052 -1.2882  0.9505
14494TIP3   OH264972   2.170   4.476   2.471 -0.4213  0.4314  0.4852
14494TIP3    H164973   2.091   4.523   2.498  0.0969  1.5319  0.1150
14494TIP3    H264974   2.209   4.446   2.553 -1.3290 -0.2882  0.6561
14495TIP3   OH264975   3.899   1.091   3.734 -0.0346  0.3424 -0.2274
14495TIP3    H164976   3.947   1.112   3.653  1.6182 -2.1215  0.0518
14495TIP3    H264977   3.931   1.154   3.798 -0.3487  1.4449 -1.1522
14496TIP3   OH264978   1.097   4.924  16.972 -0.1748 -0.1244 -0.6347
14496TIP3    H164979   1.154   4.922  16.895 -0.6939 -0.3585 -1.0147
14496TIP3    H264980   1.128   4.999  17.023  1.0225 -0.7449 -0.4121
14497TIP3   OH264981   4.651   6.589  13.477  0.0268 -0.0576 -0.0074
14497TIP3    H164982   4.725   6.595  13.537 -1.5825  0.4697  1.9869
14497TIP3    H264983   4.622   6.498  13.483  0.3059 -0.1854 -0.5481
14498TIP3   OH264984   1.517   5.081   1.101  0.5231 -0.0091  0.7818
14498TIP3    H164985   1.499   5.175   1.105  1.1500  0.0856  1.5145
14498TIP3    H264986   1.465   5.050   1.027 -1.6751  0.4671  2.0605
14499TIP3   OH264987   6.220   4.696   3.730  0.0939  0.1078  0.2555
14499TIP3    H164988   6.225   4.704   3.635  1.0126 -0.9302  0.2057
14499TIP3    H264989   6.131   4.723   3.752  0.5035  2.3411 -0.6835
14500TIP3   OH264990   2.409   2.678  11.166 -0.1539 -0.3244 -0.8920
14500TIP3    H164991   2.372   2.590  11.169 -1.0132  0.0460 -0.1757
14500TIP3    H264992   2.469   2.677  11.092  0.1084 -1.6146 -0.6644
14501TIP3   OH264993   0.617   1.789  13.843 -0.1756  0.3387  0.3933
14501TIP3    H164994   0.574   1.762  13.924 -2.0072  0.7551 -0.4143
14501TIP3    H264995   0.572   1.871  13.819  0.5954  0.4007 -0.8448
14502TIP3   OH264996   2.914   2.772  15.627  0.5406 -0.1826 -0.7957
14502TIP3    H164997   2.953   2.792  15.541 -0.3958 -0.2064 -1.2302
14502TIP3    H264998   2.828   2.814  15.624 -0.3805 -2.0545 -0.6973
14503TIP3   OH264999   3.989   4.718   1.982  0.5191 -0.3536 -0.2451
14503TIP3    H165000   3.943   4.689   1.902 -1.2033  2.3770 -0.3127
14503TIP3    H265001   3.994   4.639   2.036 -1.9417 -1.3317 -1.3505
14504TIP3   OH265002   4.508   1.401   0.711  0.0937  0.8083 -0.2653
14504TIP3    H165003   4.439   1.395   0.646  0.6196  1.6816 -0.9168
14504TIP3    H265004   4.473   1.459   0.778 -0.5400 -0.2773  0.3604
14505TIP3   OH265005   3.422   5.016  11.597  0.1674 -0.1320 -0.5513
14505TIP3    H165006   3.354   5.083  11.596  0.5978  0.3692  1.4192
14505TIP3    H265007   3.380   4.940  11.638  0.9561  0.4099  1.3399
14506TIP3   OH265008   5.140   2.431  16.035  0.4552  0.4897  0.5031
14506TIP3    H165009   5.066   2.455  15.980  0.8335  0.7946  0.1262
14506TIP3    H265010   5.128   2.337  16.052  2.0353 -0.3703 -2.7204
14507TIP3   OH265011   6.299   3.784   5.529 -0.4323 -0.5903 -1.0100
14507TIP3    H165012   6.367   3.798   5.595  1.4937 -1.4553 -2.7489
14507TIP3    H265013   6.293   3.868   5.483 -1.1230 -0.2656 -0.3279
14508TIP3   OH265014   4.713   3.182   2.403 -0.5212 -0.5687 -0.2789
14508TIP3    H165015   4.687   3.097   2.368  0.6624 -0.5715 -1.1941
14508TIP3    H265016   4.707   3.242   2.329 -0.9422  0.0641  0.2612
14509TIP3   OH265017   5.845   1.740  12.007 -0.0638 -0.0415  0.3887
14509TIP3    H165018   5.758   1.749  12.045  0.4286  0.9774  1.2883
14509TIP3    H265019   5.831   1.748  11.912 -1.1130 -1.2523  0.4362
14510TIP3   OH265020   3.292   4.667   3.985  0.2437  0.4447 -0.1761
14510TIP3    H165021   3.211   4.640   3.941 -0.2605  2.2896 -0.4525
14510TIP3    H265022   3.322   4.742   3.933  1.4286  0.5861  0.7073
14511TIP3   OH265023   3.037   3.568   2.228 -0.2118  0.1582  0.5486
14511TIP3    H165024   3.034   3.662   2.246  0.2667  0.4814 -0.9644
14511TIP3    H265025   2.999   3.528   2.306 -1.7600  1.6757  0.6231
14512TIP3   OH265026   5.286   2.398   0.297  0.1773  0.0825  0.1252
14512TIP3    H165027   5.231   2.443   0.361 -0.5590 -1.4492  0.6013
14512TIP3    H265028   5.344   2.342   0.349 -1.0957 -1.9199 -0.5317
14513TIP3   OH265029   3.381   4.369   5.123 -0.2012  0.3589 -0.8481
14513TIP3    H165030   3.336   4.416   5.193  0.1739  1.2214 -1.1800
14513TIP3    H265031   3.320   4.300   5.097 -0.6812  0.5538 -0.2387
14514TIP3   OH265032   5.259   4.210   5.043  0.0459  0.7594 -0.1041
14514TIP3    H165033   5.333   4.261   5.012  0.3462 -0.4924 -1.5008
14514TIP3    H265034   5.295   4.123   5.060 -0.7962  0.5461  0.6322
14515TIP3   OH265035   4.830   2.447   5.371 -0.4234 -0.2635  0.2735
14515TIP3    H165036   4.784   2.528   5.395 -1.3295 -0.7018  0.0122
14515TIP3    H265037   4.779   2.377   5.411 -0.1138 -0.7710 -0.2118
14516TIP3   OH265038   3.930   4.699  15.928 -0.4727 -0.2466  0.1476
14516TIP3    H165039   4.021   4.694  15.957  0.3413 -0.8781 -2.3289
14516TIP3    H265040   3.888   4.621  15.965  0.1464 -0.2512  0.8389
14517TIP3   OH265041   6.698   0.147   0.285  0.0559 -0.0039  0.7177
14517TIP3    H165042   6.793   0.150   0.288  0.0946 -0.8204  0.3770
14517TIP3    H265043   6.675   0.062   0.321 -0.4183 -0.8466 -1.4902
14518TIP3   OH265044   4.772   0.536  14.650  0.5746 -0.2126  0.1689
14518TIP3    H165045   4.848   0.588  14.675 -1.1030  1.1357  2.8017
14518TIP3    H265046   4.707   0.601  14.622 -0.8762 -0.9992  1.6116
14519TIP3   OH265047   6.578   1.458  12.087 -0.1979  0.4767 -0.1376
14519TIP3    H165048   6.592   1.377  12.038 -2.3155 -0.3630  0.6104
14519TIP3    H265049   6.492   1.488  12.060 -1.4719 -0.0640  3.1060
14520TIP3   OH265050   3.834   2.710   3.173  0.4921  0.6752 -0.1954
14520TIP3    H165051   3.780   2.697   3.251  0.0175  0.5189 -0.5508
14520TIP3    H265052   3.789   2.661   3.104  0.1816  1.9085 -0.8842
14521TIP3   OH265053   3.642   4.268  13.310  0.6356 -0.0978  0.7280
14521TIP3    H165054   3.703   4.288  13.381  1.2408 -0.6645  0.3663
14521TIP3    H265055   3.643   4.346  13.254  1.5936 -0.4005  0.3181
14522TIP3   OH265056   4.436   1.304   1.263 -0.1353 -0.2807 -0.2192
14522TIP3    H165057   4.397   1.217   1.274 -0.1185 -0.1266  1.1344
14522TIP3    H265058   4.531   1.289   1.264 -0.1323 -0.2443 -0.0107
14523TIP3   OH265059   1.663   1.550  11.437  0.6980  0.6090 -0.2363
14523TIP3    H165060   1.654   1.576  11.529  1.7082  1.2245 -0.3090
14523TIP3    H265061   1.723   1.475  11.439 -0.6175 -0.4835 -0.2359
14524TIP3   OH265062   0.317   3.890   0.064 -0.0799  0.1756 -0.5378
14524TIP3    H165063   0.234   3.926   0.096  0.7992 -0.3469  2.4172
14524TIP3    H265064   0.383   3.954   0.088  0.6548 -0.3649 -1.0765
14525TIP3   OH265065   3.430   6.758   4.538 -0.0409 -0.0589 -0.2535
14525TIP3    H165066   3.517   6.732   4.566  0.3339  0.9921 -0.3968
14525TIP3    H265067   3.445   6.826   4.472 -0.9622  1.0994  0.6995
14526TIP3   OH265068   5.846   2.364  13.010  0.1373 -0.2195 -0.1926
14526TIP3    H165069   5.842   2.271  13.033 -0.9461 -0.4819 -1.3667
14526TIP3    H265070   5.772   2.404  13.056 -0.6703 -0.3417 -1.3410
14527TIP3   OH265071   4.615   0.769  14.628  0.6783  0.0093  0.0151
14527TIP3    H165072   4.600   0.826  14.553  0.9758 -0.7186 -0.6107
14527TIP3    H265073   4.661   0.824  14.691 -1.1874  1.1453  0.4121
14528TIP3   OH265074   6.406   0.767   4.446  0.5197 -0.6029 -0.0225
14528TIP3    H165075   6.424   0.761   4.352 -1.7035  2.6599 -0.7269
14528TIP3    H265076   6.428   0.857   4.469  0.0041 -1.0544  2.3615
14529TIP3   OH265077   3.279   3.071  12.269 -0.2784  0.3976  0.6195
14529TIP3    H165078   3.214   3.135  12.299 -1.7784  0.2514 -2.1316
14529TIP3    H265079   3.363   3.118  12.275 -1.0193  1.6819  1.2158
14530TIP3   OH265080   1.228   5.400  15.976 -0.5561 -0.4352 -1.0544
14530TIP3    H165081   1.209   5.373  15.886 -0.4146  0.0717 -1.2399
14530TIP3    H265082   1.323   5.415  15.977 -0.6539  0.1970 -0.9969
14531TIP3   OH265083   5.106   2.656  12.013  0.3456 -0.2762 -0.2694
14531TIP3    H165084   5.062   2.672  12.096  0.3720 -0.0244 -0.3021
14531TIP3    H265085   5.052   2.701  11.948 -0.3068 -1.4484 -0.5429
14532TIP3   OH265086   1.082   0.975   0.369 -0.7786 -0.5032 -0.3306
14532TIP3    H165087   0.999   0.928   0.363 -0.7990 -0.3279 -1.6138
14532TIP3    H265088   1.113   0.980   0.279  0.1358  0.3083  0.0192
14533TIP3   OH265089   3.345   6.118  14.283  0.4448 -0.1393 -0.2258
14533TIP3    H165090   3.333   6.023  14.272 -0.2472 -0.1310  0.4060
14533TIP3    H265091   3.312   6.156  14.202 -0.1618 -0.3768 -0.0939
14534TIP3   OH265092   3.880   2.346  16.464  0.2885  0.3551 -0.0237
14534TIP3    H165093   3.897   2.285  16.392  1.0368  0.2220  0.2548
14534TIP3    H265094   3.964   2.391  16.477 -0.2720  1.4782 -0.2574
14535TIP3   OH265095   2.892   5.791  15.684  0.0080  0.2111  0.5696
14535TIP3    H165096   2.962   5.772  15.747 -0.2618 -0.6600  0.6180
14535TIP3    H265097   2.876   5.708  15.640 -0.2869  0.6552 -0.1693
14536TIP3   OH265098   0.588   5.739   5.752  0.6506  0.1249  0.2619
14536TIP3    H165099   0.547   5.801   5.692  2.5270 -0.1851 -1.4079
14536TIP3    H265100   0.515   5.696   5.797 -0.7148  2.0867 -0.0302
14537TIP3   OH265101   4.008   4.500   0.133 -0.2199  0.0256  0.1734
14537TIP3    H165102   4.104   4.495   0.127 -0.2149  1.0593 -0.7628
14537TIP3    H265103   3.991   4.587   0.168 -0.8372  0.1300 -0.3776
14538TIP3   OH265104   0.513   1.845   6.016  0.1570  0.1802 -0.6353
14538TIP3    H165105   0.437   1.903   6.023 -0.7318 -0.9846 -0.5613
14538TIP3    H265106   0.586   1.898   6.047 -0.7752  0.9947  0.2081
14539TIP3   OH265107   1.541   1.612  12.409  0.6215  0.1462  0.3858
14539TIP3    H165108   1.508   1.529  12.443  0.5976  0.4027  0.9783
14539TIP3    H265109   1.467   1.649  12.359  0.7012 -0.2852 -0.0601
14540TIP3   OH265110   6.401   0.115   1.981  0.3095 -0.3281  0.3919
14540TIP3    H165111   6.384   0.115   1.886 -0.6788  0.5123  0.5627
14540TIP3    H265112   6.377   0.027   2.009 -2.6705  0.4588  0.4211
14541TIP3   OH265113   4.997   3.290   6.344 -0.2365  0.0476  0.3267
14541TIP3    H165114   5.061   3.361   6.343  1.5872 -1.5453  1.4229
14541TIP3    H265115   4.987   3.269   6.437  0.7178 -2.4141 -0.0951
14542TIP3   OH265116   5.884   4.238  15.469 -0.3203  0.7285 -0.4356
14542TIP3    H165117   5.936   4.158  15.474  0.3353  1.1647 -0.0418
14542TIP3    H265118   5.942   4.301  15.426 -1.0737  0.8055 -1.3469
14543TIP3   OH265119   1.481   3.927  14.415 -0.5667 -0.9421 -0.0289
14543TIP3    H165120   1.562   3.878  14.429 -1.0151 -1.7661 -0.2980
14543TIP3    H265121   1.413   3.874  14.458 -1.1349 -0.8358 -0.7810
14544TIP3   OH265122   2.918   1.965  12.425 -0.1049 -0.4435  0.5295
14544TIP3    H165123   2.879   1.970  12.513 -1.8781 -0.9656 -0.1940
14544TIP3    H265124   2.848   1.995  12.367  1.2533  0.4404 -0.6633
14545TIP3   OH265125   2.764   5.751  13.820 -0.3745  0.2061  0.5137
14545TIP3    H165126   2.743   5.740  13.728  0.0109  0.4427  0.3965
14545TIP3    H265127   2.755   5.663  13.858 -0.9225  0.1847  0.3323
14546TIP3   OH265128   3.699   4.552   4.032 -0.2976 -0.1632  0.3044
14546TIP3    H165129   3.743   4.526   3.951 -1.0797  1.0474 -0.5051
14546TIP3    H265130   3.617   4.503   4.031 -0.1811 -0.3709  0.5305
14547TIP3   OH265131   4.279   6.471   0.932  0.5341 -0.0062 -0.4057
14547TIP3    H165132   4.199   6.523   0.937  1.9917  2.2090  1.1560
14547TIP3    H265133   4.281   6.438   0.842 -0.8985  1.9271 -1.1872
14548TIP3   OH265134   5.211   5.498   5.278 -0.3758  0.1698  0.1487
14548TIP3    H165135   5.204   5.590   5.252 -0.8328 -0.0625 -0.5629
14548TIP3    H265136   5.265   5.458   5.210 -0.7215 -0.2288  0.1111
14549TIP3   OH265137   6.348   4.693   3.457 -0.0958 -0.3544 -0.3089
14549TIP3    H165138   6.366   4.602   3.484 -0.3859 -0.2728  0.1748
14549TIP3    H265139   6.412   4.711   3.389  1.0471 -0.3907  0.7237
14550TIP3   OH265140   1.603   0.072   0.663 -0.0672 -0.5821 -0.0958
14550TIP3    H165141   1.664   0.126   0.712  0.4608 -0.3023 -1.0377
14550TIP3    H265142   1.590   0.120   0.581 -1.0560 -0.9539 -0.1661
14551TIP3   OH265143   4.948   2.732  11.796 -0.3282  0.4812  0.3596
14551TIP3    H165144   5.030   2.761  11.756 -0.2147  1.7834  1.4940
14551TIP3    H265145   4.898   2.692  11.724  0.2943  1.8529 -0.8499
14552TIP3   OH265146   5.111   6.431  16.024  0.3652  0.6872 -0.4417
14552TIP3    H165147   5.085   6.357  15.969 -0.6523  1.3011 -0.8018
14552TIP3    H265148   5.197   6.458  15.989  0.7917 -0.3888 -0.2273
14553TIP3   OH265149   1.162   6.768  13.478  0.9559 -0.2111 -0.0864
14553TIP3    H165150   1.102   6.709  13.433 -0.8264 -0.4969  2.5380
14553TIP3    H265151   1.133   6.856  13.452 -0.3709 -0.3602  0.8206
14554TIP3   OH265152   6.007   6.206  12.607  0.3339  0.1357 -0.8978
14554TIP3    H165153   5.988   6.292  12.646  1.0965 -0.9933  2.1164
14554TIP3    H265154   5.926   6.156  12.619  1.7213 -1.3899  2.6775
14555TIP3   OH265155   2.715   2.962  11.477  0.4248  0.3995 -0.5759
14555TIP3    H165156   2.664   2.910  11.414  0.1911  0.6089 -0.5623
14555TIP3    H265157   2.650   2.991  11.541  1.0245 -1.7154  1.0450
14556TIP3   OH265158   4.567   6.793  10.929 -0.6035 -0.3793  0.2241
14556TIP3    H165159   4.485   6.757  10.896 -1.0918 -0.0511  1.0645
14556TIP3    H265160   4.540   6.863  10.988  0.2780 -0.4470  0.7090
14557TIP3   OH265161   3.401   3.895   5.525 -0.3058  0.8141  0.0648
14557TIP3    H165162   3.360   3.898   5.611  0.0081 -2.0088  0.3491
14557TIP3    H265163   3.493   3.917   5.541 -0.2179  0.1653  0.5023
14558TIP3   OH265164   3.673   1.326  13.747 -0.2789 -0.2891  0.5447
14558TIP3    H165165   3.702   1.417  13.752  0.7749 -0.6168  0.6126
14558TIP3    H265166   3.748   1.279  13.710 -0.4778 -1.2669  1.3589
14559TIP3   OH265167   3.298   2.839  11.242  0.1777 -0.0063  0.2601
14559TIP3    H165168   3.328   2.788  11.167  0.0775 -2.1632  1.6313
14559TIP3    H265169   3.339   2.924  11.231 -0.8087  0.1303 -2.8733
14560TIP3   OH265170   1.737   4.910  12.994 -0.6183  0.1103  0.1938
14560TIP3    H165171   1.659   4.857  12.976  0.9415 -1.7672 -1.2492
14560TIP3    H265172   1.791   4.855  13.050  0.6947  0.4364 -0.7166
14561TIP3   OH265173   5.874   2.225   3.769 -0.0318  0.4375 -0.7536
14561TIP3    H165174   5.898   2.183   3.851 -0.2262  0.3525 -0.7405
14561TIP3    H265175   5.934   2.299   3.761  0.9437 -0.3853 -1.2447
14562TIP3   OH265176   6.494   1.237   3.150  0.4915  0.9465 -0.6339
14562TIP3    H165177   6.541   1.160   3.181  1.8251  2.1653  0.4081
14562TIP3    H265178   6.519   1.246   3.058  1.4726  0.9762 -0.3646
14563TIP3   OH265179   1.115   1.292   2.489  0.4260  0.2603 -0.3325
14563TIP3    H165180   1.024   1.319   2.473  0.6070  0.7420 -0.5493
14563TIP3    H265181   1.111   1.196   2.489 -0.1479  0.2791  0.0464
14564TIP3   OH265182   0.908   1.210  15.027 -0.0279  0.1295 -0.5913
14564TIP3    H165183   0.883   1.246  15.113 -0.3671  0.2865 -0.7556
14564TIP3    H265184   1.000   1.183  15.038 -0.3697 -0.7652  0.1116
14565TIP3   OH265185   0.767   4.146  10.951  0.2817 -0.0837 -0.1333
14565TIP3    H165186   0.862   4.149  10.938  0.4027  1.4242  1.0407
14565TIP3    H265187   0.733   4.203  10.882  0.2375 -0.3033 -0.2961
14566TIP3   OH265188   0.741   4.915   2.464 -0.6669 -0.1280  0.3092
14566TIP3    H165189   0.762   4.968   2.387  0.0744 -0.0868  0.5297
14566TIP3    H265190   0.682   4.847   2.432  1.2379 -1.3557 -0.7372
14567TIP3   OH265191   6.203   2.582   4.566  0.2110 -0.4009  0.0997
14567TIP3    H165192   6.231   2.494   4.541  2.5812  0.2070  0.5193
14567TIP3    H265193   6.284   2.632   4.574 -1.2187  2.5278 -2.6425
14568TIP3   OH265194   1.469   4.959   5.937  0.2230  0.3397  0.6572
14568TIP3    H165195   1.464   5.052   5.915 -2.8140  0.0541 -0.1023
14568TIP3    H265196   1.454   4.955   6.031 -4.2700  0.3643  0.0358
14569TIP3   OH265197   1.146   1.682  14.715  0.2593  0.2572  0.4111
14569TIP3    H165198   1.216   1.622  14.689  0.4431  0.8000 -0.3647
14569TIP3    H265199   1.164   1.701  14.807  0.5636 -0.3795  0.4866
14570TIP3   OH265200   0.889   0.730  12.788  0.2768 -0.0986  0.2929
14570TIP3    H165201   0.903   0.815  12.747  2.4079 -0.4995  0.1408
14570TIP3    H265202   0.802   0.702  12.757 -0.2012  1.7519 -0.0805
14571TIP3   OH265203   3.699   3.440   0.505 -0.5085  0.0475 -0.0598
14571TIP3    H165204   3.649   3.379   0.560 -1.8090  0.1112 -1.1196
14571TIP3    H265205   3.684   3.409   0.416 -1.0337  1.7763 -0.6077
14572TIP3   OH265206   5.381   3.688  14.686  0.2651 -0.2216 -0.5807
14572TIP3    H165207   5.340   3.629  14.622  1.9963 -1.5674 -0.4906
14572TIP3    H265208   5.455   3.726  14.639  2.1618 -1.9886  0.9117
14573TIP3   OH265209   4.948   0.235   3.869  0.2194  0.5908 -0.0793
14573TIP3    H165210   4.904   0.222   3.785 -0.2776 -1.9293  0.5236
14573TIP3    H265211   5.040   0.219   3.852 -0.0609 -1.3542  0.1118
14574TIP3   OH265212   2.183   3.098   2.435 -0.1398 -0.3974 -0.8283
14574TIP3    H165213   2.128   3.037   2.386 -0.2719 -0.5820 -0.4483
14574TIP3    H265214   2.243   3.042   2.484 -2.1427 -0.3389  1.7875
14575TIP3   OH265215   2.335   3.331  14.961 -0.0127  0.0540 -0.7631
14575TIP3    H165216   2.411   3.383  14.937 -0.8776  0.9292 -1.6219
14575TIP3    H265217   2.372   3.246  14.988  1.5950  1.7497  2.7477
14576TIP3   OH265218   5.965   2.126   0.785  0.0854 -0.6774 -0.2927
14576TIP3    H165219   6.035   2.162   0.730  0.3708 -1.5815 -0.5168
14576TIP3    H265220   5.995   2.038   0.809 -0.1954 -0.4354  1.0187
14577TIP3   OH265221   5.957   3.944  12.180  0.2436 -0.0836 -0.3417
14577TIP3    H165222   5.916   3.858  12.166  2.4390 -0.9724 -1.5720
14577TIP3    H265223   5.953   3.957  12.275 -0.7262 -1.2115 -0.2050
14578TIP3   OH265224   5.276   2.296   1.320 -0.2826  0.2630 -0.3977
14578TIP3    H165225   5.215   2.369   1.315 -0.3977  0.3856  2.0581
14578TIP3    H265226   5.362   2.337   1.328 -0.1177  0.1058 -1.3269
14579TIP3   OH265227   4.261   4.379  13.703 -0.1925 -0.1573 -0.0960
14579TIP3    H165228   4.209   4.312  13.660 -0.0390  0.6823 -1.6074
14579TIP3    H265229   4.349   4.341  13.710 -0.3425 -0.4953 -0.0370
14580TIP3   OH265230   6.664   0.651   3.221  0.0248  0.1450 -0.5101
14580TIP3    H165231   6.723   0.725   3.207 -0.0209  0.2077 -0.3808
14580TIP3    H265232   6.680   0.593   3.147  0.0727  0.2773 -0.6040
14581TIP3   OH265233   1.383   6.141   6.141 -0.0867  0.0309  0.3822
14581TIP3    H165234   1.430   6.177   6.216  0.9468 -1.7843  0.6401
14581TIP3    H265235   1.302   6.106   6.178 -0.6496  1.2035  0.2771
14582TIP3   OH265236   0.387   4.762  17.267  0.8664  0.2707  0.2888
14582TIP3    H165237   0.384   4.829  17.335 -2.0876  0.8868 -0.3882
14582TIP3    H265238   0.456   4.791  17.207  0.5715  1.9664  0.7479
14583TIP3   OH265239   3.378   1.484  16.456  0.4576 -0.5456 -0.1641
14583TIP3    H165240   3.317   1.558  16.462  0.4388 -0.5560 -0.2248
14583TIP3    H265241   3.331   1.419  16.403  0.5328 -0.5429 -0.2347
14584TIP3   OH265242   5.771   5.372   1.855  0.2072 -0.1156 -0.6049
14584TIP3    H165243   5.729   5.300   1.808 -0.8810  0.3769 -0.4144
14584TIP3    H265244   5.837   5.330   1.909  1.2683 -0.7267 -2.3258
14585TIP3   OH265245   3.477   2.786  15.586  0.5723 -0.2845 -0.1736
14585TIP3    H165246   3.520   2.707  15.620  0.8147 -0.2302 -0.3564
14585TIP3    H265247   3.547   2.851  15.580 -0.0101  0.5820  1.9182
14586TIP3   OH265248   5.816   4.188  13.334  0.5814  0.1227 -0.2223
14586TIP3    H165249   5.740   4.198  13.392 -0.3650  0.4338 -1.4885
14586TIP3    H265250   5.874   4.127  13.380  0.6853  1.7470  1.8893
14587TIP3   OH265251   0.580   5.183   2.079 -0.2019  0.4570 -0.5357
14587TIP3    H165252   0.498   5.152   2.041 -0.8386  0.4628  0.8259
14587TIP3    H265253   0.558   5.267   2.119  0.5787  0.6742 -0.5549
14588TIP3   OH265254   0.872   5.518   0.178 -1.0639 -0.0032 -0.4313
14588TIP3    H165255   0.783   5.550   0.187 -1.4722 -1.0357 -0.7139
14588TIP3    H265256   0.927   5.594   0.197 -1.9897  0.3609  0.8803
14589TIP3   OH265257   4.621   3.931   0.796 -0.1576 -0.6726  0.0533
14589TIP3    H165258   4.568   3.889   0.863  0.0997 -0.7665  0.1997
14589TIP3    H265259   4.564   3.936   0.719 -0.2005 -1.2462  0.0504
14590TIP3   OH265260   3.966   1.247  11.350 -0.3378  0.2821 -0.1035
14590TIP3    H165261   3.951   1.254  11.444 -2.7435 -0.1043 -0.4064
14590TIP3    H265262   4.012   1.164  11.339  0.6912  0.7156  0.7822
14591TIP3   OH265263   5.541   6.301   1.847 -0.3734 -0.6333  0.0247
14591TIP3    H165264   5.557   6.212   1.815  0.7043 -1.0589  1.6397
14591TIP3    H265265   5.453   6.298   1.885 -0.0308 -1.2363  0.7826
14592TIP3   OH265266   6.626   4.281   2.065  0.4484 -0.4533 -0.1454
14592TIP3    H165267   6.674   4.241   2.137 -3.0272 -1.7609  1.5563
14592TIP3    H265268   6.651   4.229   1.988  2.4613 -0.4824  0.4981
14593TIP3   OH265269   3.747   5.479   4.825 -0.5157  0.2798 -0.0584
14593TIP3    H165270   3.686   5.531   4.878 -1.1354 -0.5911  0.0846
14593TIP3    H265271   3.706   5.393   4.818 -0.3334  0.3217 -1.7794
14594TIP3   OH265272   5.153   5.044   2.643 -0.6371 -0.0935  0.4163
14594TIP3    H165273   5.208   5.045   2.565 -0.4225 -0.8307  0.5538
14594TIP3    H265274   5.165   4.957   2.680 -2.4146 -0.5145  0.0616
14595TIP3   OH265275   1.540   3.277  12.541 -0.5830  0.0969 -0.4715
14595TIP3    H165276   1.499   3.242  12.620  1.0138 -1.9592 -0.5108
14595TIP3    H265277   1.630   3.245  12.544 -0.7150 -0.7183 -3.5106
14596TIP3   OH265278   1.079   6.545  11.653  0.6083 -0.1868 -1.0825
14596TIP3    H165279   1.013   6.613  11.669  1.7256  0.4755  0.9590
14596TIP3    H265280   1.152   6.592  11.613  1.2214 -0.2235 -0.0424
14597TIP3   OH265281   3.839   3.085  13.520  0.0025  0.0188 -0.3892
14597TIP3    H165282   3.881   3.117  13.441 -0.7607 -0.4511 -0.9957
14597TIP3    H265283   3.885   3.003  13.541  0.6547  0.4944  0.0424
14598TIP3   OH265284   1.716   2.426  16.569 -0.4403 -0.4142  0.1197
14598TIP3    H165285   1.807   2.450  16.553 -0.5921  0.2943  0.3247
14598TIP3    H265286   1.721   2.336  16.601  0.2951  0.0529  1.3530
14599TIP3   OH265287   2.934   4.504  13.598  0.0260 -0.2498 -0.2650
14599TIP3    H165288   2.863   4.448  13.630  0.7784 -1.1889 -0.2046
14599TIP3    H265289   2.997   4.443  13.559  0.8843  0.5465 -0.1486
14600TIP3   OH265290   5.277   4.332   3.056 -0.3643  0.3545  0.0723
14600TIP3    H165291   5.362   4.312   3.017  0.9027  1.4919  2.1468
14600TIP3    H265292   5.290   4.319   3.150 -2.0793  1.8514  0.5443
14601TIP3   OH265293   5.531   1.445   2.683 -0.9550 -0.1878  0.0392
14601TIP3    H165294   5.561   1.379   2.621 -0.6630 -0.3365  0.3309
14601TIP3    H265295   5.468   1.400   2.739 -1.8825  0.1803 -0.7018
14602TIP3   OH265296   0.088   1.352   5.839 -0.5598  0.1141  0.3122
14602TIP3    H165297   0.004   1.393   5.819  0.0331  1.3875  0.3565
14602TIP3    H265298   0.152   1.407   5.793  0.1664 -1.4506 -0.5977
14603TIP3   OH265299   1.410   2.451   6.274 -0.0365 -0.3503 -0.3307
14603TIP3    H165300   1.378   2.361   6.281  0.9861 -0.6020  1.5062
14603TIP3    H265301   1.491   2.451   6.326  0.2440  1.4980 -0.7543
14604TIP3   OH265302   2.158   5.859   5.632  0.1006  0.1563  0.0441
14604TIP3    H165303   2.159   5.799   5.558  1.2717 -0.5544  0.6101
14604TIP3    H265304   2.199   5.939   5.600  0.5023 -0.1109 -0.1010
14605TIP3   OH265305   0.274   0.032  16.059  0.0879  0.6520 -0.2605
14605TIP3    H165306   0.334  -0.001  15.992  0.3083 -2.2623  1.2763
14605TIP3    H265307   0.305  -0.008  16.141 -2.7475  0.6501  0.8706
14606TIP3   OH265308   5.493   6.743  14.063  0.4560 -0.1806  0.6920
14606TIP3    H165309   5.567   6.727  14.005  0.3304 -1.9837  1.0041
14606TIP3    H265310   5.419   6.755  14.005  0.8431  0.8399  0.4016
14607TIP3   OH265311   2.364   1.990  15.574  0.2955  0.2052 -0.5164
14607TIP3    H165312   2.330   2.058  15.632  0.4897  1.3533 -1.7327
14607TIP3    H265313   2.286   1.951  15.535  0.1664 -0.5386  0.4661
14608TIP3   OH265314   2.578   6.764  15.567 -0.4053  0.6240 -0.2137
14608TIP3    H165315   2.588   6.748  15.661  1.8045 -1.2488 -0.7252
14608TIP3    H265316   2.591   6.859  15.558 -0.6259  0.8156  1.3654
14609TIP3   OH265317   1.855   0.715  11.753  0.0286 -0.0670 -0.4352
14609TIP3    H165318   1.926   0.776  11.730 -1.3756  1.8401  0.1542
14609TIP3    H265319   1.839   0.666  11.672  2.3837 -0.9226 -0.4198
14610TIP3   OH265320   1.125   0.141  11.741 -0.4204  0.1402 -0.1116
14610TIP3    H165321   1.112   0.228  11.779 -0.7653  0.6637 -1.4131
14610TIP3    H265322   1.212   0.145  11.700 -0.7398  0.1179 -0.8046
14611TIP3   OH265323   4.317   0.041  13.322  0.1947 -0.4445  0.1553
14611TIP3    H165324   4.338   0.001  13.237  0.3756 -0.6545  0.2990
14611TIP3    H265325   4.230   0.078  13.310 -0.2288 -1.4219  0.2106
14612TIP3   OH265326   1.902   5.032   5.255 -0.4517 -0.2090 -0.1927
14612TIP3    H165327   1.908   4.998   5.345  0.1041  0.6734  0.1071
14612TIP3    H265328   1.986   5.012   5.216 -1.0316 -1.4379 -0.8247
14613TIP3   OH265329   0.668   2.970   2.325  0.2686 -0.1917  0.2505
14613TIP3    H165330   0.655   2.935   2.238 -0.0382  0.6372 -0.0494
14613TIP3    H265331   0.589   3.023   2.341  1.0893  1.0392  0.3345
14614TIP3   OH265332   5.378   4.408  11.273 -0.0223  0.6011 -0.4396
14614TIP3    H165333   5.389   4.315  11.293 -1.1096  1.2239  3.3057
14614TIP3    H265334   5.303   4.411  11.214 -1.8387 -0.7039  1.7412
14615TIP3   OH265335   3.515   1.114  17.185 -0.1238 -0.4479 -0.2995
14615TIP3    H165336   3.557   1.101  17.269 -1.1621 -1.1299  0.1270
14615TIP3    H265337   3.586   1.139  17.126  0.1777  3.2146  1.4622
14616TIP3   OH265338   5.360   6.107   1.465 -0.1673 -0.5980 -0.0361
14616TIP3    H165339   5.312   6.146   1.538 -0.4283 -0.4689 -0.2790
14616TIP3    H265340   5.303   6.118   1.389  0.7634  0.6621 -0.5700
14617TIP3   OH265341   5.747   5.245  11.718 -0.2362 -0.1728 -0.2286
14617TIP3    H165342   5.826   5.191  11.716  0.3311  0.6060  0.7593
14617TIP3    H265343   5.713   5.240  11.628  2.0828  1.1268 -1.2496
14618TIP3   OH265344   4.313   1.906  13.016  0.8451  0.4497  0.4676
14618TIP3    H165345   4.251   1.864  13.077  0.2344  0.7016  0.0309
14618TIP3    H265346   4.258   1.933  12.942  1.6531 -0.2613 -0.4046
14619TIP3   OH265347   5.190   5.330  16.365 -0.1442 -0.2874  0.1287
14619TIP3    H165348   5.152   5.363  16.447  1.0948 -0.8832  0.9647
14619TIP3    H265349   5.270   5.285  16.393 -0.2717 -1.4316 -1.3064
14620TIP3   OH265350   5.220   1.321   5.858 -0.8278  0.3270  0.3181
14620TIP3    H165351   5.286   1.345   5.793  0.1560  1.7794  1.7999
14620TIP3    H265352   5.270   1.279   5.928 -1.8442 -0.9786  0.2819
14621TIP3   OH265353   3.449   3.400  17.098 -0.0405 -0.1041  0.3060
14621TIP3    H165354   3.425   3.451  17.021  1.0120 -2.4350 -1.6303
14621TIP3    H265355   3.369   3.394  17.149 -0.7424  1.4879 -0.5769
14622TIP3   OH265356   4.110   0.698   2.602  0.0717  0.3856 -0.5299
14622TIP3    H165357   4.172   0.751   2.552  1.4142 -1.6467 -1.0850
14622TIP3    H265358   4.146   0.696   2.691 -1.0500  2.0236 -0.0143
14623TIP3   OH265359   1.895   3.757  16.915  0.0685 -0.3192  0.2371
14623TIP3    H165360   1.926   3.766  17.005  4.3087 -0.6229 -1.0392
14623TIP3    H265361   1.869   3.665  16.908 -2.8981  0.3561  1.8363
14624TIP3   OH265362   4.579   0.937  11.536  0.0092  0.0512  0.5787
14624TIP3    H165363   4.483   0.932  11.528  0.0844  0.9472 -1.2712
14624TIP3    H265364   4.597   1.031  11.541  0.8246 -0.0858  0.2182
14625TIP3   OH265365   4.253   4.640   5.334  0.2218  0.2130  0.0079
14625TIP3    H165366   4.263   4.621   5.428  1.5654 -1.8027 -0.5069
14625TIP3    H265367   4.342   4.636   5.299 -0.1356  2.0974 -1.1698
14626TIP3   OH265368   6.128   1.915  11.470 -0.4800  0.3253  0.1330
14626TIP3    H165369   6.145   1.957  11.386 -0.0496  1.0666  0.5867
14626TIP3    H265370   6.100   1.826  11.447 -1.0371  0.7390 -0.8173
14627TIP3   OH265371   1.919   3.155  12.149  0.5445 -0.1245  0.1192
14627TIP3    H165372   1.953   3.204  12.224  0.7165 -2.3551  1.5622
14627TIP3    H265373   1.826   3.146  12.166  0.6115 -0.7759  0.1742
14628TIP3   OH265374   0.418   3.932  11.249 -0.4021 -0.2329 -0.1123
14628TIP3    H165375   0.503   3.949  11.208 -0.5080  0.1932 -0.1624
14628TIP3    H265376   0.354   3.947  11.179 -0.3904 -2.9144 -0.7343
14629TIP3   OH265377   6.108   6.029   2.206  0.2384 -0.2786 -0.0349
14629TIP3    H165378   6.175   5.973   2.167  1.7805  0.0310  2.0670
14629TIP3    H265379   6.127   6.116   2.170 -0.3210 -0.5460 -1.0051
14630TIP3   OH265380   4.804   4.166   2.852  0.4400  0.3979  0.5338
14630TIP3    H165381   4.816   4.089   2.908  2.3474  1.0733  1.0857
14630TIP3    H265382   4.893   4.191   2.827 -0.1801  2.3484  0.2653
14631TIP3   OH265383   4.663   3.024  10.826  0.6029 -0.0323 -0.5575
14631TIP3    H165384   4.751   3.030  10.790  0.7724 -1.3632 -0.3993
14631TIP3    H265385   4.633   2.936  10.803  0.4661 -0.6861  1.9547
14632TIP3   OH265386   0.958   1.869  11.868 -0.2764 -0.3544 -0.0871
14632TIP3    H165387   0.880   1.901  11.913 -0.6150  0.0316 -0.9511
14632TIP3    H265388   0.928   1.792  11.819  0.1892 -1.0419  0.6784
14633TIP3   OH265389   6.668   4.749   1.275 -0.4282 -0.0362  0.1866
14633TIP3    H165390   6.706   4.828   1.311  1.1820 -0.6000 -0.2516
14633TIP3    H265391   6.736   4.713   1.218 -1.1865 -1.6703  0.2863
14634TIP3   OH265392   2.620   5.053   1.627  0.2554 -0.1764 -0.9518
14634TIP3    H165393   2.629   5.098   1.543 -0.8161 -0.3972 -1.1795
14634TIP3    H265394   2.613   4.961   1.605 -0.2506 -0.2153 -0.6280
14635TIP3   OH265395   3.935   2.158   2.608  0.1464 -0.7351  0.1007
14635TIP3    H165396   3.873   2.085   2.617  0.7890 -1.4178 -0.9622
14635TIP3    H265397   3.986   2.156   2.689 -1.6188  0.2436  1.2961
14636TIP3   OH265398   3.094   0.818  13.474  0.0446  0.7377 -0.0768
14636TIP3    H165399   3.171   0.814  13.418 -1.0409  1.0694 -1.6190
14636TIP3    H265400   3.092   0.909  13.504  0.2412  0.7310 -0.0407
14637TIP3   OH265401   1.502   1.571   1.014 -0.5532 -0.3814  0.1761
14637TIP3    H165402   1.537   1.608   0.932 -1.0305  2.0785  1.0384
14637TIP3    H265403   1.412   1.604   1.018 -0.5109 -0.4187  1.7198
14638TIP3   OH265404   1.791   5.832  13.095  0.2070 -0.0201  0.0063
14638TIP3    H165405   1.814   5.768  13.162 -1.1748  0.8997  1.3801
14638TIP3    H265406   1.700   5.813  13.073  0.1544  0.7212 -0.4400
14639TIP3   OH265407   5.302   6.315  11.565 -0.3748  0.0810 -0.2235
14639TIP3    H165408   5.299   6.410  11.568 -0.2535  0.2180 -3.0794
14639TIP3    H265409   5.385   6.292  11.607 -0.2115  1.2628  0.1109
14640TIP3   OH265410   5.079   4.052  14.260  0.1467 -0.1514 -0.4990
14640TIP3    H165411   5.096   3.972  14.210 -0.2398 -0.1958 -0.5633
14640TIP3    H265412   5.086   4.122  14.195 -1.8607 -0.3276 -0.9661
14641TIP3   OH265413   2.258   6.208   5.779  0.7406 -0.3321 -0.0038
14641TIP3    H165414   2.347   6.231   5.805  1.1538  0.8784 -2.3850
14641TIP3    H265415   2.267   6.173   5.691 -1.0009 -1.3793  0.2127
14642TIP3   OH265416   5.954   6.778  13.036  0.2593 -0.3092 -0.0849
14642TIP3    H165417   6.014   6.759  12.964  0.6051  0.4324  0.0014
14642TIP3    H265418   5.873   6.734  13.013  0.3060  0.0955 -1.0209
14643TIP3   OH265419   6.733   1.939  13.411 -0.1334  0.0403 -0.8287
14643TIP3    H165420   6.752   1.845  13.414  1.6815  0.4736  2.7434
14643TIP3    H265421   6.647   1.946  13.453 -0.6509 -0.0805 -1.8464
14644TIP3   OH265422   3.397   5.002  14.025  0.1224  0.1153 -0.3201
14644TIP3    H165423   3.331   5.023  13.959 -0.7077 -0.1945  0.4131
14644TIP3    H265424   3.458   5.076  14.021 -0.6371  0.7434 -0.5160
14645TIP3   OH265425   4.031   5.491  15.471 -0.3640 -0.2218  0.1541
14645TIP3    H165426   4.001   5.486  15.380 -0.5003 -0.1574  0.1957
14645TIP3    H265427   4.087   5.414  15.482  2.0853  1.3475 -0.8781
14646TIP3   OH265428   2.123   6.407  11.291 -0.3538 -0.7859 -0.1179
14646TIP3    H165429   2.081   6.486  11.324 -1.1534 -0.9420 -0.7624
14646TIP3    H265430   2.216   6.419  11.311 -0.6302 -0.2205  0.8594
14647TIP3   OH265431   0.990   5.170  14.860 -0.2259 -0.3900  0.4908
14647TIP3    H165432   1.077   5.211  14.852 -0.3644 -0.1328  0.2941
14647TIP3    H265433   1.008   5.081  14.890  0.0259  0.1123  1.8681
14648TIP3   OH265434   3.613   1.613  10.815  0.2237  0.2746 -0.3071
14648TIP3    H165435   3.592   1.521  10.834 -1.3861  0.7957  0.5558
14648TIP3    H265436   3.532   1.648  10.777  0.9307  1.2545 -0.9243
14649TIP3   OH265437   5.621   5.465  11.788 -0.4972 -0.0617  0.0282
14649TIP3    H165438   5.656   5.377  11.775  0.8344  0.7146 -2.0112
14649TIP3    H265439   5.596   5.494  11.700  0.2632  2.0368  0.4574
14650TIP3   OH265440   1.660   5.383  11.617  0.0223 -0.4749 -0.0862
14650TIP3    H165441   1.601   5.420  11.682 -0.8472 -0.7368 -0.7238
14650TIP3    H265442   1.611   5.385  11.535  0.6994 -1.1628 -0.5214
14651TIP3   OH265443   5.030   1.410   4.881 -0.1023  0.1311 -0.0985
14651TIP3    H165444   4.950   1.358   4.878 -0.0090  0.0737 -1.9235
14651TIP3    H265445   5.007   1.485   4.937 -1.9789  1.0139 -1.9883
14652TIP3   OH265446   3.010   0.669   2.559  0.2066  0.1662  0.1762
14652TIP3    H165447   2.984   0.622   2.479 -0.0868  1.6074 -0.5972
14652TIP3    H265448   2.928   0.685   2.605  0.0440  1.7644 -0.6157
14653TIP3   OH265449   5.798   1.409  14.687 -0.1513  0.3056 -0.8806
14653TIP3    H165450   5.768   1.442  14.602 -2.3488 -1.9363 -1.0330
14653TIP3    H265451   5.847   1.330  14.666  0.7308  0.6407 -0.1435
14654TIP3   OH265452   1.722   1.701  17.275 -0.0093  0.7005  0.5563
14654TIP3    H165453   1.745   1.700  17.182 -2.2159  0.6627 -0.0156
14654TIP3    H265454   1.793   1.654  17.318  0.2460 -0.6786 -1.3181
14655TIP3   OH265455   5.001   6.005  11.889 -0.1025 -0.0713  1.0391
14655TIP3    H165456   5.077   6.028  11.943  0.2000 -0.3977  0.7544
14655TIP3    H265457   4.928   6.004  11.950 -0.0807  1.3807  1.1183
14656TIP3   OH265458   5.353   3.177   0.659 -0.2846 -0.2675 -0.1869
14656TIP3    H165459   5.366   3.246   0.724 -0.2510 -2.2209  1.9131
14656TIP3    H265460   5.439   3.137   0.649 -0.4872 -0.5520 -0.7835
14657TIP3   OH265461   0.350   6.189   1.412  0.7543 -0.4133  0.5398
14657TIP3    H165462   0.300   6.116   1.375 -0.1335 -0.1783  1.2595
14657TIP3    H265463   0.418   6.146   1.465 -0.2649 -0.7268  1.6196
14658TIP3   OH265464   6.414   3.108   5.761  0.2396 -0.8180 -0.1058
14658TIP3    H165465   6.422   3.051   5.685 -0.0766 -1.1631  0.1155
14658TIP3    H265466   6.502   3.142   5.775  0.3851 -1.0845 -0.3755
14659TIP3   OH265467   1.362   2.521   1.231  0.2960  0.0280  0.0918
14659TIP3    H165468   1.298   2.546   1.164  2.1522  2.3392 -0.9205
14659TIP3    H265469   1.310   2.492   1.305 -1.8644 -0.1776 -1.4771
14660TIP3   OH265470   6.562   0.867  13.692 -0.0539  0.2520 -0.7588
14660TIP3    H165471   6.644   0.829  13.661  0.2354 -0.9235  1.3637
14660TIP3    H265472   6.589   0.944  13.742 -0.0951 -0.9562  1.1833
14661TIP3   OH265473   0.871   4.326  16.435 -0.4519 -0.0645  0.0531
14661TIP3    H165474   0.863   4.377  16.516  2.3420  0.5767 -0.0167
14661TIP3    H265475   0.802   4.359  16.378 -0.6304  1.4829  1.1458
14662TIP3   OH265476   4.944   3.313   2.044 -0.0034 -0.0670  0.2866
14662TIP3    H165477   4.983   3.398   2.026 -0.8507  0.3058  0.1668
14662TIP3    H265478   4.996   3.277   2.116  0.8241  0.2197 -0.1719
14663TIP3   OH265479   1.731   2.795  14.646  0.6957  0.0512  0.1117
14663TIP3    H165480   1.810   2.840  14.675  0.7349  1.4035 -1.9989
14663TIP3    H265481   1.689   2.765  14.727  1.9632  1.6805  1.3988
14664TIP3   OH265482   3.392   0.228   3.480 -0.1714  0.4359  0.3064
14664TIP3    H165483   3.458   0.180   3.530  1.5269  0.4574 -1.8532
14664TIP3    H265484   3.311   0.178   3.491  0.9764 -1.4393  0.2502
14665TIP3   OH265485   1.147   0.516  15.421 -0.0212  0.1810 -0.0188
14665TIP3    H165486   1.086   0.583  15.392 -0.4382 -0.8690 -1.6399
14665TIP3    H265487   1.202   0.559  15.486 -2.6772  1.0634  1.6968
14666TIP3   OH265488   5.256   3.712   2.185 -0.1861 -0.2352 -0.2336
14666TIP3    H165489   5.268   3.641   2.248  1.1028  1.2235  1.2138
14666TIP3    H265490   5.308   3.685   2.109 -0.8405 -1.4828 -0.2576
14667TIP3   OH265491   6.760   3.861   3.896  0.2810 -0.1606 -0.4903
14667TIP3    H165492   6.706   3.856   3.817 -2.1052  1.5439  1.0014
14667TIP3    H265493   6.779   3.954   3.907  2.3042 -0.5813 -0.1357
14668TIP3   OH265494   5.320   6.108  13.853 -0.5332 -0.1709 -0.3366
14668TIP3    H165495   5.320   6.189  13.803  0.9584  0.1130  0.1037
14668TIP3    H265496   5.366   6.045  13.797 -1.0094 -0.5220 -0.3443
14669TIP3   OH265497   4.551   5.997  15.461 -0.3400  0.1839  0.4527
14669TIP3    H165498   4.462   5.989  15.426 -0.7613 -2.0048  1.9103
14669TIP3    H265499   4.591   5.912  15.444  0.8528  0.5180  1.4959
14670TIP3   OH265500   3.196   2.470  16.331 -0.1582 -0.1427  0.5636
14670TIP3    H165501   3.227   2.539  16.391  1.6369  0.4449 -1.0019
14670TIP3    H265502   3.188   2.392  16.386 -0.6469  0.9105  2.0223
14671TIP3   OH265503   1.231   4.809  16.230  0.1947 -0.1802 -0.0693
14671TIP3    H165504   1.138   4.813  16.249  0.1123 -0.0136 -0.5063
14671TIP3    H265505   1.270   4.768  16.307 -0.4852 -2.1289 -0.7206
14672TIP3   OH265506   6.261   2.632  16.001 -0.0140 -0.1196  0.3675
14672TIP3    H165507   6.316   2.679  16.063  0.7468  1.1644 -1.2789
14672TIP3    H265508   6.315   2.559  15.971 -0.3682 -0.7166  1.1398
14673TIP3   OH265509   0.990   3.005  14.378 -0.2738 -0.3872 -0.3612
14673TIP3    H165510   0.992   2.956  14.460 -0.4301  1.5825  0.8505
14673TIP3    H265511   0.918   3.067  14.389  1.9218  2.2838 -0.5699
14674TIP3   OH265512   5.000   4.966  16.246 -0.3131  0.3072 -0.4149
14674TIP3    H165513   5.057   4.953  16.170 -0.1817  0.1818 -0.2953
14674TIP3    H265514   5.043   4.918  16.317 -0.7572 -0.0902 -0.4124
14675TIP3   OH265515   5.593   0.393   3.524 -0.2328 -0.3478 -0.2695
14675TIP3    H165516   5.533   0.466   3.536 -0.8733 -0.7605 -0.9289
14675TIP3    H265517   5.539   0.315   3.534  0.8041 -0.7888  2.4220
14676TIP3   OH265518   0.593   3.520   3.357  0.3464  0.0233  0.0844
14676TIP3    H165519   0.688   3.515   3.366  0.1860  0.4546  2.2630
14676TIP3    H265520   0.562   3.435   3.386 -0.0368  0.5212  1.1526
14677TIP3   OH265521   2.197   3.704  14.340  0.2461  0.6013  0.0873
14677TIP3    H165522   2.154   3.625  14.308 -2.5444  1.4331  1.5951
14677TIP3    H265523   2.290   3.682  14.340 -0.3424 -2.1302 -0.9811
14678TIP3   OH265524   0.943   2.827   5.523  0.0849  0.3356 -0.0076
14678TIP3    H165525   0.972   2.913   5.550  1.5450 -0.6424  1.5960
14678TIP3    H265526   0.875   2.803   5.586 -0.9841  0.6675 -0.9992
14679TIP3   OH265527   4.905   5.114   6.093 -0.2025 -0.3430  0.2391
14679TIP3    H165528   4.906   5.169   6.015  1.0090 -0.4622  0.1641
14679TIP3    H265529   4.860   5.166   6.160  1.1412  0.8144  0.2419
14680TIP3   OH265530   0.985   2.039   3.321 -0.6166  0.6462  0.1935
14680TIP3    H165531   0.891   2.024   3.316 -0.4988  0.4994 -1.8685
14680TIP3    H265532   1.024   1.967   3.271  0.5056  1.5043 -0.1959
14681TIP3   OH265533   6.255   2.887  11.308 -0.0170 -0.6382  0.6053
14681TIP3    H165534   6.329   2.831  11.285 -1.0963 -1.6684 -0.4422
14681TIP3    H265535   6.228   2.927  11.225  0.1694  0.7326  1.1901
14682TIP3   OH265536   2.495   3.960  16.921  0.7201  0.2121  0.0633
14682TIP3    H165537   2.436   4.035  16.926 -0.1066 -0.4091 -0.1809
14682TIP3    H265538   2.522   3.945  17.012  0.7144  0.6777  0.1411
14683TIP3   OH265539   2.820   3.911  14.661  0.1143  0.0184  0.1363
14683TIP3    H165540   2.881   3.914  14.587 -0.9215  0.4276 -0.7235
14683TIP3    H265541   2.808   4.003  14.685 -1.6076  0.0792 -0.9177
14684TIP3   OH265542   1.649   0.075  14.633 -0.0917 -0.4061 -0.2019
14684TIP3    H165543   1.611   0.145  14.685 -1.1927 -0.8719 -0.3728
14684TIP3    H265544   1.683   0.012  14.698 -1.8000 -1.1712 -0.0391
14685TIP3   OH265545   3.896   5.535   2.052 -0.3583  0.3580  0.2513
14685TIP3    H165546   3.838   5.460   2.058 -0.7335  0.7521  1.6156
14685TIP3    H265547   3.891   5.562   1.960 -1.6865 -0.1125  0.1799
14686TIP3   OH265548   0.341   3.773  11.455  0.3587  0.1761  0.0743
14686TIP3    H165549   0.395   3.842  11.416  0.2069 -1.1830 -2.6095
14686TIP3    H265550   0.386   3.692  11.432 -0.8027 -0.7623  1.0917
14687TIP3   OH265551   5.722   1.938  11.594 -0.0351 -0.6693 -0.0370
14687TIP3    H165552   5.814   1.955  11.615 -0.3296 -0.6117  1.2720
14687TIP3    H265553   5.684   2.024  11.578 -0.0442 -0.6278  0.2109
14688TIP3   OH265554   0.084   5.277   3.553 -0.6901 -0.1494 -0.2442
14688TIP3    H165555   0.178   5.294   3.562 -0.8001  0.8446 -0.8673
14688TIP3    H265556   0.080   5.194   3.505 -0.1444 -1.4941  1.9605
14689TIP3   OH265557   4.633   5.721  13.122  0.4408 -0.4980  0.1355
14689TIP3    H165558   4.719   5.730  13.080 -0.1532 -1.1331 -1.2638
14689TIP3    H265559   4.573   5.707  13.049 -0.8048 -0.4095  1.1325
14690TIP3   OH265560   2.646   4.499   0.813 -0.1018 -0.0350 -0.6271
14690TIP3    H165561   2.582   4.462   0.874  0.5812  0.4136  0.3761
14690TIP3    H265562   2.662   4.588   0.846  1.5542 -0.3747 -0.4522
14691TIP3   OH265563   5.483   0.407  13.377  0.1392 -0.5595 -0.8088
14691TIP3    H165564   5.499   0.442  13.289 -0.2016 -0.9854 -1.0386
14691TIP3    H265565   5.527   0.323  13.378  1.6958  0.2455  0.0328
14692TIP3   OH265566   3.169   1.680  15.792  1.1940 -0.4100  0.2968
14692TIP3    H165567   3.110   1.645  15.859 -0.4823  1.9319  0.0980
14692TIP3    H265568   3.255   1.679  15.834  0.7201 -2.0054  1.3057
14693TIP3   OH265569   6.516   4.532   5.874  0.9347  0.6270 -0.2386
14693TIP3    H165570   6.456   4.602   5.897  1.7975  0.8629  1.3459
14693TIP3    H265571   6.498   4.514   5.781  0.3324  2.5427 -0.5087
14694TIP3   OH265572   6.010   0.750   0.703  0.3922  0.3011 -0.2699
14694TIP3    H165573   6.096   0.766   0.665 -0.5414  1.7182 -1.8117
14694TIP3    H265574   5.993   0.657   0.685  1.0023  0.3502 -1.1241
14695TIP3   OH265575   0.152   0.842  12.730  0.0402  0.0081 -0.1911
14695TIP3    H165576   0.126   0.867  12.819 -3.4559 -0.8828 -0.8894
14695TIP3    H265577   0.163   0.747  12.733  0.0874 -0.0030 -0.6618
14696TIP3   OH265578   4.176   4.074   1.169  0.1701  0.4863  0.2523
14696TIP3    H165579   4.174   4.153   1.115 -1.0662  1.0298  1.0502
14696TIP3    H265580   4.266   4.068   1.200  1.0979 -0.2602 -2.4503
14697TIP3   OH265581   0.432   6.592   5.342  0.9366 -0.2424 -0.2470
14697TIP3    H165582   0.477   6.650   5.280 -0.7880 -0.6991 -1.9898
14697TIP3    H265583   0.386   6.529   5.287 -1.8843  0.2540  1.3983
14698TIP3   OH265584   4.233   2.723  16.947 -0.7319 -0.0847  0.1394
14698TIP3    H165585   4.315   2.749  16.988 -1.9628  0.7512  2.1196
14698TIP3    H265586   4.208   2.643  16.993 -0.4240 -1.0397 -1.3078
14699TIP3   OH265587   5.223   2.892  11.061  0.1468  0.1515 -0.4716
14699TIP3    H165588   5.179   2.967  11.022  0.1209  0.2534 -0.2488
14699TIP3    H265589   5.153   2.843  11.104  0.4201  0.9897  0.9684
14700TIP3   OH265590   1.748   4.493  14.538 -0.6266  0.1639 -0.3851
14700TIP3    H165591   1.722   4.403  14.517 -1.0371  0.0053  0.7780
14700TIP3    H265592   1.795   4.523  14.460 -0.7783 -0.9416 -0.9142
14701TIP3   OH265593   6.723   3.551  13.819 -0.1970  0.1042  0.2451
14701TIP3    H165594   6.702   3.633  13.775 -0.0603 -0.2194 -0.4474
14701TIP3    H265595   6.642   3.500  13.815 -0.1936  0.0863  0.3917
14702TIP3   OH265596   0.136   5.246  14.891  0.0388  0.3675 -0.2103
14702TIP3    H165597   0.162   5.318  14.833 -2.1151  0.5891 -0.9525
14702TIP3    H265598   0.188   5.259  14.970  2.2825  0.6488 -1.6896
14703TIP3   OH265599   0.370   5.180   6.168 -0.0591  0.2052  0.2452
14703TIP3    H165600   0.453   5.184   6.214 -0.3984  1.4783  0.7498
14703TIP3    H265601   0.306   5.218   6.228 -1.4842 -2.9972  0.8730
14704TIP3   OH265602   2.178   5.471  12.686  0.1728 -0.5865 -0.1543
14704TIP3    H165603   2.128   5.399  12.726 -0.3079 -0.2280 -0.1053
14704TIP3    H265604   2.115   5.542  12.678  0.0907 -0.8661 -2.1307
14705TIP3   OH265605   4.079   4.500  13.876 -0.5994 -0.3655  0.2855
14705TIP3    H165606   4.149   4.470  13.819  0.5308 -1.5823  2.2384
14705TIP3    H265607   4.031   4.565  13.825  1.4438 -0.1366 -1.3692
14706TIP3   OH265608   2.808   2.031  12.713 -0.2276  0.1081  0.1355
14706TIP3    H165609   2.754   2.105  12.740 -1.4971 -0.9909  0.6298
14706TIP3    H265610   2.868   2.017  12.786 -0.3656  0.2888  0.2839
14707TIP3   OH265611   5.045   4.430   3.253  0.0974 -0.0792 -0.2328
14707TIP3    H165612   4.961   4.384   3.246 -0.9921  1.3824  2.4839
14707TIP3    H265613   5.108   4.363   3.276 -0.9831 -0.6713  1.0731
14708TIP3   OH265614   1.573   1.205  16.593 -0.0457  0.2341 -0.9180
14708TIP3    H165615   1.591   1.163  16.509  0.6647 -0.3058 -0.4969
14708TIP3    H265616   1.659   1.221  16.632 -0.3707  0.2745 -0.1974
14709TIP3   OH265617   2.348   2.902   0.298 -0.1232 -0.6730 -0.0759
14709TIP3    H165618   2.378   2.821   0.339 -0.0933  0.1055  1.4839
14709TIP3    H265619   2.422   2.932   0.246  0.0218 -1.4055 -0.2936
14710TIP3   OH265620   0.376   5.539   6.340  0.2421  0.1398 -0.1618
14710TIP3    H165621   0.320   5.462   6.355  1.0100 -0.5862 -0.9260
14710TIP3    H265622   0.399   5.533   6.247  0.9252  0.8858 -0.0397
14711TIP3   OH265623   3.318   2.092  10.349  0.2992  0.4144 -0.0389
14711TIP3    H165624   3.279   2.010  10.317 -0.6239  0.7604  0.1747
14711TIP3    H265625   3.250   2.157  10.335  0.3391  0.8046  1.4944
14712TIP3   OH265626   0.575   0.088   5.667  0.2711 -0.2703 -0.9821
14712TIP3    H165627   0.519   0.029   5.616  0.6686 -0.6030 -1.0396
14712TIP3    H265628   0.634   0.126   5.602  1.1957 -1.1718 -0.6926
14713TIP3   OH265629   6.571   4.850  12.282 -0.0705  0.5884  0.6587
14713TIP3    H165630   6.537   4.774  12.329 -2.5420  0.6554 -0.9220
14713TIP3    H265631   6.536   4.925  12.331 -1.2981  0.6603 -0.3025
14714TIP3   OH265632   4.521   2.457   1.013 -0.1610 -0.4698 -0.0622
14714TIP3    H165633   4.454   2.431   1.077 -0.4390 -0.4807 -0.3579
14714TIP3    H265634   4.539   2.549   1.034  0.5598 -0.7907  0.7466
14715TIP3   OH265635   6.413   2.398   1.936  0.2015  0.4854  0.3360
14715TIP3    H165636   6.387   2.490   1.946  1.9200  0.8144  1.9937
14715TIP3    H265637   6.424   2.366   2.026 -0.7497 -1.4737 -0.2118
14716TIP3   OH265638   3.855   2.762  11.644 -0.3768  0.3183  0.3533
14716TIP3    H165639   3.931   2.785  11.591  0.6696  0.9362  2.0552
14716TIP3    H265640   3.780   2.794  11.595  0.5401  0.5305 -0.9163
14717TIP3   OH265641   1.360   6.471  16.150  0.3232 -0.0092  0.6154
14717TIP3    H165642   1.388   6.550  16.105 -0.1523  0.0048  0.3416
14717TIP3    H265643   1.325   6.415  16.080 -1.4069  0.4414  1.1076
14718TIP3   OH265644   2.909   6.306  12.976 -0.1069  0.0776  0.1462
14718TIP3    H165645   2.970   6.233  12.982 -0.6411 -0.4085 -0.2389
14718TIP3    H265646   2.928   6.347  12.892  0.6635  0.8136  0.6703
14719TIP3   OH265647   1.186   3.559   0.974  0.0134 -0.5414 -0.4013
14719TIP3    H165648   1.187   3.483   1.031  0.0851 -0.4445 -0.2725
14719TIP3    H265649   1.209   3.525   0.887  0.8472 -0.5371 -0.1851
14720TIP3   OH265650   1.546   5.320  15.905 -0.0905 -0.1136 -0.1113
14720TIP3    H165651   1.612   5.251  15.915  0.4807  0.3629 -0.5088
14720TIP3    H265652   1.578   5.392  15.959 -0.5618 -0.0736  0.1174
14721TIP3   OH265653   4.507   5.701  10.816 -0.3625  0.0947 -0.6746
14721TIP3    H165654   4.594   5.688  10.780 -0.0419 -0.4998  0.2965
14721TIP3    H265655   4.453   5.727  10.740  0.2285 -1.4219 -1.6409
14722TIP3   OH265656   0.569   1.826   3.485  0.8311  0.2005 -0.1843
14722TIP3    H165657   0.526   1.807   3.568 -2.4983  0.5829 -1.7221
14722TIP3    H265658   0.595   1.740   3.451 -1.2027 -0.3549 -0.4400
14723TIP3   OH265659   3.952   3.688  12.788 -0.0637 -0.2068 -0.1221
14723TIP3    H165660   3.861   3.696  12.760  0.3601 -0.1055 -1.5139
14723TIP3    H265661   3.998   3.758  12.741  0.8902 -0.8226 -0.1204
14724TIP3   OH265662   0.981   5.259   1.004 -0.1461 -0.6208 -0.6396
14724TIP3    H165663   1.053   5.319   0.983  0.1638 -0.6362  0.3536
14724TIP3    H265664   1.024   5.182   1.041 -0.6153 -1.0347 -0.9550
14725TIP3   OH265665   6.780   6.170  12.342 -0.1800  0.4345 -0.5692
14725TIP3    H165666   6.711   6.139  12.283  1.0428 -0.5986 -1.4784
14725TIP3    H265667   6.741   6.246  12.386 -1.7645  0.0922 -1.3324
14726TIP3   OH265668   1.351   4.914  13.839  0.7172  0.5458 -0.4546
14726TIP3    H165669   1.339   4.823  13.813  0.4755  0.6767 -0.8187
14726TIP3    H265670   1.425   4.945  13.787  1.0083  0.4659 -0.0900
14727TIP3   OH265671   5.976   3.035   5.631 -0.6800  0.3643 -0.5377
14727TIP3    H165672   6.064   3.017   5.665 -0.2942  0.6062 -1.3912
14727TIP3    H265673   5.918   3.014   5.704  0.0794  0.1425  0.0184
14728TIP3   OH265674   3.400   6.423  13.262 -0.5843  0.2046 -0.5588
14728TIP3    H165675   3.441   6.362  13.201  0.2615  0.5907 -0.3835
14728TIP3    H265676   3.392   6.505  13.213  1.6425  1.0214  0.3354
14729TIP3   OH265677   3.321   0.786  16.727  0.0968  0.3706 -0.0768
14729TIP3    H165678   3.257   0.835  16.779  2.1850  0.9306  2.0471
14729TIP3    H265679   3.315   0.696  16.760  1.2492  0.6750  0.9850
14730TIP3   OH265680   3.647   5.664   2.206  0.4937 -0.1571 -0.1418
14730TIP3    H165681   3.643   5.583   2.256 -0.4777  0.0603  0.1541
14730TIP3    H265682   3.738   5.671   2.177  0.6653 -1.1551  0.1475
14731TIP3   OH265683   5.844   1.503   4.667 -0.1351  0.0861 -0.1105
14731TIP3    H165684   5.926   1.457   4.648  0.9164  2.3509 -1.1756
14731TIP3    H265685   5.792   1.494   4.586 -0.8069 -0.9934  0.4203
14732TIP3   OH265686   2.918   4.808  11.241 -0.3004 -0.0371  0.2661
14732TIP3    H165687   2.852   4.756  11.286 -1.9860  1.2643 -0.6157
14732TIP3    H265688   2.916   4.893  11.285 -1.2004  0.8985 -1.4793
14733TIP3   OH265689   1.184   3.940   3.795  0.0751  0.4924 -0.2711
14733TIP3    H165690   1.272   3.975   3.803 -0.0307  0.3617  1.5978
14733TIP3    H265691   1.136   3.978   3.869 -0.7253 -1.5491  0.2883
14734TIP3   OH265692   6.557   4.259  16.240  0.1002 -0.0785  0.1494
14734TIP3    H165693   6.525   4.285  16.154  1.1575  1.5962  0.2406
14734TIP3    H265694   6.584   4.341  16.282 -0.9040 -0.8073  2.2930
14735TIP3   OH265695   4.830   4.932  12.439 -0.1034 -0.2309 -0.0954
14735TIP3    H165696   4.767   4.881  12.489  0.0931  0.6689  1.1090
14735TIP3    H265697   4.861   4.999  12.501 -0.8984  1.8011 -1.8380
14736TIP3   OH265698   4.053   1.555  17.110 -0.2720  0.1212  0.2289
14736TIP3    H165699   4.145   1.568  17.083 -0.0742  0.2934  0.9822
14736TIP3    H265700   4.059   1.511  17.195 -0.9114 -3.2230 -1.3820
14737TIP3   OH265701   4.779   2.043  13.266 -0.4173  0.4640 -0.3716
14737TIP3    H165702   4.698   2.080  13.229  0.8442  2.4126 -1.3066
14737TIP3    H265703   4.843   2.050  13.195  0.2951 -2.1168 -0.0244
14738TIP3   OH265704   6.265   0.132   2.248  0.2672  0.5777 -0.4081
14738TIP3    H165705   6.289   0.147   2.157  1.5193  2.0539  0.1418
14738TIP3    H265706   6.296   0.043   2.266  1.3132  0.8057 -1.0230
14739TIP3   OH265707   5.151   6.721   6.790  0.0607 -0.0575 -0.8582
14739TIP3    H165708   5.112   6.806   6.771 -2.0817 -0.4099  1.6378
14739TIP3    H265709   5.148   6.674   6.707 -0.0350  1.7971 -1.9166
14740TIP3   OH265710   6.722   0.070  11.265  0.3560 -0.1022 -0.0253
14740TIP3    H165711   6.783   0.012  11.309 -0.3124 -1.9697 -1.5116
14740TIP3    H265712   6.639   0.057  11.311  0.6585  1.2115  0.9330
14741TIP3   OH265713   6.042   2.922   0.932  0.1966 -0.9373  0.4938
14741TIP3    H165714   6.110   2.876   0.883 -0.3273 -1.4132  0.2032
14741TIP3    H265715   5.991   2.967   0.865  2.1258  2.0508  0.9431
14742TIP3   OH265716   6.331   6.079  15.150  0.3509 -0.0560  0.2026
14742TIP3    H165717   6.411   6.089  15.201 -0.4417 -1.9780  1.9361
14742TIP3    H265718   6.273   6.147  15.182  0.6628  0.1962  0.2326
14743TIP3   OH265719   0.240   4.929   1.355 -0.2554  0.0426  0.3565
14743TIP3    H165720   0.335   4.932   1.355 -0.2431 -0.1556  0.9824
14743TIP3    H265721   0.213   4.997   1.294  0.2954 -0.4141 -0.3946
14744TIP3   OH265722   0.083   3.169   4.049  0.0616  0.3320  0.0544
14744TIP3    H165723   0.129   3.250   4.071 -1.2657  1.2010 -0.2676
14744TIP3    H265724   0.151   3.102   4.045  1.1771  1.4447  0.3025
14745TIP3   OH265725   3.576   0.678   0.304 -0.7761  0.2026  0.6221
14745TIP3    H165726   3.570   0.588   0.337 -3.8138  0.0196 -0.3071
14745TIP3    H265727   3.555   0.732   0.380  0.4526  0.1200  1.0298
14746TIP3   OH265728   4.644   2.791  12.890  0.0517 -0.2202 -0.0447
14746TIP3    H165729   4.690   2.870  12.919 -0.0455 -0.7875  1.7352
14746TIP3    H265730   4.703   2.751  12.825  1.1977  0.0677  0.7970
14747TIP3   OH265731   1.011   3.704   3.909  0.2116 -0.1633  0.1129
14747TIP3    H165732   1.005   3.757   3.830 -0.9309 -0.8273 -0.2553
14747TIP3    H265733   1.029   3.767   3.979 -0.4261  0.6154 -0.4221
14748TIP3   OH265734   4.808   5.957   1.484 -0.1457 -0.3570  0.3927
14748TIP3    H165735   4.811   6.003   1.568  0.7467  0.2124  0.0590
14748TIP3    H265736   4.763   5.875   1.503  1.4114 -0.9215  1.7654
14749TIP3   OH265737   3.700   0.342  14.928  0.1809  0.1931  0.3471
14749TIP3    H165738   3.775   0.317  14.981  0.6863  0.6243 -0.1504
14749TIP3    H265739   3.732   0.338  14.837 -0.5653 -0.1926  0.0993
14750TIP3   OH265740   3.115   5.884  15.860 -0.6632  0.1503 -0.1074
14750TIP3    H165741   3.136   5.924  15.944  1.1022 -0.6977 -0.1078
14750TIP3    H265742   3.194   5.898  15.807 -1.1096 -0.8057 -1.0345
14751TIP3   OH265743   0.171   3.897   3.687 -0.6403  0.1177 -0.3719
14751TIP3    H165744   0.118   3.960   3.737 -0.7369 -0.3416  0.1054
14751TIP3    H265745   0.256   3.898   3.732  0.1979  1.8189 -1.9013
14752TIP3   OH265746   0.709   6.295   6.173 -0.3064 -0.3552 -0.1644
14752TIP3    H165747   0.728   6.377   6.129 -1.6104 -0.5961 -1.2151
14752TIP3    H265748   0.793   6.249   6.177  0.0345  0.1539 -1.4033
14753TIP3   OH265749   1.599   3.294   2.263 -0.3120 -0.4200 -0.2158
14753TIP3    H165750   1.589   3.365   2.326  0.6035  0.1515 -0.7195
14753TIP3    H265751   1.688   3.262   2.276 -0.3001 -0.6559 -0.8453
14754TIP3   OH265752   0.507   3.843  13.389  0.3200  0.1493  0.2435
14754TIP3    H165753   0.433   3.893  13.424  0.7058  0.7758  0.1661
14754TIP3    H265754   0.581   3.868  13.444 -0.1710 -2.9053  2.4018
14755TIP3   OH265755   5.706   4.380   4.100  0.3538 -0.2392 -0.1913
14755TIP3    H165756   5.695   4.468   4.136  0.7990 -0.7013  1.0949
14755TIP3    H265757   5.791   4.383   4.056  0.6817 -0.2164  0.4359
14756TIP3   OH265758   5.726   3.780  11.629  0.2550 -0.4625  0.1018
14756TIP3    H165759   5.702   3.832  11.553  1.3225  0.4610  0.3685
14756TIP3    H265760   5.706   3.690  11.605 -0.4685 -0.0543 -0.8381
14757TIP3   OH265761   4.434   6.406   5.958  0.3534 -0.4430  0.1946
14757TIP3    H165762   4.481   6.390   5.876 -1.2376  1.5791 -1.1891
14757TIP3    H265763   4.357   6.349   5.953  0.0574 -0.0395  0.0873
14758TIP3   OH265764   4.872   3.168   1.482  0.3883  0.3029  0.1802
14758TIP3    H165765   4.796   3.144   1.429 -0.2362 -1.3935  1.7941
14758TIP3    H265766   4.840   3.238   1.540  1.5969  3.5868 -2.9475
14759TIP3   OH265767   5.428   1.686  13.318 -0.3682  0.4464  0.0914
14759TIP3    H165768   5.363   1.747  13.282 -0.2896  1.5362  1.7466
14759TIP3    H265769   5.381   1.639  13.387  0.4033  0.7277  0.8091
14760TIP3   OH265770   6.421   3.608  14.086 -0.0665  0.0758 -0.4080
14760TIP3    H165771   6.495   3.665  14.066 -0.2186  1.0026  1.5679
14760TIP3    H265772   6.460   3.521  14.096  0.7577  0.5494  0.5727
14761TIP3   OH265773   0.537   5.062   5.670  0.0822  0.5861 -0.7632
14761TIP3    H165774   0.536   5.155   5.690  0.3100  0.5494 -0.5771
14761TIP3    H265775   0.630   5.038   5.669  0.0294  0.3825 -0.9040
14762TIP3   OH265776   3.766   2.280  14.885 -0.1526  0.4058  0.6207
14762TIP3    H165777   3.805   2.206  14.838 -0.6755 -0.0153  0.8435
14762TIP3    H265778   3.774   2.256  14.978 -1.3142  0.1227  0.6527
14763TIP3   OH265779   4.323   5.844  12.718  0.8849 -1.2273 -0.0686
14763TIP3    H165780   4.327   5.769  12.659  0.1519 -0.8483 -0.6169
14763TIP3    H265781   4.239   5.887  12.697  1.9101  0.5216 -0.7294
14764TIP3   OH265782   4.327   2.498  11.773 -0.2913  0.4044 -0.6868
14764TIP3    H165783   4.380   2.477  11.695  0.5291 -0.1957  0.0252
14764TIP3    H265784   4.293   2.586  11.755  0.7799  0.7180 -1.2560
14765TIP3   OH265785   4.705   6.267   3.648  0.6895  0.2245  0.0579
14765TIP3    H165786   4.778   6.235   3.594  0.1343 -0.7884 -0.1012
14765TIP3    H265787   4.744   6.337   3.701  2.0044 -0.8857  0.6039
14766TIP3   OH265788   4.447   1.099  14.320  0.0869  0.1822 -0.0906
14766TIP3    H165789   4.483   1.104  14.409 -3.2068 -1.4731  1.4206
14766TIP3    H265790   4.494   1.026  14.280  1.0269  0.4091  0.5730
14767TIP3   OH265791   4.208   6.716   4.093  0.5133  0.2302  0.8547
14767TIP3    H165792   4.139   6.652   4.109  0.4507  0.3801  1.1961
14767TIP3    H265793   4.265   6.675   4.028  0.2903 -0.0339  0.8250
14768TIP3   OH265794   1.501   2.784  11.691  0.0600  0.6079  0.2794
14768TIP3    H165795   1.545   2.790  11.606  1.8150  3.0522  1.2924
14768TIP3    H265796   1.425   2.728  11.675  0.3712  1.0050 -2.8854
14769TIP3   OH265797   1.309   0.765   6.174 -0.5571  0.7550  0.0976
14769TIP3    H165798   1.219   0.780   6.204 -0.9317 -0.6520 -0.2762
14769TIP3    H265799   1.312   0.802   6.086 -0.7892  0.7920  0.1050
14770TIP3   OH265800   1.802   4.333   1.695 -0.2808  0.6493 -0.1201
14770TIP3    H165801   1.820   4.289   1.778 -1.9881 -0.1838 -0.1661
14770TIP3    H265802   1.750   4.270   1.645 -1.0509  1.9471 -0.9878
14771TIP3   OH265803   1.747   5.527  12.970 -0.4808 -0.0749 -1.0444
14771TIP3    H165804   1.683   5.472  13.015 -0.8119  1.4377  0.3879
14771TIP3    H265805   1.694   5.595  12.927  0.1751  2.1588  1.5072
14772TIP3   OH265806   2.448   4.255  13.521  0.1388  1.2280 -0.0290
14772TIP3    H165807   2.527   4.207  13.499  1.4207  2.2096  2.2163
14772TIP3    H265808   2.406   4.202  13.589 -0.3100  1.5048 -0.0841
14773TIP3   OH265809   2.671   6.458   2.591  0.4961 -0.2918 -0.0729
14773TIP3    H165810   2.703   6.440   2.502 -0.2746  0.3958 -0.4962
14773TIP3    H265811   2.579   6.431   2.590 -0.4482  2.6877 -0.4642
14774TIP3   OH265812   5.674   2.437  12.107  0.2675  0.3970 -0.5668
14774TIP3    H165813   5.615   2.406  12.038 -1.0535  0.2553  0.5885
14774TIP3    H265814   5.670   2.533  12.101 -0.3214  0.3931 -0.3141
14775TIP3   OH265815   3.117   6.132   0.507  0.1162  0.4348 -0.1480
14775TIP3    H165816   3.038   6.094   0.469  0.1001  0.3725 -0.0522
14775TIP3    H265817   3.133   6.080   0.586  0.1004  0.6207 -0.0237
14776TIP3   OH265818   1.713   4.653   4.724 -0.3523 -0.2539 -0.0101
14776TIP3    H165819   1.765   4.679   4.800 -1.1726 -0.9900  0.8155
14776TIP3    H265820   1.747   4.566   4.700 -0.2846 -0.1442 -0.3115
14777TIP3   OH265821   4.932   6.074   0.473 -0.4978 -0.1965 -0.1086
14777TIP3    H165822   5.012   6.091   0.424  0.0266  1.5125  1.2885
14777TIP3    H265823   4.962   6.044   0.559 -1.3545 -0.2532  0.1765
14778TIP3   OH265824   3.127   5.789  12.415 -0.1829 -0.2848 -0.1722
14778TIP3    H165825   3.075   5.868  12.403 -0.7078 -0.8657 -1.7745
14778TIP3    H265826   3.190   5.790  12.343 -0.6692 -1.6964 -0.6387
14779TIP3   OH265827   6.754   2.368  11.516 -0.2583 -0.1453 -0.3155
14779TIP3    H165828   6.749   2.288  11.463 -1.8088 -0.4658  0.3174
14779TIP3    H265829   6.808   2.343  11.591 -1.2420 -0.7724  0.1892
14780TIP3   OH265830   5.558   1.243  15.535 -0.1749  0.0139 -0.0406
14780TIP3    H165831   5.517   1.322  15.570 -0.9438 -0.7657  0.8394
14780TIP3    H265832   5.643   1.238  15.580 -0.6565 -0.3348  0.8438
14781TIP3   OH265833   3.679   2.532   4.123 -0.5282 -0.5416 -0.0262
14781TIP3    H165834   3.753   2.531   4.062 -2.5813  1.5851 -2.6804
14781TIP3    H265835   3.705   2.595   4.190  0.0908  0.2469 -0.9733
14782TIP3   OH265836   3.968   0.375  12.541  0.3392 -0.4119  0.2480
14782TIP3    H165837   4.029   0.303  12.557 -0.3021 -1.2865 -1.0663
14782TIP3    H265838   3.890   0.332  12.506 -0.3838  0.8528  0.2780
14783TIP3   OH265839   2.640   1.077   2.939 -0.4167  0.0097  0.9612
14783TIP3    H165840   2.547   1.064   2.918  0.1005  0.4210 -1.6849
14783TIP3    H265841   2.685   1.065   2.856  1.8918  0.2253  2.1529
14784TIP3   OH265842   2.361   0.398   3.883  0.0297 -0.4542  0.1506
14784TIP3    H165843   2.323   0.313   3.861  0.9370 -0.5765 -1.0064
14784TIP3    H265844   2.449   0.377   3.914  0.0121  0.0068  0.5125
14785TIP3   OH265845   6.553   4.054   3.320 -0.2875 -0.4924 -0.2190
14785TIP3    H165846   6.556   4.106   3.239  0.2828 -2.5182 -1.5420
14785TIP3    H265847   6.641   4.019   3.329 -0.9775 -2.2493 -0.0602
14786TIP3   OH265848   3.094   5.322  14.162  0.0213  0.2401 -0.4289
14786TIP3    H165849   3.029   5.371  14.212 -0.8227  0.7101 -1.9382
14786TIP3    H265850   3.056   5.234  14.154  1.6587 -0.8003  2.5134
14787TIP3   OH265851   5.810   6.507   0.666 -0.7752 -0.0899 -0.6717
14787TIP3    H165852   5.831   6.601   0.666 -0.6192 -0.1261 -1.1471
14787TIP3    H265853   5.769   6.492   0.752  0.6293  0.0908  0.0499
14788TIP3   OH265854   3.217   5.834  16.195  0.5755 -0.5430  0.1884
14788TIP3    H165855   3.196   5.912  16.143  2.8621  1.0605  1.6329
14788TIP3    H265856   3.187   5.855  16.283 -0.1517 -1.9299  0.3002
14789TIP3   OH265857   0.526   2.563   2.709 -0.4653  0.0573 -0.0535
14789TIP3    H165858   0.503   2.593   2.797  0.0133  0.5706 -0.1020
14789TIP3    H265859   0.610   2.518   2.721 -1.3667 -1.6434  0.0940
14790TIP3   OH265860   4.498   2.235   2.270 -0.5466 -0.0309  0.0252
14790TIP3    H165861   4.541   2.213   2.188  2.0252 -2.1269  1.8413
14790TIP3    H265862   4.424   2.173   2.275  0.1096 -0.8280 -0.0679
14791TIP3   OH265863   6.052   4.759   5.159  0.0462  0.4125  0.1544
14791TIP3    H165864   6.041   4.844   5.116 -1.5317  0.3490  0.4151
14791TIP3    H265865   6.027   4.695   5.092 -1.4585  0.2740  0.8315
14792TIP3   OH265866   2.686   3.459  13.076 -0.1056  0.4136 -0.4981
14792TIP3    H165867   2.683   3.467  12.981  0.3713 -2.4409 -0.8206
14792TIP3    H265868   2.748   3.388  13.092 -2.5371 -1.3205  1.7676
14793TIP3   OH265869   1.878   6.741  13.120 -0.3047 -0.2591 -0.2119
14793TIP3    H165870   1.835   6.808  13.173  1.0653  0.8151 -0.4120
14793TIP3    H265871   1.814   6.670  13.113 -1.8241  1.0840 -0.1021
14794TIP3   OH265872   5.599   1.730  12.888  0.0340  0.1877 -0.1686
14794TIP3    H165873   5.582   1.818  12.853 -2.5649  0.6466  2.0206
14794TIP3    H265874   5.537   1.674  12.841 -0.2715  0.0421  0.3962
14795TIP3   OH265875   0.854   3.050   0.775  0.0523 -0.0555 -0.3925
14795TIP3    H165876   0.860   3.011   0.688 -0.8458 -0.3036 -0.3484
14795TIP3    H265877   0.824   2.979   0.831 -0.4119  0.3829 -0.0826
14796TIP3   OH265878   6.550   3.412   6.750 -0.5727 -0.0551 -0.1467
14796TIP3    H165879   6.576   3.411   6.658 -1.2282  0.9386 -0.3462
14796TIP3    H265880   6.575   3.499   6.781  0.6258 -0.7573  0.9037
14797TIP3   OH265881   4.654   3.813  14.267  0.0874  0.0442  1.2359
14797TIP3    H165882   4.617   3.817  14.179 -1.8747  1.1330  2.0568
14797TIP3    H265883   4.683   3.903  14.285  0.5846 -0.1960  1.6635
14798TIP3   OH265884   2.557   6.275   5.787  0.5041 -0.3923 -0.0596
14798TIP3    H165885   2.594   6.291   5.700 -0.1253 -2.6518 -0.7879
14798TIP3    H265886   2.595   6.191   5.813 -0.5615 -0.4997  1.1591
14799TIP3   OH265887   0.597   1.898  11.718  0.8257 -0.3247 -0.2047
14799TIP3    H165888   0.553   1.946  11.648 -0.2720 -0.2550  0.5282
14799TIP3    H265889   0.668   1.956  11.746 -0.2775  0.7301  0.4340
14800TIP3   OH265890   4.183   2.038  13.819 -0.2799  0.3146 -0.2297
14800TIP3    H165891   4.267   2.022  13.775  0.6097  1.1077  1.1101
14800TIP3    H265892   4.158   1.953  13.854  1.6263  0.6486  2.1166
14801TIP3   OH265893   2.572   4.457   4.679 -0.6463  0.1323 -0.2401
14801TIP3    H165894   2.560   4.524   4.612  0.3429  0.2365 -0.3227
14801TIP3    H265895   2.513   4.483   4.750 -1.9003 -0.1241 -1.1677
14802TIP3   OH265896   6.608   2.254  16.260 -0.2129  0.3942 -0.8062
14802TIP3    H165897   6.523   2.282  16.226 -0.6916  1.2609  1.0251
14802TIP3    H265898   6.670   2.319  16.225 -0.3668  0.0679 -1.7035
14803TIP3   OH265899   6.067   4.899   6.035 -0.4282  0.2411  0.3250
14803TIP3    H165900   6.054   4.805   6.049 -1.2935  0.4916  1.2266
14803TIP3    H265901   6.133   4.924   6.100  1.2053 -0.0966 -1.1534
14804TIP3   OH265902   6.425   0.710   5.623  0.3797  0.3463 -0.4557
14804TIP3    H165903   6.332   0.728   5.607  0.7700  0.7814 -2.3868
14804TIP3    H265904   6.471   0.765   5.559  2.0419  1.4707  1.6480
14805TIP3   OH265905   4.851   4.075  17.016  0.0527 -0.0363  0.1382
14805TIP3    H165906   4.801   4.147  17.055 -0.5233  0.0984 -0.8240
14805TIP3    H265907   4.924   4.119  16.971  0.4024 -0.1504  0.5875
14806TIP3   OH265908   1.008   3.772  17.088 -0.4408  0.5628 -0.0716
14806TIP3    H165909   1.079   3.834  17.101 -0.1878  0.4926 -1.0648
14806TIP3    H265910   0.966   3.799  17.006 -1.9906  1.0071  0.8485
14807TIP3   OH265911   1.402   2.657  13.644 -0.5100  0.7256  0.1269
14807TIP3    H165912   1.453   2.738  13.657  0.3256  0.2303 -0.0004
14807TIP3    H265913   1.431   2.600  13.715  0.5437 -0.2682 -1.0811
14808TIP3   OH265914   2.074   6.612   3.698  0.4497 -0.4465  0.3974
14808TIP3    H165915   2.080   6.643   3.607  2.6704 -2.7614 -0.3266
14808TIP3    H265916   2.107   6.522   3.694  0.5304 -0.5924  3.5058
14809TIP3   OH265917   5.057   2.111   0.715  0.0925 -0.0533  0.3593
14809TIP3    H165918   5.022   2.078   0.798 -0.9929 -0.6067 -0.2997
14809TIP3    H265919   5.152   2.104   0.725 -0.0498 -1.0210  1.1965
14810TIP3   OH265920   3.754   2.933  14.979 -0.5914 -0.0856 -0.3290
14810TIP3    H165921   3.750   3.021  14.944  1.3035 -1.2057 -3.6188
14810TIP3    H265922   3.828   2.935  15.040  0.3309  0.2983 -1.4373
14811TIP3   OH265923   6.766   0.162   4.190 -0.1210  0.2939 -0.2388
14811TIP3    H165924   6.829   0.181   4.258  0.0551 -1.2672  0.0357
14811TIP3    H265925   6.727   0.078   4.215 -0.2768 -0.1397 -1.8805
14812TIP3   OH265926   0.906   2.055  16.149 -0.1211 -0.0834 -0.3395
14812TIP3    H165927   0.914   2.007  16.231 -0.7068 -2.2789 -1.5341
14812TIP3    H265928   0.973   2.124  16.155  1.3024 -1.5402  1.0768
14813TIP3   OH265929   5.680   3.473   1.399  0.4750  0.0331  0.2598
14813TIP3    H165930   5.651   3.521   1.322  2.5111  0.0592 -0.5297
14813TIP3    H265931   5.603   3.425   1.428 -0.6170  0.9216 -1.1168
14814TIP3   OH265932   6.533   0.185  10.781 -0.5937  0.0101 -0.3411
14814TIP3    H165933   6.543   0.097  10.744 -0.0660  0.2288 -0.7242
14814TIP3    H265934   6.586   0.241  10.725 -0.3650  0.4638  0.3198
14815TIP3   OH265935   1.390   1.872  12.576  0.5509 -0.1664 -0.8988
14815TIP3    H165936   1.380   1.889  12.482 -0.3605 -1.3556 -1.0245
14815TIP3    H265937   1.365   1.780  12.587 -1.3065  0.5073  0.8095
14816TIP3   OH265938   3.715   0.286  12.688  0.6308  0.1139 -0.0321
14816TIP3    H165939   3.796   0.257  12.729  0.2505 -1.8534 -0.5634
14816TIP3    H265940   3.684   0.208  12.641 -1.3899  0.9313 -0.0959
14817TIP3   OH265941   3.285   3.055   0.994 -0.4664 -0.0427  0.0838
14817TIP3    H165942   3.249   3.128   0.944  0.2499  0.1524 -0.1584
14817TIP3    H265943   3.224   2.983   0.981  0.2918 -0.3388 -1.9875
14818TIP3   OH265944   2.867   0.691   2.041 -0.5449 -0.1287 -0.2313
14818TIP3    H165945   2.861   0.770   2.095 -0.7368  1.0749 -1.9401
14818TIP3    H265946   2.959   0.665   2.045 -0.1923  1.0024 -0.7573
14819TIP3   OH265947   5.384   4.466  15.568 -0.7227  0.3950  0.9573
14819TIP3    H165948   5.319   4.420  15.516 -1.8454  0.0306  2.6583
14819TIP3    H265949   5.465   4.417  15.554 -0.4247  1.6486 -2.2574
14820TIP3   OH265950   4.903   2.495  11.276  0.4006  0.3851 -0.6656
14820TIP3    H165951   4.974   2.444  11.238  1.5209  2.2820 -1.1300
14820TIP3    H265952   4.922   2.497  11.370  0.3295 -0.0617 -0.6400
14821TIP3   OH265953   3.142   3.925  16.782 -0.4672 -0.3971  0.1726
14821TIP3    H165954   3.164   3.894  16.695 -0.6939  0.1043 -0.0694
14821TIP3    H265955   3.202   3.879  16.840  0.9414  0.6323 -0.4339
14822TIP3   OH265956   3.105   5.979  15.556 -0.3618  0.2737  0.1566
14822TIP3    H165957   3.083   5.962  15.648  0.2990 -1.0052  0.0861
14822TIP3    H265958   3.021   5.994  15.514 -1.0296 -2.8735  0.2228
14823TIP3   OH265959   2.317   4.350  10.831 -0.7528  0.1439  0.3802
14823TIP3    H165960   2.321   4.412  10.757 -1.2060 -1.6776 -1.2274
14823TIP3    H265961   2.404   4.353  10.869 -1.3739  3.3758  1.7173
14824TIP3   OH265962   1.668   0.093  14.358  0.4078 -0.1401 -0.1901
14824TIP3    H165963   1.666   0.104  14.453  0.1056  0.1342 -0.2247
14824TIP3    H265964   1.760   0.103  14.334  0.6197 -1.0930  0.1714
14825TIP3   OH265965   4.735   0.054   1.782 -0.2014 -0.9679 -0.1051
14825TIP3    H165966   4.763   0.141   1.808 -2.1783 -0.1106 -0.7976
14825TIP3    H265967   4.643   0.049   1.808 -0.4928 -2.3295 -1.3334
14826TIP3   OH265968   2.495   5.841  14.116 -0.2510  0.0568 -0.0351
14826TIP3    H165969   2.461   5.845  14.027  0.1769  1.0520 -0.1584
14826TIP3    H265970   2.478   5.751  14.145  1.0621 -0.7312 -1.6865
14827TIP3   OH265971   1.825   1.060  16.944  0.4325 -0.8561 -0.3293
14827TIP3    H165972   1.785   1.147  16.942  1.1835 -0.4261  1.6432
14827TIP3    H265973   1.860   1.047  16.856  1.0882  1.2130 -0.3989
14828TIP3   OH265974   2.649   2.921  11.063  0.1890 -0.0714  0.6155
14828TIP3    H165975   2.687   2.990  11.008  3.2224  0.2982  3.0198
14828TIP3    H265976   2.615   2.857  11.001  2.2187  0.9978 -1.7036
14829TIP3   OH265977   1.500   1.742  11.808  0.3284  0.4025  0.1511
14829TIP3    H165978   1.411   1.761  11.777 -0.0072  0.1497  0.9555
14829TIP3    H265979   1.531   1.825  11.845 -0.2978 -0.0101  1.6229
14830TIP3   OH265980   1.988   6.779  17.028  0.7441 -0.3382 -0.2054
14830TIP3    H165981   2.001   6.763  16.934  1.2549  1.4334 -0.4671
14830TIP3    H265982   1.932   6.857  17.031 -0.3191 -1.1315  0.9674
14831TIP3   OH265983   1.045   1.950   4.109 -0.2483 -0.0321  0.0239
14831TIP3    H165984   1.114   2.009   4.081  0.3743  0.1456  1.9142
14831TIP3    H265985   1.076   1.863   4.082  0.1960  0.1698 -0.1207
14832TIP3   OH265986   3.915   4.366  15.756  0.1217 -0.6036 -0.0274
14832TIP3    H165987   3.912   4.338  15.847 -0.0764  0.8443  0.4216
14832TIP3    H265988   3.993   4.421  15.750  0.1622 -0.7363 -0.7362
14833TIP3   OH265989   6.178   2.047   3.909 -0.2945 -0.5684  0.1831
14833TIP3    H165990   6.125   1.969   3.892 -0.3363 -1.3508  3.4928
14833TIP3    H265991   6.136   2.089   3.983  2.0464  0.3751  1.0271
14834TIP3   OH265992   0.350   0.413   0.367 -0.5382 -0.5132  0.4468
14834TIP3    H165993   0.364   0.329   0.325  2.2628  0.4959 -0.7760
14834TIP3    H265994   0.421   0.421   0.431  1.6738  2.5418 -2.2102
14835TIP3   OH265995   3.641   1.866  17.233 -0.6452 -0.2048 -0.0395
14835TIP3    H165996   3.623   1.800  17.166  1.3902 -0.0548 -0.7917
14835TIP3    H265997   3.640   1.818  17.315  0.8216 -1.2093 -0.5813
14836TIP3   OH265998   5.299   1.677   5.845 -0.2711  0.0545 -0.2692
14836TIP3    H165999   5.223   1.714   5.799 -1.9626 -1.9858  0.8232
14836TIP3    H266000   5.277   1.685   5.938  0.3120 -1.6492  0.0325
14837TIP3   OH266001   1.801   6.204  14.941  0.3303  0.3429 -0.1243
14837TIP3    H166002   1.895   6.186  14.944  0.2134 -0.5021 -1.1842
14837TIP3    H266003   1.759   6.120  14.963 -0.1844  0.9475  1.2968
14838TIP3   OH266004   3.259   5.984   0.900 -0.2661  0.1721 -0.1214
14838TIP3    H166005   3.317   5.953   0.829  0.5381  0.6025  0.3406
14838TIP3    H266006   3.184   5.925   0.896 -0.0194 -0.0994 -1.0424
14839TIP3   OH266007   2.841   5.500  16.966  0.1055  0.5243 -0.3014
14839TIP3    H166008   2.780   5.448  16.913  0.2436 -0.0763  0.1262
14839TIP3    H266009   2.924   5.453  16.961  0.0946  0.3979  0.5277
14840TIP3   OH266010   0.522   3.281  15.539 -0.0933 -0.0473  0.2859
14840TIP3    H166011   0.483   3.309  15.622  0.2918 -0.9949  0.7849
14840TIP3    H266012   0.479   3.198  15.518  0.4703 -0.2675 -0.0018
14841TIP3   OH266013   1.354   0.872  12.112 -0.5516  0.1105 -0.4201
14841TIP3    H166014   1.289   0.938  12.087 -1.4765 -1.1241 -1.3343
14841TIP3    H266015   1.359   0.813  12.036  2.6394  0.9351 -0.9223
14842TIP3   OH266016   0.582   5.759  14.677  0.1215  0.4618 -0.2942
14842TIP3    H166017   0.576   5.731  14.586  0.9990  2.2658 -0.9182
14842TIP3    H266018   0.509   5.819  14.689  0.2053  0.4845  0.1008
14843TIP3   OH266019   6.424   4.462  13.544  0.4466 -0.3350  0.2662
14843TIP3    H166020   6.382   4.376  13.543  0.4538 -0.3289 -1.5234
14843TIP3    H266021   6.497   4.452  13.605  0.0732 -1.4105  0.5504
14844TIP3   OH266022   5.922   6.418   0.988 -0.1121  0.4742  0.0985
14844TIP3    H166023   5.881   6.462   1.063  0.4112  1.8823 -0.4159
14844TIP3    H266024   6.015   6.421   1.007 -0.1188 -1.0276  0.3691
14845TIP3   OH266025   2.338   4.835  12.868  0.5605 -0.3023  0.0829
14845TIP3    H166026   2.294   4.920  12.862 -1.2681 -1.3763 -2.8218
14845TIP3    H266027   2.428   4.852  12.842  0.8002  1.1128  1.7293
14846TIP3   OH266028   0.998   6.431  15.222 -0.3112 -0.6773  0.4057
14846TIP3    H166029   1.088   6.459  15.238 -1.0077  1.8048  0.1100
14846TIP3    H266030   0.960   6.420  15.309  0.6020 -2.9108  0.5505
14847TIP3   OH266031   2.396   5.198   2.669 -0.5053 -0.4619 -0.4547
14847TIP3    H166032   2.416   5.276   2.618 -2.7563 -0.8550 -2.0032
14847TIP3    H266033   2.447   5.208   2.749  1.4720  1.1715 -1.8863
14848TIP3   OH266034   2.976   5.253   1.175 -0.4106 -0.0599 -0.2514
14848TIP3    H166035   2.958   5.339   1.215 -0.4269 -0.0212 -0.3414
14848TIP3    H266036   2.903   5.198   1.204 -1.1501  0.3287 -1.3123
14849TIP3   OH266037   6.671   3.731  14.023  0.0777  0.3562  0.1582
14849TIP3    H166038   6.748   3.765  14.069 -0.8974 -1.3118  3.1545
14849TIP3    H266039   6.699   3.645  13.990 -0.5151 -0.3063  1.3582
14850TIP3   OH266040   2.771   5.227  13.878 -0.0458  0.0028 -0.0838
14850TIP3    H166041   2.716   5.216  13.801  1.8418  0.0611 -1.4644
14850TIP3    H266042   2.760   5.145  13.927 -0.7504 -0.2963 -0.7299
14851TIP3   OH266043   1.443   2.221  14.218  0.7231 -0.0803  0.4047
14851TIP3    H166044   1.496   2.258  14.288 -0.0407  1.0982  0.3624
14851TIP3    H266045   1.397   2.296  14.179 -0.6768 -1.0284  0.1910
14852TIP3   OH266046   5.419   1.746  12.303 -0.8313  0.6055  0.6032
14852TIP3    H166047   5.456   1.783  12.383  1.0348 -0.7060  0.3900
14852TIP3    H266048   5.496   1.721  12.251 -2.0284  1.2370 -1.5015
14853TIP3   OH266049   0.223   5.150   3.126  0.1568 -0.1302 -0.2338
14853TIP3    H166050   0.226   5.173   3.219  0.4810 -0.2296 -0.2202
14853TIP3    H266051   0.308   5.110   3.108  0.9019  1.7763 -1.0683
14854TIP3   OH266052   2.065   0.391   2.210 -0.1384 -0.3416  0.0794
14854TIP3    H166053   2.037   0.412   2.299 -0.6351  0.6167 -0.2904
14854TIP3    H266054   1.983   0.379   2.162  0.1210 -0.5180 -0.3203
14855TIP3   OH266055   0.392   2.784   2.572  0.0753  0.3550  0.0302
14855TIP3    H166056   0.336   2.852   2.534 -0.0741  1.1828  1.6383
14855TIP3    H266057   0.331   2.715   2.599  0.1933 -0.2800 -1.3170
14856TIP3   OH266058   1.059   1.634   2.872  0.2042  0.8003  0.2328
14856TIP3    H166059   1.137   1.627   2.927  0.4508  2.2492  0.0652
14856TIP3    H266060   1.083   1.590   2.791  0.9964  1.6025  0.0282
14857TIP3   OH266061   2.158   2.259   4.942  0.3787 -0.0350  0.0798
14857TIP3    H166062   2.089   2.277   5.006 -0.8787  0.1787 -1.2984
14857TIP3    H266063   2.123   2.292   4.859  1.2516 -1.8312 -1.0469
14858TIP3   OH266064   3.474   3.046   5.127 -0.0628  0.2591 -0.7243
14858TIP3    H166065   3.516   3.128   5.152 -1.7840  1.5100 -1.8438
14858TIP3    H266066   3.441   3.009   5.208  0.7378  0.6438 -0.2165
14859TIP3   OH266067   1.262   2.087  14.034 -0.1894  0.1715 -0.1697
14859TIP3    H166068   1.313   2.078  14.115  0.6520  1.4716 -0.5381
14859TIP3    H266069   1.249   2.181  14.024 -0.8636 -0.0196 -1.1960
14860TIP3   OH266070   0.501   0.573   5.023 -0.5115 -0.7501 -0.0313
14860TIP3    H166071   0.525   0.546   4.934 -0.1770 -1.2087  0.1976
14860TIP3    H266072   0.523   0.497   5.077  1.0238  0.2218  0.7215
14861TIP3   OH266073   3.725   0.828   0.685  0.6327 -0.5719 -0.0150
14861TIP3    H166074   3.739   0.840   0.779  2.7353  2.6939 -0.6658
14861TIP3    H266075   3.770   0.745   0.665  2.3619 -0.0358  1.4529
14862TIP3   OH266076   5.050   1.955   0.513 -0.0980  0.3911 -0.0064
14862TIP3    H166077   4.959   1.926   0.507 -0.2428  0.5964  1.0977
14862TIP3    H266078   5.048   2.026   0.577  0.8611  0.3230  0.1011
14863TIP3   OH266079   4.632   4.549   5.020 -0.2369  0.6451  0.2438
14863TIP3    H166080   4.669   4.473   5.066 -1.5117 -0.5467 -0.6497
14863TIP3    H266081   4.562   4.579   5.078 -0.9536 -0.0229 -0.2631
14864TIP3   OH266082   2.743   1.343   2.256  0.7709 -0.4739 -0.2694
14864TIP3    H166083   2.798   1.300   2.191 -0.0215 -0.6836 -0.8060
14864TIP3    H266084   2.653   1.326   2.227  0.4251  2.2303 -0.9659
14865TIP3   OH266085   1.222   5.206   1.176  0.2794  0.0769  1.1101
14865TIP3    H166086   1.249   5.133   1.120  2.0007 -0.6238  2.8358
14865TIP3    H266087   1.276   5.280   1.147 -1.5905  0.7854 -0.7613
14866TIP3   OH266088   5.621   2.523   3.780  0.4098 -0.2761  0.2486
14866TIP3    H166089   5.636   2.548   3.689 -0.7150  0.1996  0.1972
14866TIP3    H266090   5.709   2.523   3.820  0.8772 -0.2890 -0.7725
14867TIP3   OH266091   0.922   4.057  13.808 -0.3249  0.0865 -0.3288
14867TIP3    H166092   0.908   3.969  13.842 -0.8897 -0.5683 -2.2102
14867TIP3    H266093   0.873   4.114  13.867 -0.2065 -0.8808  0.7162
14868TIP3   OH266094   5.921   4.267  14.036 -0.4535 -0.6063  0.6806
14868TIP3    H166095   5.911   4.269  14.132 -2.9594 -1.1944  0.4872
14868TIP3    H266096   5.916   4.359  14.010  2.2603 -0.2660  1.2568
14869TIP3   OH266097   5.454   3.307   3.472  0.1622 -0.2262  0.0662
14869TIP3    H166098   5.368   3.312   3.513 -0.4444 -0.9947 -1.0898
14869TIP3    H266099   5.480   3.398   3.459 -0.6769  0.0067  0.0145
14870TIP3   OH266100   1.273   2.630  11.027 -0.5437  0.3361 -0.9919
14870TIP3    H166101   1.277   2.605  10.935 -1.7792 -0.4639 -0.8372
14870TIP3    H266102   1.182   2.616  11.052 -0.2044  0.4802  0.3783
14871TIP3   OH266103   4.398   2.948  16.072 -0.0832 -0.0363  0.0148
14871TIP3    H166104   4.396   2.984  15.984 -0.4349  1.4825  0.6366
14871TIP3    H266105   4.367   2.858  16.062  1.9131 -0.5513 -1.7106
14872TIP3   OH266106   4.697   0.234   4.417  0.2206  0.0160 -0.1295
14872TIP3    H166107   4.623   0.286   4.386  1.8401  2.1667 -0.5651
14872TIP3    H266108   4.769   0.258   4.358  2.2433  0.9396  2.6322
14873TIP3   OH266109   0.739   1.445  15.964 -0.1230 -0.0035  0.1802
14873TIP3    H166110   0.733   1.536  15.991 -0.0901  0.1571 -0.3428
14873TIP3    H266111   0.795   1.446  15.886 -1.1660 -0.3016 -0.5937
14874TIP3   OH266112   4.838   0.546   3.024  0.3744 -0.1581 -0.2108
14874TIP3    H166113   4.762   0.488   3.022  0.2127 -0.0382  2.0898
14874TIP3    H266114   4.906   0.495   3.067  0.5187  0.9878  0.9491
14875TIP3   OH266115   5.733   3.080  17.159 -0.5658 -0.5027 -0.3053
14875TIP3    H166116   5.751   3.166  17.198  3.3932 -0.3417 -2.2341
14875TIP3    H266117   5.711   3.098  17.068 -1.8628 -1.3995 -0.1824
14876TIP3   OH266118   5.436   1.493   0.040 -0.2401  0.4861  0.1629
14876TIP3    H166119   5.482   1.443  -0.028 -2.1680  0.0351 -0.8490
14876TIP3    H266120   5.456   1.584   0.020  0.7635  0.2633  0.1342
14877TIP3   OH266121   4.220   5.221  11.350  0.4490 -0.3399  0.2114
14877TIP3    H166122   4.237   5.270  11.270  1.0009 -0.0935  0.4709
14877TIP3    H266123   4.125   5.217  11.357  0.3907  1.1522  0.4581
14878TIP3   OH266124   2.819   1.584   2.174 -0.3848  0.3570  0.4520
14878TIP3    H166125   2.833   1.563   2.082 -2.1717  2.5240 -0.3928
14878TIP3    H266126   2.785   1.503   2.213  0.9441 -0.7427 -0.6383
14879TIP3   OH266127   3.371   3.845  16.249  0.7062 -0.1278  0.3528
14879TIP3    H166128   3.341   3.769  16.299  1.1090 -0.7056 -0.2701
14879TIP3    H266129   3.464   3.852  16.268  0.3557  1.1786  1.6496
14880TIP3   OH266130   6.526   5.045  14.392  0.2004 -0.6821 -0.1375
14880TIP3    H166131   6.588   4.976  14.370 -1.2291 -2.0232 -0.0188
14880TIP3    H266132   6.458   5.039  14.325  0.4957  1.1781 -0.6263
14881TIP3   OH266133   3.413   4.046  10.461 -0.0326  0.3260  0.4846
14881TIP3    H166134   3.414   4.029  10.555  0.2544 -2.6541  0.0084
14881TIP3    H266135   3.495   4.092  10.444  0.7260 -0.6250  1.4702
14882TIP3   OH266136   3.494   3.695   5.731 -0.1245 -0.0446  0.0722
14882TIP3    H166137   3.531   3.783   5.726  0.7657 -0.4870 -1.2779
14882TIP3    H266138   3.570   3.637   5.729 -0.6543 -0.8321  1.9340
14883TIP3   OH266139   0.643   6.705  14.920 -0.2647 -0.5089 -0.0283
14883TIP3    H166140   0.686   6.750  14.993 -0.7803 -1.2428  0.7379
14883TIP3    H266141   0.562   6.754  14.906 -0.0385 -0.2048 -0.2991
14884TIP3   OH266142   3.855   2.989  10.457 -0.0920 -0.4768  0.4624
14884TIP3    H166143   3.924   2.947  10.405  1.0094 -0.2484  1.7286
14884TIP3    H266144   3.872   2.962  10.547 -0.7659  0.8034  0.9894
14885TIP3   OH266145   0.445   5.804  12.228  0.4873 -0.3066  0.3283
14885TIP3    H166146   0.351   5.799  12.211  0.1956  1.6530  1.2566
14885TIP3    H266147   0.452   5.820  12.322  1.7820 -0.8798  0.3475
14886TIP3   OH266148   5.943   1.573   3.191  0.1672  0.2619  0.6463
14886TIP3    H166149   6.038   1.577   3.178  0.0684  1.9871  0.3761
14886TIP3    H266150   5.930   1.600   3.282 -0.1744  1.4905  0.2353
14887TIP3   OH266151   4.642   2.492  15.807  0.2397 -0.4185  0.1926
14887TIP3    H166152   4.717   2.530  15.852  0.2829 -0.8959  0.5259
14887TIP3    H266153   4.610   2.562  15.749  1.4093 -0.4704 -0.5279
14888TIP3   OH266154   6.702   2.896  12.350  0.0014  0.0362 -0.0790
14888TIP3    H166155   6.614   2.901  12.313  0.4510 -1.0727 -1.3240
14888TIP3    H266156   6.733   2.809  12.327  1.1758  0.1686  0.9433
14889TIP3   OH266157   1.931   6.660   4.359 -0.1670  0.1903  0.1549
14889TIP3    H166158   1.891   6.692   4.440  1.2248  0.3045  0.8039
14889TIP3    H266159   2.021   6.692   4.362  0.0773 -0.3590 -1.1307
14890TIP3   OH266160   5.896   4.967  16.528  0.1748 -0.7328  0.1487
14890TIP3    H166161   5.867   4.901  16.464 -1.5038 -0.2609  0.3967
14890TIP3    H266162   5.955   4.919  16.586 -1.0426 -2.0474  0.3409
14891TIP3   OH266163   5.251   5.528  13.331 -0.3291 -0.2391 -0.0702
14891TIP3    H166164   5.183   5.485  13.279 -0.2850 -1.6629  1.0290
14891TIP3    H266165   5.211   5.541  13.417  0.4782 -0.2656  0.3107
14892TIP3   OH266166   5.310   4.188  11.637  0.7633 -0.5204 -0.1760
14892TIP3    H166167   5.322   4.278  11.606  1.5978  0.0975  1.8801
14892TIP3    H266168   5.340   4.190  11.728 -2.8639 -1.9895  1.1339
14893TIP3   OH266169   6.194   5.775   2.921 -0.1112 -0.3544  0.5558
14893TIP3    H166170   6.258   5.705   2.933  0.2577  0.0172  0.7646
14893TIP3    H266171   6.159   5.760   2.833  0.9137 -0.0218  0.0903
14894TIP3   OH266172   4.832   2.886  13.572 -0.2354 -0.1554  1.2351
14894TIP3    H166173   4.834   2.806  13.625 -1.9274 -0.4522  0.9055
14894TIP3    H266174   4.785   2.949  13.625  0.4050  0.3800  1.1669
14895TIP3   OH266175   0.656   3.266  12.852 -0.4553 -0.2091 -0.0654
14895TIP3    H166176   0.751   3.270  12.836 -0.0369  0.6527  2.5086
14895TIP3    H266177   0.617   3.302  12.772  1.3930 -0.1949 -0.9898
14896TIP3   OH266178   5.986   2.568  16.180 -0.1047  0.9138  0.3985
14896TIP3    H166179   6.029   2.499  16.230  0.8715  0.7032 -0.7189
14896TIP3    H266180   6.038   2.576  16.100 -2.0102  0.8340 -0.8630
14897TIP3   OH266181   2.449   5.842  13.839 -0.2894  0.0338 -0.1155
14897TIP3    H166182   2.407   5.757  13.831 -0.5649  0.2266 -0.7772
14897TIP3    H266183   2.535   5.829  13.798  0.9339 -0.7801  2.6051
14898TIP3   OH266184   0.979   0.946  13.188 -0.1202 -0.1872 -0.3474
14898TIP3    H166185   0.996   0.943  13.283 -0.4647 -1.1507 -0.3097
14898TIP3    H266186   0.935   1.029  13.174  0.3338  0.1674  0.2720
14899TIP3   OH266187   1.674   4.263  16.293  0.2772 -0.2428  0.1097
14899TIP3    H166188   1.744   4.318  16.260  1.2187  0.4228  3.1191
14899TIP3    H266189   1.662   4.290  16.384 -3.0221 -1.2074  0.0415
14900TIP3   OH266190   5.864   4.428  12.677  0.3022  0.1723  0.0752
14900TIP3    H166191   5.816   4.510  12.678 -0.1440 -0.0782  1.9051
14900TIP3    H266192   5.822   4.375  12.609 -0.7731  0.6725  0.3499
14901TIP3   OH266193   3.339   5.837   5.243 -0.2556  0.0987 -0.4539
14901TIP3    H166194   3.285   5.891   5.185  0.2862  1.7591  0.5196
14901TIP3    H266195   3.285   5.826   5.322  0.3476  0.7902  0.0671
14902TIP3   OH266196   3.308   4.326   3.632 -0.2554 -0.6154 -0.0413
14902TIP3    H166197   3.279   4.252   3.686 -0.5028  2.0096  3.5882
14902TIP3    H266198   3.400   4.338   3.654 -0.4905  0.8013  0.2486
14903TIP3   OH266199   6.631   2.952  11.190 -0.3397  0.8198 -0.2856
14903TIP3    H166200   6.590   2.885  11.243 -1.1086  2.0024  0.6444
14903TIP3    H266201   6.568   2.970  11.120  0.0334  0.3048 -0.7586
14904TIP3   OH266202   5.013   4.110   5.456  0.0291  0.8883  0.1463
14904TIP3    H166203   5.014   4.138   5.547  2.3057  1.8830 -0.1532
14904TIP3    H266204   4.930   4.142   5.422 -1.1908 -0.1395  2.0388
14905TIP3   OH266205   1.971   0.746  13.501 -0.6905  0.0936 -0.4698
14905TIP3    H166206   2.051   0.731  13.550  0.3310  3.3392 -1.0761
14905TIP3    H266207   1.975   0.684  13.428  0.6757 -0.5463  0.1458
14906TIP3   OH266208   0.652   1.041   1.739 -0.0580  0.3009 -0.7522
14906TIP3    H166209   0.661   1.125   1.784 -1.4115 -1.2262  2.5114
14906TIP3    H266210   0.557   1.032   1.726  0.0067 -1.0930 -0.3036
14907TIP3   OH266211   4.768   5.440   2.300 -0.2749 -0.4702  0.1791
14907TIP3    H166212   4.736   5.456   2.211 -1.1279 -1.2105  0.3516
14907TIP3    H266213   4.858   5.473   2.299 -0.3516 -0.2766 -0.8955
14908TIP3   OH266214   6.401   0.668  15.357  1.0178  0.2710  0.6759
14908TIP3    H166215   6.483   0.674  15.406  1.3013 -0.5555  0.3110
14908TIP3    H266216   6.394   0.752  15.312  0.8417  0.9683  1.9814
14909TIP3   OH266217   2.571   2.942   1.470 -0.1709  0.3346  1.0360
14909TIP3    H166218   2.505   2.950   1.401  0.7950  1.9943  0.2686
14909TIP3    H266219   2.523   2.913   1.547 -1.2755 -1.5568 -0.3357
14910TIP3   OH266220   3.725   5.651   5.786  0.1715  0.2358  0.1341
14910TIP3    H166221   3.687   5.565   5.805 -2.0268  0.8990 -1.0549
14910TIP3    H266222   3.687   5.676   5.702  2.7202  1.3022 -0.7443
14911TIP3   OH266223   0.013   6.698   2.472 -0.0600 -0.2633  0.3737
14911TIP3    H166224   0.086   6.741   2.427  0.2341 -0.0905  1.0120
14911TIP3    H266225  -0.036   6.771   2.511  0.2140 -0.4800  1.1237
14912TIP3   OH266226   2.238   0.807   5.004  0.0137 -0.8889 -0.1343
14912TIP3    H166227   2.296   0.821   5.079  2.4654 -0.4474 -2.0429
14912TIP3    H266228   2.202   0.719   5.017  0.5629 -0.8982  1.4431
14913TIP3   OH266229   4.400   2.737  12.632 -0.3891 -0.5902 -0.0896
14913TIP3    H166230   4.425   2.651  12.667 -0.4557 -0.3807  0.4764
14913TIP3    H266231   4.317   2.758  12.676 -0.1490 -0.0396  0.1049
14914TIP3   OH266232   5.740   4.085   1.736  0.0889  0.1668  0.3391
14914TIP3    H166233   5.817   4.142   1.741  0.6603 -0.5674 -0.0421
14914TIP3    H266234   5.774   3.997   1.750 -0.7036 -0.1499  0.3013
14915TIP3   OH266235   2.184   1.637  10.925 -0.4991 -0.4115 -0.4342
14915TIP3    H166236   2.245   1.710  10.925 -0.6670 -0.2659 -1.8884
14915TIP3    H266237   2.103   1.673  10.961 -0.7780  0.2839 -1.7519
14916TIP3   OH266238   0.521   5.678  14.435  0.0562  0.1325 -0.3188
14916TIP3    H166239   0.464   5.608  14.403 -0.3401  0.5031 -0.4320
14916TIP3    H266240   0.468   5.757  14.427  0.0363  0.2632  1.0648
14917TIP3   OH266241   4.298   4.377  12.437 -0.6466  0.3633  0.6815
14917TIP3    H166242   4.386   4.384  12.401  0.1402  0.3947  2.5671
14917TIP3    H266243   4.249   4.327  12.372  0.9291 -0.1814 -0.0951
14918TIP3   OH266244   0.927   2.916   1.487 -0.4271 -0.2115  0.1830
14918TIP3    H166245   0.838   2.939   1.463 -0.3507  0.8237  0.8674
14918TIP3    H266246   0.918   2.854   1.559 -0.5974 -0.3388  0.0509
14919TIP3   OH266247   4.799   1.370  16.152  0.0186  0.3978  0.4611
14919TIP3    H166248   4.894   1.380  16.157  0.3928 -1.0742 -2.5686
14919TIP3    H266249   4.780   1.295  16.209  1.4302 -2.8222 -3.1124
14920TIP3   OH266250   1.999   2.830   6.083 -0.0556 -0.2851  0.0969
14920TIP3    H166251   1.930   2.773   6.116  1.3607 -1.2349  1.5337
14920TIP3    H266252   2.014   2.894   6.152  0.9611 -0.5237  0.1201
14921TIP3   OH266253   2.511   0.475   1.482  0.2159 -0.0787  0.2386
14921TIP3    H166254   2.591   0.470   1.430  0.0222 -0.4037 -0.0339
14921TIP3    H266255   2.470   0.389   1.471 -0.6169  0.3776 -0.3585
14922TIP3   OH266256   5.499   6.682   1.929 -0.2964 -0.0187 -0.0549
14922TIP3    H166257   5.501   6.609   1.991 -0.5967  0.4961  0.5656
14922TIP3    H266258   5.530   6.758   1.980 -0.1386  0.3225 -0.6489
14923TIP3   OH266259   4.128   2.038  14.690  0.2939 -0.4382  0.4880
14923TIP3    H166260   4.080   2.115  14.661  0.8318 -0.3424 -0.1439
14923TIP3    H266261   4.202   2.073  14.740  1.8182 -0.4615 -1.7100
14924TIP3   OH266262   4.780   4.058  14.297 -0.0166  0.8700  0.9450
14924TIP3    H166263   4.762   4.139  14.344  1.2298  1.8719 -0.2794
14924TIP3    H266264   4.876   4.057  14.286  0.1945 -1.6474  2.5396
14925TIP3   OH266265   2.360   3.778  12.631  0.6097  0.4696 -0.5458
14925TIP3    H166266   2.360   3.785  12.536  2.2173  0.0223 -0.5974
14925TIP3    H266267   2.434   3.720  12.651  0.0722  0.2681  0.9514
14926TIP3   OH266268   5.507   0.598   4.771 -0.1622  0.4710 -0.0640
14926TIP3    H166269   5.484   0.615   4.679 -1.2660 -0.6442 -0.0134
14926TIP3    H266270   5.538   0.682   4.804 -0.7392  1.1387 -1.1882
14927TIP3   OH266271   5.277   5.768   5.222 -0.4579  0.6769 -0.6175
14927TIP3    H166272   5.223   5.847   5.216  0.9012  1.6644 -0.0057
14927TIP3    H266273   5.319   5.775   5.308 -0.6894 -0.9526 -0.3646
14928TIP3   OH266274   5.021   0.496   3.208 -0.4747  0.3929 -0.4927
14928TIP3    H166275   5.028   0.571   3.267  0.8562 -0.2572  0.1969
14928TIP3    H266276   5.015   0.420   3.266 -1.3108 -0.0783 -1.1893
14929TIP3   OH266277   3.373   4.535  11.574  0.3417 -0.0347 -0.2579
14929TIP3    H166278   3.447   4.538  11.635  0.6110  1.4055 -0.6154
14929TIP3    H266279   3.413   4.512  11.490  0.6217  1.9970 -0.7248
14930TIP3   OH266280   5.901   2.665  17.093  0.0731 -0.1062  0.0553
14930TIP3    H166281   5.810   2.651  17.119 -0.4178 -0.5339 -1.8283
14930TIP3    H266282   5.944   2.581  17.109 -0.4491 -0.6573 -1.3740
14931TIP3   OH266283   1.648   1.527  11.747  0.0560 -0.0910  0.2077
14931TIP3    H166284   1.742   1.533  11.762  0.0203  0.4334  0.2278
14931TIP3    H266285   1.613   1.609  11.780 -0.5973 -0.9153  1.6219
14932TIP3   OH266286   2.279   0.054  15.645  0.2463 -0.0609  0.1077
14932TIP3    H166287   2.220   0.062  15.570 -1.1588 -0.6042  1.1335
14932TIP3    H266288   2.362   0.022  15.608 -0.1652  0.5208 -1.3140
14933TIP3   OH266289   2.983   4.554   5.346  0.0127  0.0651 -0.0244
14933TIP3    H166290   2.968   4.531   5.438 -0.6335 -0.0769 -0.1683
14933TIP3    H266291   2.937   4.638   5.334  0.2411  0.1702 -0.1735
14934TIP3   OH266292   5.227   3.700   5.468  0.2813 -0.4894  0.3008
14934TIP3    H166293   5.145   3.693   5.516  0.2186 -0.0143  0.2706
14934TIP3    H266294   5.207   3.663   5.382  0.1477 -0.5313  0.3492
14935TIP3   OH266295   5.199   5.061  13.517 -0.2614 -0.1731  0.0531
14935TIP3    H166296   5.239   4.977  13.495 -1.3718 -0.8979  0.7463
14935TIP3    H266297   5.143   5.081  13.442  0.6279  0.3508 -0.4727
14936TIP3   OH266298   2.743   3.480   0.081 -0.5220  0.1745  0.3346
14936TIP3    H166299   2.651   3.501   0.069 -0.5555 -0.2883 -0.2211
14936TIP3    H266300   2.757   3.401   0.029  0.9039  1.9393 -2.0276
14937TIP3   OH266301   4.592   3.289  15.348 -0.0198 -0.1999 -0.3944
14937TIP3    H166302   4.683   3.262  15.340 -0.1158 -0.3500 -0.9814
14937TIP3    H266303   4.578   3.349  15.275  0.3851  2.0050  1.2847
14938TIP3   OH266304   3.366   5.769   3.500 -0.5351 -0.1070 -0.0158
14938TIP3    H166305   3.381   5.712   3.575 -2.6209 -1.4077 -0.5346
14938TIP3    H266306   3.426   5.841   3.512  2.4262 -2.5668  0.5039
14939TIP3   OH266307   2.335   3.723   3.204 -0.1655 -0.3778 -0.1958
14939TIP3    H166308   2.352   3.801   3.256  0.4968 -1.2069  0.8473
14939TIP3    H266309   2.248   3.738   3.165  0.8814  1.8221 -1.7754
14940TIP3   OH266310   6.395   1.075  13.008 -0.2421 -0.0136  0.0348
14940TIP3    H166311   6.317   1.098  13.058  0.6523  1.6358  0.6798
14940TIP3    H266312   6.361   1.048  12.923 -1.5088  0.7219  0.2907
14941TIP3   OH266313   1.331   2.649  10.534  0.5627  0.3789 -0.8886
14941TIP3    H166314   1.282   2.599  10.599  0.3718  0.2535 -1.1257
14941TIP3    H266315   1.283   2.731  10.525  0.0130 -0.0120 -1.6061
14942TIP3   OH266316   6.479   1.090  12.102  0.1962  0.0835  0.3610
14942TIP3    H166317   6.461   1.110  12.194 -1.6255 -2.5063  0.6095
14942TIP3    H266318   6.569   1.056  12.101 -0.6766 -2.3032  1.5828
14943TIP3   OH266319   0.078   3.973   0.217 -0.1600  0.0350  0.3113
14943TIP3    H166320   0.084   4.012   0.304  0.3626  1.1177 -0.1961
14943TIP3    H266321   0.043   4.043   0.162  0.4695 -0.3080 -0.5422
14944TIP3   OH266322   2.143   4.314  16.053 -0.4856 -0.8160 -0.2564
14944TIP3    H166323   2.085   4.280  15.986 -1.5937 -0.6316  0.5939
14944TIP3    H266324   2.215   4.354  16.004 -0.1359 -2.6557 -1.2808
14945TIP3   OH266325   1.830   1.755  12.273 -0.4373  0.2165 -0.0705
14945TIP3    H166326   1.792   1.792  12.194  0.1077 -0.0715 -0.4698
14945TIP3    H266327   1.778   1.792  12.344 -0.0583  1.5809 -0.4716
14946TIP3   OH266328   1.218   5.838  16.544  0.1440  0.7157  0.7488
14946TIP3    H166329   1.152   5.893  16.586 -0.3398 -0.0262  0.9906
14946TIP3    H266330   1.211   5.754  16.590  0.3987  0.2460 -0.0519
14947TIP3   OH266331   4.720   1.162  15.393 -0.0525  0.3106  0.4950
14947TIP3    H166332   4.715   1.205  15.478 -0.7590  1.6554 -0.2175
14947TIP3    H266333   4.639   1.111  15.386 -0.5380  1.1192  0.1481
14948TIP3   OH266334   0.003   0.857  11.306  0.4217 -0.3642  0.2749
14948TIP3    H166335   0.020   0.936  11.256 -0.4109 -0.0403  0.4975
14948TIP3    H266336   0.059   0.865  11.383  2.7455 -1.5195 -1.2534
14949TIP3   OH266337   2.909   0.745  15.731  0.2771  0.2238 -0.1005
14949TIP3    H166338   2.863   0.792  15.662  0.6331 -0.6693 -0.9612
14949TIP3    H266339   2.858   0.665  15.744  0.7243 -0.0443  0.0275
14950TIP3   OH266340   0.560   4.996  16.551 -0.2091 -0.4497 -0.2889
14950TIP3    H166341   0.655   4.987  16.541 -0.3939 -1.8034 -1.0602
14950TIP3    H266342   0.532   4.910  16.583 -1.4081 -0.7277 -2.0233
14951TIP3   OH266343   6.212   0.842   5.247  0.2075 -0.1672  0.5690
14951TIP3    H166344   6.154   0.865   5.320  0.0972 -2.7149  1.3381
14951TIP3    H266345   6.299   0.833   5.287 -0.0640 -2.7190  0.6335
14952TIP3   OH266346   1.439   3.567  12.760 -0.3573 -0.1215  0.1267
14952TIP3    H166347   1.395   3.553  12.676 -1.3109  0.3950  0.5304
14952TIP3    H266348   1.431   3.661  12.776 -1.1282 -0.3713  1.2936
14953TIP3   OH266349   5.464   5.269  12.255 -0.2639 -0.2041 -0.0460
14953TIP3    H166350   5.489   5.284  12.346  0.7702 -1.7215 -0.0579
14953TIP3    H266351   5.368   5.262  12.258 -0.2322 -0.3653  0.9558
14954TIP3   OH266352   5.347   6.372   2.382  0.3889 -0.1556  0.7329
14954TIP3    H166353   5.261   6.347   2.418  0.1605 -0.9824 -0.3613
14954TIP3    H266354   5.410   6.326   2.438  0.0962  0.0319  1.2197
14955TIP3   OH266355   2.184   0.579   1.012 -0.6049  0.5625 -0.5043
14955TIP3    H166356   2.157   0.670   1.018  1.0177  0.9959  0.5462
14955TIP3    H266357   2.158   0.540   1.096 -0.0800  0.4147 -0.4053
14956TIP3   OH266358   3.714   1.491   4.946 -0.0204 -0.6024 -0.7921
14956TIP3    H166359   3.738   1.479   4.854  1.8088  3.0270 -0.9048
14956TIP3    H266360   3.630   1.536   4.944 -0.0911 -0.7295 -0.6876
14957TIP3   OH266361   0.344   4.184  13.804 -0.0924 -0.1190 -0.1226
14957TIP3    H166362   0.284   4.172  13.878 -2.8333  1.5959 -1.9663
14957TIP3    H266363   0.347   4.099  13.761  2.2567 -1.4020  2.3932
14958TIP3   OH266364   2.735   6.289   1.304 -0.4315  0.0907  0.0016
14958TIP3    H166365   2.795   6.216   1.317  0.0896  0.7109  1.1357
14958TIP3    H266366   2.675   6.259   1.235  0.4735 -0.9596 -0.3367
14959TIP3   OH266367   2.510   1.305   2.139 -0.6491 -0.0340  0.1073
14959TIP3    H166368   2.510   1.223   2.090  1.0219 -1.1784  1.9356
14959TIP3    H266369   2.428   1.304   2.188  0.1326 -1.4779  1.4467
14960TIP3   OH266370   6.375   6.221   6.044 -0.5954  0.1402  0.3459
14960TIP3    H166371   6.344   6.310   6.063  0.3120  0.2942  1.1190
14960TIP3    H266372   6.470   6.226   6.054 -0.3680 -0.4959 -1.3652
14961TIP3   OH266373   1.073   4.680  13.589  0.0357  0.8185  0.3723
14961TIP3    H166374   1.146   4.618  13.585  0.7674  1.7193 -0.5864
14961TIP3    H266375   1.068   4.704  13.682 -0.5859 -1.0428  0.8317
14962TIP3   OH266376   4.030   6.723  11.283 -0.0651  0.2009  0.1342
14962TIP3    H166377   4.040   6.696  11.374  1.5726 -1.2741 -0.4452
14962TIP3    H266378   4.006   6.816  11.288 -1.5290 -0.2518  2.0729
14963TIP3   OH266379   6.036   6.256   3.617  0.1075 -0.0064  0.4800
14963TIP3    H166380   6.113   6.312   3.622 -0.6498  1.0065  0.8424
14963TIP3    H266381   6.019   6.247   3.523 -0.0161  0.7011  0.4359
14964TIP3   OH266382   2.587   6.614   4.650 -0.2895 -0.2159  0.7361
14964TIP3    H166383   2.561   6.688   4.595  0.0777  0.0244  0.8829
14964TIP3    H266384   2.649   6.564   4.596  1.6853  1.1473  1.6541
14965TIP3   OH266385   6.150   4.033  16.305 -0.1089 -0.8862 -0.4441
14965TIP3    H166386   6.206   4.078  16.242 -1.2749 -0.1739 -0.9803
14965TIP3    H266387   6.068   4.017  16.258 -1.2380  0.2443  1.0705
14966TIP3   OH266388   1.407   0.490   2.981 -0.7455 -0.3259 -0.6101
14966TIP3    H166389   1.437   0.452   3.064  1.0280 -0.5946 -1.3547
14966TIP3    H266390   1.314   0.508   2.996 -0.6117 -0.9745  1.2150
14967TIP3   OH266391   6.607   2.435  11.074  0.4753  0.3158  0.0027
14967TIP3    H166392   6.674   2.366  11.072 -0.7420 -1.0231  2.4553
14967TIP3    H266393   6.549   2.414  11.000  1.7317  0.4367 -1.0346
14968TIP3   OH266394   6.685   0.347   5.493 -0.6841 -0.3344 -0.3652
14968TIP3    H166395   6.749   0.400   5.540 -0.4499  0.8204 -1.9465
14968TIP3    H266396   6.627   0.314   5.561  0.2386  0.4866  0.8414
14969TIP3   OH266397   0.682   3.043  16.982 -0.1549  0.5359 -0.4074
14969TIP3    H166398   0.615   3.106  17.010 -0.7030 -0.6379  0.9887
14969TIP3    H266399   0.641   2.995  16.910 -1.3971 -1.1522  1.3778
14970TIP3   OH266400   3.707   3.351  16.821  0.3228 -0.5525 -0.3396
14970TIP3    H166401   3.633   3.400  16.785  0.8963 -0.5984 -1.6213
14970TIP3    H266402   3.667   3.281  16.872 -0.5287 -0.7945 -1.3213
14971TIP3   OH266403   1.170   5.036  16.739  0.6353 -0.6331  0.4216
14971TIP3    H166404   1.265   5.039  16.750  0.6586 -2.2030  0.7951
14971TIP3    H266405   1.154   4.955  16.690 -0.4708 -0.1558 -0.0196
14972TIP3   OH266406   0.016   6.304   6.409 -0.0020  0.3230  0.4851
14972TIP3    H166407   0.059   6.226   6.374 -0.3705  1.4072 -2.5284
14972TIP3    H266408   0.060   6.321   6.492  3.2691 -0.3882 -1.0578
14973TIP3   OH266409   0.595   2.259   1.258  0.6086 -0.2724  0.2743
14973TIP3    H166410   0.680   2.222   1.234 -0.0106 -0.3355 -1.9327
14973TIP3    H266411   0.614   2.349   1.283  1.6900 -1.0895  2.5722
14974TIP3   OH266412   2.703   5.576  16.693 -0.4349 -0.1621 -0.7947
14974TIP3    H166413   2.701   5.595  16.600  0.5568 -1.3182 -1.0618
14974TIP3    H266414   2.660   5.491  16.702 -0.4523 -0.0981 -0.2103
14975TIP3   OH266415   3.675   1.852  15.680 -0.7156  0.1007 -0.4142
14975TIP3    H166416   3.643   1.912  15.746 -0.0200  1.3304 -1.1729
14975TIP3    H266417   3.598   1.830  15.627 -0.8469  0.8267 -0.5204
14976TIP3   OH266418   0.384   1.748   6.355  0.6021  0.4088  0.0750
14976TIP3    H166419   0.433   1.737   6.437 -0.7683 -0.5126  0.7831
14976TIP3    H266420   0.433   1.697   6.291  1.3080  0.5866  0.4679
14977TIP3   OH266421   6.562   2.858  14.521  0.2642 -0.5991  0.3565
14977TIP3    H166422   6.507   2.887  14.448 -0.0131 -0.8963  0.4490
14977TIP3    H266423   6.571   2.763  14.508 -2.4952 -1.1902  2.5428
14978TIP3   OH266424   5.118   6.733   1.287 -0.2888 -0.0939  0.4318
14978TIP3    H166425   5.087   6.681   1.361  1.3722  0.3025  1.4340
14978TIP3    H266426   5.126   6.822   1.322  1.1732 -0.0379 -0.0123
14979TIP3   OH266427   2.233   2.977   4.913  0.4337  0.0749 -0.5108
14979TIP3    H166428   2.280   3.044   4.962  0.0941 -0.2373  0.2459
14979TIP3    H266429   2.237   3.007   4.822  1.7020  0.2837 -0.3983
14980TIP3   OH266430   5.317   3.998  12.680  0.4764 -1.2111  0.2886
14980TIP3    H166431   5.265   3.934  12.632 -0.4072 -1.9286  2.1490
14980TIP3    H266432   5.291   4.083  12.643  0.5037 -1.7951 -1.1105
14981TIP3   OH266433   3.763   0.076   1.453 -0.7380 -0.1987  0.5951
14981TIP3    H166434   3.728   0.038   1.373 -1.4385 -0.4630  1.0262
14981TIP3    H266435   3.692   0.129   1.488  0.8561  3.1092 -1.0160
14982TIP3   OH266436   1.436   4.571  14.158  0.0590 -0.3005  0.1685
14982TIP3    H166437   1.502   4.505  14.136  0.1468  0.3648 -1.6806
14982TIP3    H266438   1.359   4.521  14.185  0.3698 -1.1468 -0.4785
14983TIP3   OH266439   6.776   0.226   3.178  0.0872 -0.5381 -0.0553
14983TIP3    H166440   6.849   0.288   3.178  1.3192 -1.9379  1.4046
14983TIP3    H266441   6.704   0.273   3.220  0.3319  0.6324 -0.9287
14984TIP3   OH266442   6.019   0.076   0.599 -0.2677  0.1258 -0.1409
14984TIP3    H166443   5.953   0.143   0.612 -1.9862 -1.3711 -0.8644
14984TIP3    H266444   6.040   0.081   0.506 -0.5881 -0.4922 -0.2502
14985TIP3   OH266445   2.916   2.557   4.926  0.0018 -0.4391  0.6181
14985TIP3    H166446   2.893   2.472   4.888  0.5525 -1.2103  1.9613
14985TIP3    H266447   2.894   2.548   5.019 -0.7841  1.2031  0.6046
14986TIP3   OH266448   0.475   6.163  14.604 -0.0066 -0.2899  0.0307
14986TIP3    H166449   0.394   6.149  14.653 -0.9198  1.1488 -1.0656
14986TIP3    H266450   0.488   6.082  14.556 -1.4715 -0.0668 -0.7608
14987TIP3   OH266451   6.105   1.447   4.974 -0.4381 -0.4528 -0.1735
14987TIP3    H166452   6.033   1.431   5.035 -1.2037 -0.0924 -0.9691
14987TIP3    H266453   6.183   1.453   5.030 -1.0385 -0.7369  0.7054
14988TIP3   OH266454   5.256   3.257   4.679  0.1095 -0.1707  0.3965
14988TIP3    H166455   5.174   3.283   4.636 -0.6077 -1.9769  0.6259
14988TIP3    H266456   5.268   3.323   4.748  0.7200  2.1263 -1.8385
14989TIP3   OH266457   1.625   1.770   3.724 -0.1127  0.4335 -0.1478
14989TIP3    H166458   1.717   1.795   3.737 -0.1345  0.6076 -0.3159
14989TIP3    H266459   1.625   1.675   3.725  0.3697  0.3867 -2.1106
14990TIP3   OH266460   0.017   6.523  16.160 -0.0375 -0.1757 -0.2206
14990TIP3    H166461  -0.033   6.441  16.151 -0.2378  0.0362 -1.0694
14990TIP3    H266462   0.101   6.505  16.117 -0.2199  0.1750 -0.7308
14991TIP3   OH266463   2.382   6.149  14.995  0.5228 -0.2253 -0.6497
14991TIP3    H166464   2.402   6.163  14.903 -0.9428  1.2009 -0.7743
14991TIP3    H266465   2.345   6.061  14.999 -0.3634  0.0891 -1.5934
14992TIP3   OH266466   3.232   4.551   1.890  0.4493  0.3973 -0.6212
14992TIP3    H166467   3.290   4.481   1.859  1.5490  0.3499  1.4706
14992TIP3    H266468   3.291   4.613   1.933 -1.0735  0.2317  1.7593
14993TIP3   OH266469   0.826   2.184   2.570  0.0484  0.2339 -0.2676
14993TIP3    H166470   0.900   2.154   2.517  0.7170 -0.1898  0.8903
14993TIP3    H266471   0.862   2.197   2.657 -0.2228  4.4323 -0.6743
14994TIP3   OH266472   3.253   0.448  10.379  0.3291  0.4030 -0.2938
14994TIP3    H166473   3.244   0.373  10.437 -1.3834  0.7800 -0.0293
14994TIP3    H266474   3.163   0.481  10.369  0.7965  1.2112 -1.9925
14995TIP3   OH266475   2.297   3.863   2.625  0.1765 -0.0679  0.4321
14995TIP3    H166476   2.348   3.847   2.545 -0.4290 -0.3027  0.0866
14995TIP3    H266477   2.222   3.915   2.595  0.3402  0.4965  0.9801
14996TIP3   OH266478   3.893   1.187   4.801 -0.0058 -0.0760 -0.3363
14996TIP3    H166479   3.930   1.271   4.828  2.1714 -0.2536 -2.5551
14996TIP3    H266480   3.831   1.209   4.731  0.2291 -0.2682 -0.6060
14997TIP3   OH266481   5.886   5.766   5.117  0.1110 -0.1267 -0.6639
14997TIP3    H166482   5.858   5.822   5.189  0.1818 -0.8990 -0.0257
14997TIP3    H266483   5.953   5.816   5.071  0.6704  0.0258  0.3171
14998TIP3   OH266484   1.212   5.220   0.297 -0.7292 -0.2093 -0.0386
14998TIP3    H166485   1.276   5.221   0.368  0.1855 -0.2074 -0.8436
14998TIP3    H266486   1.150   5.289   0.318  0.0558  0.3913  0.2894
14999TIP3   OH266487   3.459   1.239   2.512  0.0642 -0.0805 -0.0789
14999TIP3    H166488   3.396   1.167   2.515 -1.1694  0.8119 -2.5380
14999TIP3    H266489   3.405   1.317   2.494  1.6450  1.0048 -0.2045
15000TIP3   OH266490   1.156   6.211  14.968 -0.0878 -0.1444  0.0690
15000TIP3    H166491   1.090   6.207  14.899 -1.5265  0.6577  1.3506
15000TIP3    H266492   1.125   6.150  15.035  1.7442 -1.5738 -0.3292
15001TIP3   OH266493   2.222   3.449   1.911 -0.6530  0.5772  0.2517
15001TIP3    H166494   2.211   3.531   1.862 -0.5574  0.5905  0.2523
15001TIP3    H266495   2.173   3.385   1.861 -1.4179  0.8116  0.6958
15002TIP3   OH266496   5.151   3.326   5.222 -0.3208  0.7386  0.0252
15002TIP3    H166497   5.182   3.366   5.141  1.2247 -0.3887  0.0526
15002TIP3    H266498   5.057   3.344   5.222 -0.0126  2.5390 -0.9869
15003TIP3   OH266499   4.024   1.164  16.900  0.2085 -0.0803 -0.3783
15003TIP3    H166500   3.994   1.074  16.892  0.4397 -0.2489  0.6593
15003TIP3    H266501   4.073   1.167  16.982  0.4749  0.9143 -0.5595
15004TIP3   OH266502   0.431   0.448   5.501 -0.4493 -0.0151 -0.2301
15004TIP3    H166503   0.504   0.386   5.500  0.4545  0.9139  3.1618
15004TIP3    H266504   0.446   0.503   5.578 -3.6732  1.4847 -0.5706
15005TIP3   OH266505   6.289   4.660   2.413  0.1171 -0.3502  0.5083
15005TIP3    H166506   6.271   4.567   2.428  0.1679 -0.7587 -1.8528
15005TIP3    H266507   6.356   4.661   2.345 -0.6260  1.4402 -0.2236
15006TIP3   OH266508   6.701   4.596   1.821  0.7280  0.2618  0.3075
15006TIP3    H166509   6.697   4.569   1.729 -0.6891  0.0843  0.4041
15006TIP3    H266510   6.629   4.659   1.830  1.1427  0.6198  1.1942
15007TIP3   OH266511   0.873   1.372   4.898 -0.5474  0.1422 -0.2953
15007TIP3    H166512   0.778   1.365   4.910 -0.3829 -0.3098  0.7982
15007TIP3    H266513   0.892   1.312   4.825 -1.3421  1.6722 -1.8011
15008TIP3   OH266514   6.709   1.533  15.420 -0.0178 -0.3305 -0.3654
15008TIP3    H166515   6.758   1.602  15.374  1.6834  0.0088  1.8377
15008TIP3    H266516   6.643   1.581  15.470  1.0323 -0.2809  1.0054
15009TIP3   OH266517   2.021   0.016  12.056 -0.0620 -0.3642  0.5856
15009TIP3    H166518   2.041   0.107  12.077  3.4211 -0.8736 -0.1100
15009TIP3    H266519   1.987  -0.021  12.138 -0.5684  1.2974  1.1388
15010TIP3   OH266520   6.790   4.609  15.806  0.0063  0.5126 -0.0542
15010TIP3    H166521   6.871   4.622  15.855  0.3741  1.3035 -0.8532
15010TIP3    H266522   6.819   4.583  15.718 -0.5935  1.1678 -0.4464
15011TIP3   OH266523   2.863   5.156   3.555 -0.2245 -0.2341  0.1370
15011TIP3    H166524   2.923   5.148   3.481 -0.7690 -0.2492 -0.3080
15011TIP3    H266525   2.886   5.082   3.612  0.0294 -0.3737 -0.1433
15012TIP3   OH266526   5.913   2.695  15.133 -0.2239 -0.4750  0.6467
15012TIP3    H166527   5.942   2.759  15.068 -2.7291  0.8267  0.7145
15012TIP3    H266528   5.917   2.742  15.217 -1.4312 -0.5989  0.7847
15013TIP3   OH266529   3.056   4.442  14.156 -0.6086 -0.3827 -0.2667
15013TIP3    H166530   3.068   4.536  14.161 -0.2855 -0.4679  0.6818
15013TIP3    H266531   3.053   4.423  14.062  0.7529  0.3902 -0.4781
15014TIP3   OH266532   0.841   2.153   0.402 -0.5841 -0.2348  0.6320
15014TIP3    H166533   0.825   2.142   0.496  0.3372 -1.3699  0.6565
15014TIP3    H266534   0.865   2.066   0.371 -1.2949  0.0469 -0.7434
15015TIP3   OH266535   2.240   3.055  13.297 -0.4132  0.0764  0.4841
15015TIP3    H166536   2.314   2.995  13.284 -0.1526  0.5388 -0.2176
15015TIP3    H266537   2.165   2.998  13.313  0.3314 -0.3710  2.4536
15016TIP3   OH266538   6.683   3.246  10.971  0.4471  0.0851  0.5110
15016TIP3    H166539   6.680   3.185  10.898 -1.3224 -0.1823  0.7884
15016TIP3    H266540   6.635   3.202  11.041  2.1649  0.3097  1.8676
15017TIP3   OH266541   6.718   1.731  12.634  0.6672 -0.4486 -0.7430
15017TIP3    H166542   6.720   1.712  12.540  1.6058 -0.3142 -0.7612
15017TIP3    H266543   6.802   1.774  12.651  0.5075 -0.4861  0.1654
15018TIP3   OH266544   0.186   1.546   6.140 -0.4537  0.1994  0.5457
15018TIP3    H166545   0.217   1.618   6.195 -1.3983 -0.1473  1.5499
15018TIP3    H266546   0.146   1.590   6.064  1.1430  0.6702 -0.0460
15019TIP3   OH266547   0.092   3.365  13.694  0.0746 -0.2780 -0.6350
15019TIP3    H166548   0.028   3.422  13.737 -0.5168 -0.3879 -1.3723
15019TIP3    H266549   0.068   3.277  13.723  1.0097 -0.1546  0.5306
15020TIP3   OH266550   3.320   2.186  13.434 -0.6292 -0.5703  0.5251
15020TIP3    H166551   3.342   2.213  13.345  0.1374  1.2915  1.2311
15020TIP3    H266552   3.266   2.108  13.424  0.0731 -0.8193 -1.5343
15021TIP3   OH266553   4.560   0.033   0.746  0.0683 -0.3964 -0.7199
15021TIP3    H166554   4.525  -0.022   0.815 -1.8337 -0.3193 -1.5764
15021TIP3    H266555   4.609  -0.027   0.689 -1.9531 -1.2264 -1.6244
15022TIP3   OH266556   0.685   6.560   0.910 -0.0770  0.4675  0.0502
15022TIP3    H166557   0.665   6.622   0.840  0.1364 -0.6033 -0.9719
15022TIP3    H266558   0.635   6.482   0.889  1.6184 -0.6111 -0.0621
15023TIP3   OH266559   4.281   1.656   3.481 -0.0777 -0.6824  0.6803
15023TIP3    H166560   4.218   1.728   3.482 -0.5862 -1.0315 -2.2197
15023TIP3    H266561   4.332   1.667   3.561 -0.5001  2.5693  0.5514
15024TIP3   OH266562   4.542   2.780  10.769 -0.1101 -0.0994 -0.0569
15024TIP3    H166563   4.543   2.792  10.674  0.7693 -2.2392 -0.3515
15024TIP3    H266564   4.571   2.689  10.782  0.4062  0.3623  2.2853
15025TIP3   OH266565   3.462   6.104  14.779 -0.1263 -0.0536 -0.0221
15025TIP3    H166566   3.478   6.010  14.791 -0.2780 -0.3806 -2.1467
15025TIP3    H266567   3.405   6.109  14.702 -2.2521  1.6458  1.5958
15026TIP3   OH266568   3.199   6.067   3.647  0.4006  0.5396 -0.0980
15026TIP3    H166569   3.196   6.039   3.556 -1.7417  0.0334  0.0968
15026TIP3    H266570   3.264   6.137   3.650  1.1677 -0.0922 -1.8219
15027TIP3   OH266571   1.118   3.777   2.447  0.3694  0.1473  0.3779
15027TIP3    H166572   1.119   3.751   2.539 -1.9008  0.5301  0.5482
15027TIP3    H266573   1.200   3.824   2.434  1.1613 -0.7674  1.9483
15028TIP3   OH266574   0.438   3.174   1.785  0.0357  0.4522  0.2890
15028TIP3    H166575   0.345   3.196   1.797  0.4453  1.5671  1.5291
15028TIP3    H266576   0.481   3.212   1.862  1.7315  1.3336 -1.0733
15029TIP3   OH266577   1.921   5.249   3.888 -0.1322 -0.3664 -0.1513
15029TIP3    H166578   1.989   5.183   3.904 -1.2475 -1.6571 -0.7041
15029TIP3    H266579   1.849   5.200   3.849 -1.0553  1.1540 -0.3649
15030TIP3   OH266580   0.333   0.556   3.450  0.1100  0.5832 -0.3550
15030TIP3    H166581   0.277   0.570   3.526 -0.1438  0.3247 -0.4932
15030TIP3    H266582   0.406   0.504   3.484  0.1979  0.8035 -0.2049
15031TIP3   OH266583   5.598   6.371  12.059 -0.1397  0.6931  0.3670
15031TIP3    H166584   5.683   6.335  12.083 -0.7048 -1.0491 -0.1516
15031TIP3    H266585   5.562   6.308  11.996  0.2224  3.8123 -3.1428
15032TIP3   OH266586   6.037   4.424  15.322 -0.5952 -0.1363 -0.0299
15032TIP3    H166587   6.003   4.426  15.233 -0.7872 -1.5875 -0.0067
15032TIP3    H266588   5.998   4.500  15.365 -0.3418  0.6778 -1.2314
15033TIP3   OH266589   0.466   1.531   5.318 -0.1430 -0.4300 -0.5929
15033TIP3    H166590   0.463   1.435   5.314 -1.7158 -0.4027 -0.6267
15033TIP3    H266591   0.519   1.550   5.395 -1.9218 -1.3691  0.8990
15034TIP3   OH266592   0.650   0.805  11.228  0.0756  0.1142 -0.0235
15034TIP3    H166593   0.623   0.897  11.230  2.2814  0.8033 -0.4819
15034TIP3    H266594   0.727   0.801  11.284  0.7926 -1.1757 -1.0603
15035TIP3   OH266595   1.517   0.325   1.959 -0.4239  0.3014  0.3632
15035TIP3    H166596   1.500   0.411   1.922  0.8368  0.5888  0.4333
15035TIP3    H266597   1.594   0.293   1.911 -0.0672 -0.2194  1.2643
15036TIP3   OH266598   5.642   2.776   3.426  0.4276  0.0863 -0.2176
15036TIP3    H166599   5.558   2.822   3.430 -0.0260 -0.6309 -1.2532
15036TIP3    H266600   5.694   2.815   3.496 -1.0075  0.0689  0.8876
15037TIP3   OH266601   4.308   1.325  16.753  0.2585  0.1143 -0.2470
15037TIP3    H166602   4.358   1.327  16.671  1.0758 -1.1198  0.2184
15037TIP3    H266603   4.357   1.267  16.810  0.2690  1.7934  1.5177
15038TIP3   OH266604   3.513   0.134   5.668 -0.4145  0.1826  0.2065
15038TIP3    H166605   3.498   0.162   5.759 -0.3866 -2.2223  0.9958
15038TIP3    H266606   3.426   0.137   5.628 -0.4351  1.2042  0.3092
15039TIP3   OH266607   5.003   0.018   0.417 -0.0522 -0.3498  0.1747
15039TIP3    H166608   5.080   0.068   0.442 -1.1229  1.0424  0.7419
15039TIP3    H266609   4.988  -0.042   0.491  2.0329 -2.5170 -1.1035
15040TIP3   OH266610   4.213   4.592  14.507  0.0720 -0.6623 -0.1881
15040TIP3    H166611   4.181   4.572  14.595  1.1355 -2.5846 -0.1961
15040TIP3    H266612   4.134   4.601  14.454 -0.5588 -2.8301  0.3093
15041TIP3   OH266613   4.682   0.403  16.823 -0.0705  0.1667 -0.2256
15041TIP3    H166614   4.776   0.388  16.820 -0.0532  0.0830  0.7070
15041TIP3    H266615   4.652   0.355  16.901 -0.8903  0.1394 -0.5528
15042TIP3   OH266616   2.733   6.254  14.611  0.3896  0.2381 -0.1775
15042TIP3    H166617   2.723   6.159  14.610  0.3943  0.2333  0.0183
15042TIP3    H266618   2.819   6.271  14.574  0.1703  0.1974 -0.7002
15043TIP3   OH266619   1.845   5.784  14.892 -0.3083  0.0336  0.1118
15043TIP3    H166620   1.779   5.851  14.911 -0.3222 -0.1754  0.8016
15043TIP3    H266621   1.873   5.803  14.802 -1.3962  0.0473 -0.2258
15044TIP3   OH266622   3.280   1.964  16.314  0.0935 -0.7547  0.0968
15044TIP3    H166623   3.219   1.899  16.350 -1.1052  0.6585  0.6974
15044TIP3    H266624   3.366   1.936  16.343 -0.5264 -1.5038  1.2359
15045TIP3   OH266625   4.492   3.260  16.989  0.1683  0.3192 -0.3474
15045TIP3    H166626   4.516   3.177  17.031 -0.7447 -0.7448 -1.8542
15045TIP3    H266627   4.576   3.302  16.970  0.6359 -0.1170  0.6806
15046TIP3   OH266628   3.700   1.423  12.010 -0.0845 -0.3068 -0.0484
15046TIP3    H166629   3.657   1.341  12.035  0.5718 -1.5296 -2.8362
15046TIP3    H266630   3.788   1.416  12.046 -0.3270 -0.4013  0.5362
15047TIP3   OH266631   6.201   6.126  16.064  0.1895 -0.3478 -0.3176
15047TIP3    H166632   6.236   6.074  15.991  0.7639 -2.4656  1.3838
15047TIP3    H266633   6.250   6.095  16.140 -3.1703 -1.1369  1.6297
15048TIP3   OH266634   2.917   1.568  14.316 -0.4347  0.4022 -0.2562
15048TIP3    H166635   2.838   1.520  14.292 -0.9501  0.4175  1.3122
15048TIP3    H266636   2.988   1.527  14.266 -0.8163 -2.2059  1.2976
15049TIP3   OH266637   3.682   2.093   3.847  0.2195 -0.4520  0.8751
15049TIP3    H166638   3.625   2.170   3.841  1.4187  0.2672 -1.8420
15049TIP3    H266639   3.767   2.128   3.874  0.7019 -0.8479 -0.1179
15050TIP3   OH266640   0.624   1.694   1.872  0.1414 -0.4341  0.4179
15050TIP3    H166641   0.608   1.759   1.804  1.8288 -1.9367 -1.4547
15050TIP3    H266642   0.698   1.729   1.922 -1.1906  0.7378  1.6393
15051TIP3   OH266643   4.586   5.995   2.442  0.3796 -0.2053  0.5719
15051TIP3    H166644   4.555   5.922   2.496  1.5273 -0.9673  0.2058
15051TIP3    H266645   4.625   6.056   2.504  2.4396 -1.4586  0.5459
15052TIP3   OH266646   6.696   1.089   4.787 -0.7276 -0.3097  0.0238
15052TIP3    H166647   6.687   1.004   4.744  1.4804 -0.6664  0.2062
15052TIP3    H266648   6.706   1.151   4.715 -2.8394 -0.1177 -0.1249
15053TIP3   OH266649   5.019   4.574   4.332 -0.0362  0.3486  0.2533
15053TIP3    H166650   5.054   4.519   4.262  2.3865 -0.2799  1.8991
15053TIP3    H266651   4.976   4.511   4.391 -0.1959  0.6298  0.4361
15054TIP3   OH266652   5.977   5.004  13.213  0.0043 -0.1490  0.1465
15054TIP3    H166653   5.934   4.937  13.266 -0.7207 -0.0577 -0.3176
15054TIP3    H266654   5.910   5.032  13.151  1.3362 -1.4064 -1.8892
15055TIP3   OH266655   2.384   2.263  12.670  0.0132 -0.2924 -0.2036
15055TIP3    H166656   2.379   2.358  12.665 -1.2388 -0.2033  1.9214
15055TIP3    H266657   2.472   2.244  12.702  0.5749  0.0829 -1.4940
15056TIP3   OH266658   0.128   6.091  12.990 -0.3290  0.6382 -0.0584
15056TIP3    H166659   0.093   6.016  13.037  0.8784 -0.1124 -0.3297
15056TIP3    H266660   0.083   6.089  12.905  0.4307 -0.3693 -0.4395
15057TIP3   OH266661   2.983   6.162  11.811  0.5301 -0.2645 -0.3616
15057TIP3    H166662   2.985   6.075  11.771 -0.2434 -1.3582  1.9518
15057TIP3    H266663   2.990   6.146  11.905  2.2748  2.2809 -0.0093
15058TIP3   OH266664   1.950   0.991  12.122 -0.2236 -0.4338 -0.1962
15058TIP3    H166665   1.895   0.957  12.193 -0.8268 -0.2668 -0.5839
15058TIP3    H266666   1.888   1.022  12.056  0.3219  0.4199 -0.3227
15059TIP3   OH266667   1.138   3.926  15.784 -0.1585  0.7143 -0.2964
15059TIP3    H166668   1.092   4.004  15.751 -0.5044  0.8115  0.4184
15059TIP3    H266669   1.231   3.952  15.785 -0.2221  0.9521 -0.5172
15060TIP3   OH266670   3.829   6.351  11.207 -0.3888 -0.1944  0.4142
15060TIP3    H166671   3.840   6.421  11.143  0.5067 -0.3428  0.3989
15060TIP3    H266672   3.734   6.337  11.211 -0.4903  0.1984 -0.4553
15061TIP3   OH266673   4.654   1.443  13.275  0.6138  0.1719 -0.3589
15061TIP3    H166674   4.617   1.405  13.354 -1.5016  3.1728  0.1573
15061TIP3    H266675   4.627   1.384  13.205  0.4077 -1.1787  0.8399
15062TIP3   OH266676   4.719   2.251   2.934  0.4842 -0.1550  0.4230
15062TIP3    H166677   4.786   2.195   2.973  0.8151  1.0003  1.5228
15062TIP3    H266678   4.744   2.340   2.959 -0.3097  0.4564 -0.9024
15063TIP3   OH266679   0.717   0.430  14.651 -0.4260  0.9663 -0.1031
15063TIP3    H166680   0.683   0.380  14.725  0.8034  0.0564 -0.1552
15063TIP3    H266681   0.811   0.437  14.667 -0.2040  1.0532 -1.3978
15064TIP3   OH266682   3.946   1.217   3.247  0.2392  0.4151 -0.5967
15064TIP3    H166683   3.940   1.211   3.343  0.0901  2.1192 -0.4778
15064TIP3    H266684   3.967   1.129   3.219 -2.7586 -0.8093  0.7625
15065TIP3   OH266685   3.234   5.665   1.314 -0.2089 -0.6173  0.1808
15065TIP3    H166686   3.208   5.721   1.241  0.1606 -1.1944 -0.3960
15065TIP3    H266687   3.183   5.698   1.389 -0.6030 -0.0397 -0.3368
15066TIP3   OH266688   0.229   4.453  13.300  0.1240 -0.8914  0.3738
15066TIP3    H166689   0.198   4.539  13.327 -1.6713 -0.8797 -1.6118
15066TIP3    H266690   0.258   4.411  13.381  2.1011  1.9747  1.2148
15067TIP3   OH266691   0.587   2.193  17.095  0.2497  0.5100  0.0462
15067TIP3    H166692   0.628   2.181  17.010  1.4315 -1.3975  0.8572
15067TIP3    H266693   0.660   2.201  17.156 -0.5596 -1.3024  1.2923
15068TIP3   OH266694   2.383   5.912   3.500  0.0127 -0.1267 -0.1914
15068TIP3    H166695   2.364   5.818   3.494  0.9557 -0.5206  2.5418
15068TIP3    H266696   2.421   5.934   3.415 -0.2469 -2.2119 -0.8779
15069TIP3   OH266697   6.206   0.354   2.917  0.5793  0.6020  0.4013
15069TIP3    H166698   6.252   0.422   2.868  0.6521  0.6531  0.5436
15069TIP3    H266699   6.156   0.307   2.850  0.5867  0.7475  0.2926
15070TIP3   OH266700   5.004   3.922   3.539 -0.6660  0.1325 -0.5515
15070TIP3    H166701   5.026   3.972   3.617 -0.0686  0.3626 -0.8650
15070TIP3    H266702   4.941   3.856   3.570  0.7864 -0.8252  0.4621
15071TIP3   OH266703   4.651   2.032   2.460  0.1972  0.3464  0.5680
15071TIP3    H166704   4.634   2.091   2.387 -0.2547 -0.3942  0.0741
15071TIP3    H266705   4.588   2.058   2.527 -0.3753  0.0411  0.1402
15072TIP3   OH266706   3.189   2.747   2.388  0.7201  1.2393  0.0427
15072TIP3    H166707   3.128   2.708   2.450  0.3315  1.4913 -0.1827
15072TIP3    H266708   3.212   2.675   2.329 -0.6249  1.5366 -0.8650
15073TIP3   OH266709   4.137   2.307  16.737  0.7692  0.3034  0.1990
15073TIP3    H166710   4.190   2.258  16.674  1.0902 -1.0044  1.4515
15073TIP3    H266711   4.095   2.239  16.791 -1.8273  1.3244 -0.4728
15074TIP3   OH266712   3.426   2.656  14.756 -0.1066 -0.0551 -0.2070
15074TIP3    H166713   3.468   2.731  14.799 -0.1974 -0.3234  0.3523
15074TIP3    H266714   3.388   2.606  14.828 -1.7393  0.3926 -0.7537
15075TIP3   OH266715   6.182   1.834   0.015 -0.0224 -0.5414  0.2868
15075TIP3    H166716   6.098   1.870   0.042 -0.4187 -1.6682  0.6045
15075TIP3    H266717   6.194   1.863  -0.075 -0.4376  0.1775  0.4692
15076TIP3   OH266718   5.348   6.789  17.177 -0.2429 -0.8520  0.5065
15076TIP3    H166719   5.306   6.875  17.171 -1.0209 -1.2261  0.6053
15076TIP3    H266720   5.280   6.726  17.154  0.6028 -1.3896 -0.6053
15077TIP3   OH266721   1.640   0.904  17.076  0.3389 -0.6142 -0.2805
15077TIP3    H166722   1.700   0.979  17.070 -0.2086 -0.2293 -1.1415
15077TIP3    H266723   1.625   0.879  16.985  0.4084 -1.6926  0.0056
15078TIP3   OH266724   0.764   5.203   4.341 -0.2099 -0.0350  0.3000
15078TIP3    H166725   0.707   5.157   4.403 -0.2069  0.1667  0.4522
15078TIP3    H266726   0.703   5.249   4.282 -0.2190 -0.5372 -0.0844
15079TIP3   OH266727   5.811   6.178  11.646  0.2218  0.3068  0.2770
15079TIP3    H166728   5.818   6.258  11.594 -0.9978  0.7289  0.7388
15079TIP3    H266729   5.717   6.159  11.647  0.2869  0.0131  1.8954
15080TIP3   OH266730   5.197   2.757  17.024  0.2193  0.0061  0.0642
15080TIP3    H166731   5.240   2.842  17.013  0.7355 -0.2366  0.1866
15080TIP3    H266732   5.214   2.711  16.942 -0.7190  0.3096 -0.3097
15081TIP3   OH266733   5.444   5.671   0.587 -0.1996  0.1850 -0.4751
15081TIP3    H166734   5.421   5.633   0.672  0.3685  0.3052 -0.2686
15081TIP3    H266735   5.370   5.729   0.566  0.0741  0.8545  0.3633
15082TIP3   OH266736   5.473   4.795   2.831  0.1491  0.2259 -0.4707
15082TIP3    H166737   5.466   4.867   2.894 -0.0503  1.0042 -1.3917
15082TIP3    H266738   5.407   4.813   2.765 -0.5513 -1.3014 -0.2144
15083TIP3   OH266739   1.007   1.791   1.097 -0.1357 -0.0974 -0.5796
15083TIP3    H166740   0.927   1.828   1.059 -1.7543 -2.1409  0.7425
15083TIP3    H266741   0.977   1.712   1.142  2.6957 -1.0359 -0.3086
15084TIP3   OH266742   0.044   2.516  16.594 -0.5822 -0.1009  0.2825
15084TIP3    H166743   0.116   2.563  16.637  0.0869 -0.9302  0.0790
15084TIP3    H266744  -0.031   2.576  16.600  0.2925  1.0396 -0.0915
15085TIP3   OH266745   1.238   4.559  17.114 -0.0692  0.5510 -0.4931
15085TIP3    H166746   1.320   4.604  17.093 -0.2604  1.4163  0.5399
15085TIP3    H266747   1.223   4.579  17.206 -1.4697  0.4352 -0.6880
15086TIP3   OH266748   3.807   1.949  14.535  0.0250  0.4513  0.0713
15086TIP3    H166749   3.902   1.939  14.538  0.1091  0.1344 -2.4186
15086TIP3    H266750   3.775   1.893  14.606  1.6308 -0.4765  0.1027
15087TIP3   OH266751   5.816   2.722  14.061 -0.0003 -0.1047  0.5876
15087TIP3    H166752   5.849   2.668  13.989  0.8557  2.2180 -0.8067
15087TIP3    H266753   5.863   2.805  14.052 -1.3143  0.8933  2.6617
15088TIP3   OH266754   5.749   1.085  15.018  0.0073 -0.0180  0.4741
15088TIP3    H166755   5.736   1.081  15.113 -0.5486  0.3655  0.4196
15088TIP3    H266756   5.722   0.998  14.987  2.0742 -0.8295  0.8710
15089TIP3   OH266757   1.426   5.442  11.751 -0.1628  0.4421  0.4321
15089TIP3    H166758   1.377   5.359  11.747  1.1027 -0.3132  0.1635
15089TIP3    H266759   1.437   5.458  11.845  1.1429 -0.6603  0.4919
15090TIP3   OH266760   1.690   3.914   0.364  0.2609 -0.0002 -0.3389
15090TIP3    H166761   1.769   3.862   0.371  0.2796 -0.1365 -1.4684
15090TIP3    H266762   1.622   3.860   0.404 -0.0626 -1.6406 -3.0011
15091TIP3   OH266763   1.467   5.649   5.287 -0.1025 -0.0851 -0.6248
15091TIP3    H166764   1.485   5.568   5.240 -0.3785  0.6602 -2.0687
15091TIP3    H266765   1.397   5.626   5.349  0.7427 -1.2500 -0.0957
15092TIP3   OH266766   6.771   2.495   5.566 -0.1455 -0.1411  0.1561
15092TIP3    H166767   6.696   2.465   5.618 -0.4507 -0.6962 -0.5839
15092TIP3    H266768   6.736   2.568   5.515  0.9399  2.3746  2.9152
15093TIP3   OH266769   5.933   2.858   3.417 -0.4098 -0.1381  0.7376
15093TIP3    H166770   5.947   2.772   3.455 -0.4579 -0.1276  0.7799
15093TIP3    H266771   5.995   2.915   3.464 -0.1676 -0.2069  0.5028
15094TIP3   OH266772   2.877   2.343  11.745 -0.1377  0.0916 -0.4690
15094TIP3    H166773   2.881   2.306  11.657 -1.5009  0.2178 -0.6045
15094TIP3    H266774   2.964   2.380  11.760  0.4605 -0.9386 -1.3072
15095TIP3   OH266775   6.163   3.328   2.903  0.0015  0.2930  0.5067
15095TIP3    H166776   6.099   3.280   2.956  0.8617  2.1046  3.2902
15095TIP3    H266777   6.117   3.347   2.821 -2.5654  0.4453  1.9342
15096TIP3   OH266778   1.425   4.338   2.105  0.4006  0.4010  0.1762
15096TIP3    H166779   1.345   4.388   2.118 -0.3330 -0.6865 -0.1243
15096TIP3    H266780   1.411   4.290   2.023  0.7128 -0.9969  0.9141
15097TIP3   OH266781   6.152   6.118  14.009 -0.3773  0.2019  0.0832
15097TIP3    H166782   6.219   6.087  14.070  0.2180 -0.1752 -0.7639
15097TIP3    H266783   6.117   6.039  13.969 -0.3636  0.4844 -0.4913
15098TIP3   OH266784   6.154   0.745   6.293 -0.2208 -0.1766 -0.2158
15098TIP3    H166785   6.120   0.723   6.380 -0.7118 -1.9907 -0.8525
15098TIP3    H266786   6.184   0.662   6.257  1.5440  0.8231 -1.1312
15099TIP3   OH266787   2.166   1.320   4.998 -0.8673 -0.0714  0.5370
15099TIP3    H166788   2.076   1.342   4.973 -0.3785  2.3803  0.8445
15099TIP3    H266789   2.218   1.341   4.920 -0.2677  0.7514  1.1550
15100TIP3   OH266790   2.624   6.066   0.974 -0.0482  0.3661  0.5506
15100TIP3    H166791   2.529   6.079   0.972 -0.1405 -0.2015  0.8659
15100TIP3    H266792   2.657   6.114   0.899 -0.4426  1.6746  1.2100
15101TIP3   OH266793   3.389   4.923   1.353 -0.1882 -0.2947  0.8602
15101TIP3    H166794   3.433   4.884   1.278  3.1825  0.4507  2.3624
15101TIP3    H266795   3.333   4.991   1.315  1.5752  0.1817 -1.0203
15102TIP3   OH266796   0.158   5.130   4.386  0.5834 -0.1622  0.3089
15102TIP3    H166797   0.073   5.121   4.429 -0.6012 -0.2548 -1.9602
15102TIP3    H266798   0.158   5.219   4.352  2.0704  0.3641  1.6339
15103TIP3   OH266799   4.271   3.500   2.327  0.2577  0.4526 -0.2251
15103TIP3    H166800   4.270   3.477   2.234  2.8246  1.9043 -0.6729
15103TIP3    H266801   4.249   3.593   2.328  0.7154  0.5557  0.5587
15104TIP3   OH266802   3.033   6.077  16.523  0.5489 -0.2066 -0.5270
15104TIP3    H166803   2.991   6.104  16.605  1.3159 -0.0272 -0.1890
15104TIP3    H266804   3.109   6.133  16.515  0.7482 -0.5523 -1.1235
15105TIP3   OH266805   6.016   5.252   0.501 -0.0338  0.1329 -0.3385
15105TIP3    H166806   6.054   5.255   0.413  0.9070  0.3820  0.0640
15105TIP3    H266807   6.018   5.160   0.525 -0.4807  0.0404 -0.6602
15106TIP3   OH266808   1.181   3.626  13.308 -0.0380  0.0147 -0.0598
15106TIP3    H166809   1.161   3.558  13.372  2.1194 -0.2850  0.3447
15106TIP3    H266810   1.194   3.705  13.360 -1.3433  0.4722 -0.4187
15107TIP3   OH266811   4.065   0.256  15.791  0.4583 -0.3544  0.3895
15107TIP3    H166812   4.096   0.226  15.706 -1.3208  0.2081 -0.4996
15107TIP3    H266813   4.089   0.186  15.852  0.4630 -1.4443 -0.8446
15108TIP3   OH266814   1.569   5.827   1.370  0.0522 -0.2886 -0.2425
15108TIP3    H166815   1.557   5.732   1.363 -1.0199 -0.1629 -0.1614
15108TIP3    H266816   1.494   5.864   1.324 -0.8603  0.5271  1.8590
15109TIP3   OH266817   2.665   2.619   4.005  0.3703 -0.0240  0.0848
15109TIP3    H166818   2.708   2.694   3.965 -1.3928  0.7911 -0.3269
15109TIP3    H266819   2.736   2.556   4.020  1.6230  1.1027 -0.9581
15110TIP3   OH266820   0.149   0.076   5.504 -0.0952 -0.0528  0.6794
15110TIP3    H166821   0.054   0.070   5.511 -0.1196  0.2895  0.6593
15110TIP3    H266822   0.165   0.162   5.464  0.2462  0.1267  1.1982
15111TIP3   OH266823   6.389   0.196   6.244 -0.0840 -0.5397  0.1991
15111TIP3    H166824   6.391   0.226   6.335 -0.4768  2.2737 -0.6543
15111TIP3    H266825   6.334   0.118   6.246 -1.1349  0.2031  2.1960
15112TIP3   OH266826   2.821   5.091  15.331  0.2899  0.3107  0.8908
15112TIP3    H166827   2.915   5.088  15.312  0.2108  1.7220  0.2398
15112TIP3    H266828   2.788   5.163  15.278 -1.4256 -1.0880  0.0075
15113TIP3   OH266829   1.338   2.070  17.026  0.0356 -0.3757 -0.1801
15113TIP3    H166830   1.428   2.099  17.013  0.1116 -0.3228  0.4796
15113TIP3    H266831   1.342   2.006  17.097 -0.3550 -0.8647 -0.5954
15114TIP3   OH266832   0.124   2.459  15.270 -0.3732 -0.2441 -0.0622
15114TIP3    H166833   0.191   2.398  15.238  1.0882  0.8948  0.7438
15114TIP3    H266834   0.091   2.501  15.191  0.6385 -0.0423 -0.3822
15115TIP3   OH266835   5.765   4.134  13.844 -0.5825  0.5558  0.0118
15115TIP3    H166836   5.802   4.211  13.887  0.2735 -0.4844  1.1876
15115TIP3    H266837   5.756   4.069  13.914  0.2064 -0.9494 -1.2431
15116TIP3   OH266838   2.013   3.683  16.120  0.1905 -0.0904 -0.8798
15116TIP3    H166839   1.922   3.707  16.105  0.8013  1.6702 -1.8835
15116TIP3    H266840   2.060   3.722  16.046  1.7081 -1.3587 -0.6118
15117TIP3   OH266841   6.369   2.634   5.109 -0.3143 -0.2855 -0.7011
15117TIP3    H166842   6.432   2.598   5.046  0.6757  0.6216 -0.2463
15117TIP3    H266843   6.368   2.570   5.181  2.5539  1.2661  0.7852
15118TIP3   OH266844   5.589   0.528   5.159  1.0227 -0.5023  0.1655
15118TIP3    H166845   5.602   0.511   5.066  1.1911  1.1654 -0.1199
15118TIP3    H266846   5.579   0.441   5.198  0.0749 -1.1684 -1.5325
15119TIP3   OH266847   2.409   1.102   0.006 -0.8884 -0.1186 -0.7017
15119TIP3    H166848   2.431   1.090  -0.086  1.1372  2.2926 -0.5797
15119TIP3    H266849   2.484   1.069   0.054 -1.8504 -1.1779  0.1031
15120TIP3   OH266850   6.408   5.420   3.727 -0.0752 -0.2090  0.0884
15120TIP3    H166851   6.439   5.371   3.804  0.2919 -1.5558 -0.9019
15120TIP3    H266852   6.483   5.473   3.700  1.1801 -2.8756 -1.8345
15121TIP3   OH266853   1.442   5.793  13.811 -0.1969  0.3868 -0.1451
15121TIP3    H166854   1.351   5.761  13.812  0.5924 -1.8989  0.4735
15121TIP3    H266855   1.433   5.888  13.808 -2.6304  0.2393  0.7803
15122TIP3   OH266856   1.069   0.156  15.436 -0.4797  0.2871 -0.7334
15122TIP3    H166857   0.999   0.109  15.481 -0.2444  0.8617  0.2368
15122TIP3    H266858   1.035   0.170  15.347 -1.6601  0.6876 -0.2314
15123TIP3   OH266859   2.007   0.773   6.070  0.0461 -0.7265 -0.1481
15123TIP3    H166860   2.021   0.827   6.147  1.6670 -0.0191 -0.9131
15123TIP3    H266861   2.069   0.807   6.005 -0.8486 -1.7151 -1.5497
15124TIP3   OH266862   2.528   1.103  15.689  0.4281 -0.1387 -0.1504
15124TIP3    H166863   2.539   1.192  15.654 -1.9207 -0.6542 -2.2967
15124TIP3    H266864   2.540   1.114  15.784  2.7413  1.9988 -0.6338
15125TIP3   OH266865   0.741   5.677  14.255  0.4461 -0.0911 -0.6245
15125TIP3    H166866   0.661   5.677  14.308 -0.0927  0.0223 -1.4283
15125TIP3    H266867   0.810   5.655  14.316 -0.3074 -0.9509 -0.0646
15126TIP3   OH266868   0.775   6.595  16.490 -0.2812  0.8430 -0.1027
15126TIP3    H166869   0.695   6.609  16.541 -0.3848  1.9435 -0.5468
15126TIP3    H266870   0.761   6.647  16.411  1.4359  2.1006  0.4039
15127TIP3   OH266871   0.334   1.367   4.315 -0.2711  0.4397 -0.2440
15127TIP3    H166872   0.243   1.390   4.336 -0.3427 -0.6589  0.7276
15127TIP3    H266873   0.384   1.447   4.331 -0.7408  0.4010  1.4630
15128TIP3   OH266874   6.528   1.098  16.216 -0.1350  0.4076  0.2491
15128TIP3    H166875   6.463   1.119  16.149  0.7085 -0.5322 -0.8873
15128TIP3    H266876   6.520   1.004  16.228  0.5504  0.3968  0.6093
15129TIP3   OH266877   0.797   3.458  12.319  0.1750  0.1842  0.1620
15129TIP3    H166878   0.770   3.367  12.331 -1.6311  0.5123 -1.2413
15129TIP3    H266879   0.892   3.456  12.328  0.2510 -2.0036 -0.7790
15130TIP3   OH266880   4.257   2.000  15.071  0.4285 -0.9433  0.6888
15130TIP3    H166881   4.171   2.021  15.035  0.8047 -2.8306 -1.3882
15130TIP3    H266882   4.278   2.074  15.128 -0.6100  1.7040 -2.2140
15131TIP3   OH266883   4.814   3.976   3.833  0.9049 -0.5814 -0.1647
15131TIP3    H166884   4.825   3.986   3.927  0.9374  1.2841 -0.3441
15131TIP3    H266885   4.886   4.027   3.795 -0.0641  0.0443 -1.2052
15132TIP3   OH266886   4.445   3.349   4.255  0.5578 -0.4934  0.9676
15132TIP3    H166887   4.404   3.264   4.272 -0.0919 -0.3195  0.2992
15132TIP3    H266888   4.410   3.407   4.322  0.0175 -0.4470  0.6505
15133TIP3   OH266889   4.142   3.798   5.935 -0.1552 -0.4681  0.2618
15133TIP3    H166890   4.121   3.876   5.986  1.1435  1.5309 -2.1143
15133TIP3    H266891   4.068   3.789   5.875  1.9024  1.9345 -2.7901
15134TIP3   OH266892   4.955   6.746  16.937  0.0325  0.4867  0.1452
15134TIP3    H166893   4.892   6.790  16.881 -1.3621  0.6363  1.7977
15134TIP3    H266894   5.033   6.801  16.934  0.3164 -0.0040 -2.3786
15135TIP3   OH266895   0.879   3.872   4.892  0.7318  0.2708  0.2750
15135TIP3    H166896   0.845   3.818   4.821 -1.0756  0.2517  1.1381
15135TIP3    H266897   0.932   3.813   4.944 -0.3331 -0.4094  0.5897
15136TIP3   OH266898   4.515   6.088  11.704 -0.0907 -0.6025 -0.3821
15136TIP3    H166899   4.477   6.075  11.791  1.4031  0.4446  0.4582
15136TIP3    H266900   4.541   6.001  11.676 -0.6126 -0.9520  0.2046
15137TIP3   OH266901   6.441   2.834   0.475  0.3556  0.3928  0.4990
15137TIP3    H166902   6.525   2.842   0.521  0.6890 -1.5326  0.2860
15137TIP3    H266903   6.432   2.740   0.461 -1.0225  0.7533 -1.0255
15138TIP3   OH266904   1.868   6.099   1.211  0.2620  0.4916 -0.5150
15138TIP3    H166905   1.849   6.021   1.262  1.4042  0.6317  0.1458
15138TIP3    H266906   1.818   6.169   1.254 -0.2369  0.2633 -0.7142
15139TIP3   OH266907   2.274   4.403  13.358  0.0781  0.6505  0.3088
15139TIP3    H166908   2.310   4.378  13.273  0.4067  2.4216 -0.0934
15139TIP3    H266909   2.321   4.347  13.421 -0.7071 -1.2084 -0.7002
15140TIP3   OH266910   6.753   6.692  15.363 -0.0610 -0.0137  0.0496
15140TIP3    H166911   6.756   6.753  15.289 -1.3468 -0.5920 -0.4881
15140TIP3    H266912   6.673   6.715  15.410 -0.6226 -1.3562 -0.2300
15141TIP3   OH266913   0.952   3.182  15.388  0.6693  0.5362  0.3634
15141TIP3    H166914   0.919   3.094  15.377  1.2669  0.0080  2.4869
15141TIP3    H266915   0.875   3.239  15.380  0.4960 -0.0474 -2.3394
15142TIP3   OH266916   1.743   4.504  11.712  0.0565 -0.4494 -0.3444
15142TIP3    H166917   1.718   4.543  11.796  0.4817 -2.9882  1.0040
15142TIP3    H266918   1.820   4.554  11.684 -0.0339  0.3564  0.8171
15143TIP3   OH266919   4.485   1.946   3.556 -0.3946 -0.0927 -0.6354
15143TIP3    H166920   4.396   1.962   3.527 -0.6928 -0.0860  0.2819
15143TIP3    H266921   4.537   1.947   3.476 -1.0732  0.8556 -1.0676
15144TIP3   OH266922   1.298   4.475   5.065  0.2630 -0.4508  0.1379
15144TIP3    H166923   1.263   4.424   4.992  0.6144  0.5649 -0.7477
15144TIP3    H266924   1.236   4.547   5.076  1.2491  0.4933 -0.4297
15145TIP3   OH266925   6.384   2.862  16.456  0.0477 -0.0137 -0.0958
15145TIP3    H166926   6.412   2.778  16.421  1.1363  0.2584  0.0989
15145TIP3    H266927   6.289   2.863  16.445  0.1313 -0.9030 -0.8844
15146TIP3   OH266928   1.230   1.758  15.367  0.5893 -0.2613 -0.0820
15146TIP3    H166929   1.155   1.743  15.309  0.9070  0.4231 -0.6754
15146TIP3    H266930   1.210   1.840  15.412  0.2038 -0.9403  1.0163
15147TIP3   OH266931   1.000   3.110  11.446  0.1339 -0.5148  0.3779
15147TIP3    H166932   1.045   3.032  11.476  0.5423 -1.4493 -2.4531
15147TIP3    H266933   0.945   3.080  11.373 -0.2964  1.6678 -0.2518
15148TIP3   OH266934   3.356   3.817  16.916 -0.0371 -0.4823 -0.0409
15148TIP3    H166935   3.430   3.825  16.976 -1.1463 -1.7065  1.5632
15148TIP3    H266936   3.374   3.878  16.846  2.4800 -0.7528  0.3437
15149TIP3   OH266937   5.028   5.015   2.103  0.1620  0.4654 -0.0694
15149TIP3    H166938   5.052   5.098   2.063  0.0771 -0.4401 -2.0575
15149TIP3    H266939   4.933   5.009   2.093  0.2819 -0.3080 -0.8401
15150TIP3   OH266940   6.786   2.439   3.900  0.5403 -0.7101 -0.1131
15150TIP3    H166941   6.794   2.380   3.975  0.0753 -1.0557 -0.3322
15150TIP3    H266942   6.871   2.482   3.894  0.4518 -0.3662  0.8765
15151TIP3   OH266943   0.229   5.488  14.747 -0.1388 -0.2720  0.0625
15151TIP3    H166944   0.321   5.491  14.720  0.7133 -1.9714  2.6306
15151TIP3    H266945   0.183   5.541  14.681  2.4922 -0.3513 -1.9224
15152TIP3   OH266946   5.252   0.152  16.038  0.1924  0.0032 -0.5717
15152TIP3    H166947   5.199   0.188  16.109 -0.3562  0.7022 -1.3330
15152TIP3    H266948   5.198   0.085  15.998  0.7781 -0.9003  0.1074
15153TIP3   OH266949   5.150   6.036  12.106  0.4402  0.0202  0.3898
15153TIP3    H166950   5.206   5.958  12.099 -1.6098 -1.3452 -1.4921
15153TIP3    H266951   5.107   6.028  12.191  1.0574 -0.3276  0.6713
15154TIP3   OH266952   1.760   6.522  14.215  0.4106  0.3042  0.3957
15154TIP3    H166953   1.698   6.566  14.156  0.5585 -0.2892 -0.2112
15154TIP3    H266954   1.724   6.536  14.302 -0.2649  0.4683  0.0953
15155TIP3   OH266955   5.952   0.983   6.884 -0.0583 -0.1700 -0.2866
15155TIP3    H166956   5.947   0.888   6.893  1.1749 -0.2833 -0.7295
15155TIP3    H266957   5.865   1.009   6.854 -0.8549 -0.9874  1.2271
15156TIP3   OH266958   1.809   6.441  13.851 -0.1838  0.6283  0.0149
15156TIP3    H166959   1.739   6.378  13.866  2.0494 -1.7873  0.5832
15156TIP3    H266960   1.811   6.494  13.931 -0.5883 -0.0677  0.4932
15157TIP3   OH266961   4.800   1.339  12.849 -0.1298 -0.2785  0.1524
15157TIP3    H166962   4.811   1.430  12.822 -1.3049 -0.0128  0.5581
15157TIP3    H266963   4.725   1.307  12.799 -0.5926 -0.6010  1.0317
15158TIP3   OH266964   1.223   2.601   4.879 -0.4039 -0.4025  0.2504
15158TIP3    H166965   1.259   2.681   4.917 -1.1683 -1.7488  4.0211
15158TIP3    H266966   1.138   2.590   4.921 -0.6943 -2.7429 -0.8622
15159TIP3   OH266967   0.476   6.010   2.540 -0.0852 -0.3625 -0.4758
15159TIP3    H166968   0.434   6.093   2.520  1.3347  0.3095 -0.6712
15159TIP3    H266969   0.534   5.994   2.466 -0.0909 -1.3632 -0.2729
15160TIP3   OH266970   5.242   5.226  14.150 -0.0588  0.1558 -0.0073
15160TIP3    H166971   5.254   5.140  14.110 -0.6099  0.1112 -0.0831
15160TIP3    H266972   5.331   5.258  14.165  0.2011  0.5310 -2.0601
15161TIP3   OH266973   3.015   6.631   5.513  0.5212  0.3248 -0.4042
15161TIP3    H166974   2.983   6.680   5.589  0.7133  0.3263 -0.3229
15161TIP3    H266975   3.088   6.684   5.480 -0.8551  1.3684 -1.8145
15162TIP3   OH266976   3.947   3.300  11.556  0.4853  0.0510  0.0598
15162TIP3    H166977   3.961   3.351  11.476  2.4137  0.5150  0.6681
15162TIP3    H266978   4.031   3.259  11.574 -0.3768 -1.3694  0.9602
15163TIP3   OH266979   1.709   3.477  16.234 -0.1897 -0.4325 -0.7045
15163TIP3    H166980   1.692   3.556  16.286  0.8297 -0.3661 -0.4605
15163TIP3    H266981   1.684   3.501  16.145  1.0212  0.4979 -0.8102
15164TIP3   OH266982   4.712   6.525  16.238  0.3815 -0.1580  0.7528
15164TIP3    H166983   4.799   6.493  16.260  0.6734 -1.3717 -1.9502
15164TIP3    H266984   4.727   6.603  16.183 -0.2480  0.2910  1.2029
15165TIP3   OH266985   6.017   5.058   1.223 -0.1593 -0.0664 -0.5002
15165TIP3    H166986   6.105   5.029   1.197  0.5983  1.0203  0.8447
15165TIP3    H266987   5.985   5.107   1.147  1.0579  0.9559 -0.3603
15166TIP3   OH266988   6.734   5.856  12.342  0.3355 -0.1302  0.2774
15166TIP3    H166989   6.694   5.899  12.267 -0.6447 -1.1564  0.1896
15166TIP3    H266990   6.667   5.862  12.411  2.1183  2.9537  1.8828
15167TIP3   OH266991   1.017   0.628  13.686 -0.6692  0.0270 -0.4839
15167TIP3    H166992   0.991   0.649  13.596  3.8141  2.4623 -1.3502
15167TIP3    H266993   1.090   0.567  13.676 -1.4584 -1.2836  1.5800
15168TIP3   OH266994   6.769   5.915  15.743  0.7983  0.2153  0.2876
15168TIP3    H166995   6.685   5.933  15.702  0.4643  1.5820  1.5240
15168TIP3    H266996   6.789   5.825  15.719 -0.6868  0.1092 -0.5896
15169TIP3   OH266997   2.471   3.230  15.988 -0.1113 -0.0297 -0.3543
15169TIP3    H166998   2.498   3.139  15.977 -0.7170  0.2120 -4.8944
15169TIP3    H266999   2.380   3.232  15.957 -0.2754  2.0284  0.1827
15170TIP3   OH267000   3.565   1.375  14.448 -0.0633 -0.4863 -0.6429
15170TIP3    H167001   3.635   1.391  14.385 -0.0939 -0.6319 -0.7148
15170TIP3    H267002   3.509   1.453  14.443 -0.0429 -0.4799 -0.7653
15171TIP3   OH267003   4.169   0.196   4.728  1.2380 -0.7109 -0.0272
15171TIP3    H167004   4.209   0.282   4.712  1.8842 -1.3061 -1.8021
15171TIP3    H267005   4.164   0.156   4.641  0.1085 -2.1158  0.6599
15172TIP3   OH267006   1.055   2.798  10.813  0.4847  0.2591  0.2555
15172TIP3    H167007   1.007   2.716  10.824  0.2941  0.4149  0.5753
15172TIP3    H267008   0.992   2.867  10.834  0.5721  0.5017 -0.2574
15173TIP3   OH267009   5.393   1.873  15.971 -0.1931 -0.1610  0.0833
15173TIP3    H167010   5.433   1.786  15.981 -0.4057 -0.1901  0.7152
15173TIP3    H267011   5.389   1.886  15.876  3.2600  0.7688 -0.0075
15174TIP3   OH267012   5.716   2.034  15.027  0.2275  0.4245  0.8892
15174TIP3    H167013   5.642   1.979  15.054  0.7182 -1.6315 -1.6869
15174TIP3    H267014   5.676   2.113  14.992 -0.6620  0.1794  1.3348
15175TIP3   OH267015   3.845   6.582   1.297 -0.2708 -0.1502 -0.6791
15175TIP3    H167016   3.886   6.646   1.355 -0.3899  0.7638 -1.5937
15175TIP3    H267017   3.765   6.556   1.342 -1.5404  2.2693 -1.4448
15176TIP3   OH267018   1.174   5.339  10.805 -0.1829  0.3755 -0.0467
15176TIP3    H167019   1.191   5.426  10.840 -0.6778  0.8699 -1.0290
15176TIP3    H267020   1.129   5.354  10.722 -0.3197 -0.8138 -0.2017
15177TIP3   OH267021   5.919   4.863   2.317 -0.7041 -0.1259  0.8714
15177TIP3    H167022   5.874   4.803   2.376  0.1798  1.3331  3.0885
15177TIP3    H267023   5.862   4.941   2.315 -0.6421 -0.1045 -0.0666
15178TIP3   OH267024   1.613   1.307  14.302 -0.1871 -0.2330 -0.2472
15178TIP3    H167025   1.683   1.287  14.365  0.1704 -1.4395 -1.0049
15178TIP3    H267026   1.602   1.402  14.308  0.5707 -0.2032  0.8709
15179TIP3   OH267027   6.109   0.734   1.276  0.0198  0.3742  0.0995
15179TIP3    H167028   6.123   0.796   1.205 -0.2997  0.9029  0.4933
15179TIP3    H267029   6.085   0.788   1.351 -3.0320 -0.3548 -0.2548
15180TIP3   OH267030   5.960   1.152  11.451 -0.0019 -0.2211 -0.1263
15180TIP3    H167031   6.002   1.096  11.386 -1.6441 -0.2763 -1.1821
15180TIP3    H267032   5.953   1.237  11.407 -1.5496 -0.3821 -0.2108
15181TIP3   OH267033   1.192   5.586   5.364 -0.4179  0.3874 -0.3461
15181TIP3    H167034   1.155   5.621   5.283 -1.0375 -0.4174 -0.4127
15181TIP3    H267035   1.132   5.516   5.389 -0.1659  0.5677  0.7534
15182TIP3   OH267036   1.544   1.594  13.371  0.8011 -0.2455 -0.9097
15182TIP3    H167037   1.522   1.608  13.279 -1.0014  1.1751 -0.3059
15182TIP3    H267038   1.594   1.671  13.396  0.2514 -0.0533 -0.3913
15183TIP3   OH267039   2.300   6.034   2.582 -0.3852 -0.5710 -0.3762
15183TIP3    H167040   2.367   6.091   2.619  0.1220 -0.7564 -0.9959
15183TIP3    H267041   2.218   6.080   2.598 -0.0298  0.0648 -0.3572
15184TIP3   OH267042   6.793   4.130  16.874 -0.1327 -0.3759  0.1315
15184TIP3    H167043   6.887   4.140  16.860 -0.4770 -0.9521 -2.8506
15184TIP3    H267044   6.772   4.045  16.835 -1.1158 -2.5811  5.0116
15185TIP3   OH267045   5.533   4.304   3.388  0.4484 -0.7369  0.2755
15185TIP3    H167046   5.517   4.242   3.459  0.5820 -4.0767 -2.4684
15185TIP3    H267047   5.622   4.284   3.358 -0.6616 -1.4428 -2.7089
15186TIP3   OH267048   5.544   6.631   6.092  0.5085  0.4105 -0.2071
15186TIP3    H167049   5.580   6.544   6.074  0.6868  0.6720 -1.1258
15186TIP3    H267050   5.497   6.621   6.175 -0.3115 -0.8057 -0.8094
15187TIP3   OH267051   2.615   1.794  12.886  0.1471 -0.1601  0.9609
15187TIP3    H167052   2.683   1.774  12.950  0.5735  0.4196  0.6952
15187TIP3    H267053   2.660   1.789  12.801 -0.0668  0.5502  0.8035
15188TIP3   OH267054   6.108   6.127   5.944  0.6501 -0.1202  0.1487
15188TIP3    H167055   6.115   6.033   5.929  0.7593 -0.0123 -0.4880
15188TIP3    H267056   6.190   6.163   5.913  0.7898  0.1415  0.8043
15189TIP3   OH267057   3.321   2.248   3.596  0.3530 -0.0179  0.4103
15189TIP3    H167058   3.262   2.270   3.524 -0.5906 -0.9936  0.8748
15189TIP3    H267059   3.283   2.291   3.673 -1.4057 -2.9740  1.2899
15190TIP3   OH267060   0.694   4.749  13.803 -0.6326  0.2694  0.6918
15190TIP3    H167061   0.755   4.823  13.805 -0.7186  0.4568 -1.9270
15190TIP3    H267062   0.610   4.786  13.829 -0.7132  1.1776 -0.7757
15191TIP3   OH267063   3.062   6.157   2.052 -0.0335  0.0551  0.1362
15191TIP3    H167064   3.140   6.193   2.010 -0.2254 -0.0888 -0.3517
15191TIP3    H267065   3.080   6.162   2.146  0.2489  0.7164  0.0473
15192TIP3   OH267066   1.466   3.532   0.322 -0.7738  0.4062  0.5104
15192TIP3    H167067   1.393   3.576   0.278 -0.2644 -0.6098 -1.3813
15192TIP3    H267068   1.497   3.597   0.386 -1.2352  2.0992 -0.9297
15193TIP3   OH267069   3.587   6.082  16.505 -0.1876  0.1914  0.2173
15193TIP3    H167070   3.618   6.140  16.575 -1.1973 -0.3357  1.1046
15193TIP3    H267071   3.645   6.006  16.510  0.8389  0.8942 -0.6457
15194TIP3   OH267072   1.588   5.329   2.144  0.4812  0.1558  0.4356
15194TIP3    H167073   1.599   5.424   2.148  1.3716  0.0723 -0.0720
15194TIP3    H267074   1.620   5.305   2.057 -2.7587 -0.2105 -0.7437
15195TIP3   OH267075   0.620   6.015  10.972 -0.2561  0.2439  0.0474
15195TIP3    H167076   0.681   5.943  10.991 -2.0296 -0.7965  1.8950
15195TIP3    H267077   0.610   6.012  10.877  0.6935 -1.1492 -0.0344
15196TIP3   OH267078   6.728   1.752  11.957 -0.0578  0.4628 -0.5356
15196TIP3    H167079   6.821   1.742  11.935  0.1921 -1.8692  1.3426
15196TIP3    H267080   6.729   1.795  12.043 -0.6997  0.2452 -0.4175
15197TIP3   OH267081   2.504   0.167   2.626 -0.0481 -0.0288 -0.2961
15197TIP3    H167082   2.535   0.085   2.587 -0.5849 -0.0393 -0.7002
15197TIP3    H267083   2.568   0.186   2.695 -0.8838 -1.6996  0.9619
15198TIP3   OH267084   6.501   2.167   0.294  0.2601 -0.3141 -0.2409
15198TIP3    H167085   6.522   2.134   0.381 -0.2206  0.1214  0.0451
15198TIP3    H267086   6.444   2.243   0.310 -0.5015 -0.7213 -0.9498
15199TIP3   OH267087   1.756   5.566   6.171 -0.3438  0.2475  0.7265
15199TIP3    H167088   1.808   5.521   6.238 -1.3456 -0.6191  0.9355
15199TIP3    H267089   1.679   5.599   6.218 -1.0677 -0.3847  0.0078
15200TIP3   OH267090   2.349   5.387   3.694 -0.4900 -0.2693 -0.2402
15200TIP3    H167091   2.338   5.330   3.617  0.9015 -1.0977  0.1563
15200TIP3    H267092   2.384   5.329   3.762  1.1012  1.0916  0.1317
15201TIP3   OH267093   5.200   4.799   2.762 -0.1207 -0.2001 -0.1712
15201TIP3    H167094   5.105   4.792   2.758 -0.1060  0.0998 -1.0624
15201TIP3    H267095   5.229   4.714   2.797 -0.5065 -1.5893 -3.0620
15202TIP3   OH267096   3.336   6.145  11.303 -0.1953  0.8047  0.3486
15202TIP3    H167097   3.335   6.118  11.211 -1.1346 -0.4920  0.7251
15202TIP3    H267098   3.270   6.089  11.345  1.0132  0.6246  2.0272
15203TIP3   OH267099   4.512   6.392   0.513  0.5346 -0.1281 -0.1853
15203TIP3    H167100   4.528   6.405   0.420  0.5958 -0.5146 -0.2261
15203TIP3    H267101   4.592   6.353   0.546 -0.4281 -2.3746 -0.4472
15204TIP3   OH267102   3.979   4.287   2.976  0.2654  0.0557  0.2253
15204TIP3    H167103   3.934   4.209   2.945  2.4036 -0.8909 -0.6100
15204TIP3    H267104   3.967   4.351   2.906 -2.8226  1.0483  1.5908
15205TIP3   OH267105   1.427   6.240  17.102 -0.1844 -0.4093  0.2686
15205TIP3    H167106   1.508   6.285  17.078 -0.2624 -0.7426 -0.6461
15205TIP3    H267107   1.362   6.273  17.039 -0.1820 -1.9836 -0.5852
15206TIP3   OH267108   3.237   0.781  11.843  0.2969  0.1235  0.1416
15206TIP3    H167109   3.214   0.751  11.755 -1.2737  1.5400  0.0662
15206TIP3    H267110   3.325   0.819  11.832 -0.2395  1.0673 -0.9898
15207TIP3   OH267111   6.205   3.185  14.963 -0.5687 -0.2075 -0.4022
15207TIP3    H167112   6.197   3.165  14.870  0.7316 -1.0115 -0.3639
15207TIP3    H267113   6.179   3.105  15.008  0.8060 -0.5264 -0.1419
15208TIP3   OH267114   5.147   0.428   4.187  0.6490  0.3356  0.1892
15208TIP3    H167115   5.160   0.486   4.112  0.6271  1.5279  1.0912
15208TIP3    H267116   5.140   0.487   4.262 -0.6570 -0.7680  0.9614
15209TIP3   OH267117   3.733   0.561  11.303 -0.8824  0.0629  1.3041
15209TIP3    H167118   3.660   0.503  11.281 -0.5242 -0.6368  1.9474
15209TIP3    H267119   3.754   0.541  11.394  0.1024  0.2754  1.1323
15210TIP3   OH267120   5.271   5.840  15.274 -0.2822 -0.3956 -0.1859
15210TIP3    H167121   5.268   5.748  15.300  1.9479 -0.1660  0.9982
15210TIP3    H267122   5.269   5.838  15.179  2.8372 -1.8840 -0.2891
15211TIP3   OH267123   6.418   5.445   0.076 -0.3404  0.2004  0.6591
15211TIP3    H167124   6.337   5.429   0.027 -0.0006  0.1940  0.0936
15211TIP3    H267125   6.396   5.423   0.167 -0.6388 -0.9361  0.3212
15212TIP3   OH267126   4.846   6.186  11.328  0.3988  0.6403 -0.0022
15212TIP3    H167127   4.936   6.190  11.360  1.0889 -1.0731 -1.6242
15212TIP3    H267128   4.839   6.099  11.288 -1.5111  1.3314 -1.2267
15213TIP3   OH267129   2.360   2.129  17.083 -0.1851 -0.1917 -0.6174
15213TIP3    H167130   2.298   2.095  17.149 -1.5340  2.6386 -0.3535
15213TIP3    H267131   2.446   2.118  17.124 -0.7428 -1.3302  0.3109
15214TIP3   OH267132   2.916   1.090  13.367 -0.4474  0.1912 -0.5338
15214TIP3    H167133   3.003   1.095  13.407 -1.3826 -1.3876  1.8324
15214TIP3    H267134   2.920   1.014  13.310 -0.6619 -0.7390  0.6642
15215TIP3   OH267135   2.510   0.648   1.178  0.6360 -0.1008 -0.3314
15215TIP3    H167136   2.514   0.629   1.084 -1.0472  0.3372 -0.5044
15215TIP3    H267137   2.527   0.564   1.220 -0.7266 -0.7596 -1.0559
15216TIP3   OH267138   6.214   6.241  17.115  0.7582 -0.4421  0.5623
15216TIP3    H167139   6.218   6.155  17.157  0.6520 -0.4254  0.6061
15216TIP3    H267140   6.265   6.231  17.034 -0.1369 -0.8435  0.0469
15217TIP3   OH267141   3.004   4.528   1.149  0.5895 -0.8455  0.7806
15217TIP3    H167142   2.959   4.612   1.143  2.7660  0.2659 -0.3436
15217TIP3    H267143   2.933   4.464   1.158 -1.1473  0.9745  0.4398
15218TIP3   OH267144   4.087   3.941  16.861  0.4068 -0.0203  0.5103
15218TIP3    H167145   4.181   3.958  16.865  0.6154 -1.3285  1.6930
15218TIP3    H267146   4.075   3.894  16.778  0.9604 -0.7525  0.8406
15219TIP3   OH267147   5.922   1.431  15.510 -0.5084  0.3435  0.1143
15219TIP3    H167148   5.882   1.420  15.424 -0.0235  0.0528 -0.0793
15219TIP3    H267149   6.013   1.454  15.492  0.0748 -1.4846  0.5281
15220TIP3   OH267150   1.317   3.636   1.752 -0.0303 -0.2761 -0.1265
15220TIP3    H167151   1.309   3.544   1.729 -0.1194 -0.3125  0.0479
15220TIP3    H267152   1.260   3.647   1.828  0.2953 -0.1647  0.1029
15221TIP3   OH267153   4.745   6.376  15.773 -0.0850  0.3257  0.3526
15221TIP3    H167154   4.701   6.350  15.692  1.6705  0.8501 -0.7919
15221TIP3    H267155   4.797   6.300  15.797  0.6618  0.7432  0.0827
15222TIP3   OH267156   4.551   5.001  11.683  0.2215  0.8022 -0.6367
15222TIP3    H167157   4.619   4.957  11.735 -0.1490 -0.0177 -0.8407
15222TIP3    H267158   4.500   5.050  11.748 -1.4155 -1.7490  0.0389
15223TIP3   OH267159   1.368   4.262  16.161  0.1074  0.0526  0.7402
15223TIP3    H167160   1.455   4.294  16.185  0.0364  0.4973  0.4087
15223TIP3    H267161   1.377   4.238  16.068 -0.8655  2.7833 -0.1230
15224TIP3   OH267162   0.934   0.037   2.756 -0.5536 -0.3125 -0.3558
15224TIP3    H167163   0.996   0.105   2.782 -0.0645 -0.3966 -1.2961
15224TIP3    H267164   0.965   0.007   2.671 -1.9473 -0.2560 -0.9101
15225TIP3   OH267165   0.188   3.160  12.411 -0.5757 -0.2967 -0.1777
15225TIP3    H167166   0.126   3.174  12.339 -0.5637 -1.5757 -0.4434
15225TIP3    H267167   0.224   3.247  12.428 -1.1474  0.1558 -1.1949
15226TIP3   OH267168   0.145   2.507   4.377  0.7811  0.4064  0.3427
15226TIP3    H167169   0.121   2.588   4.332 -1.8011 -1.0185 -0.9665
15226TIP3    H267170   0.195   2.536   4.453 -1.1025  3.3146  0.5556
15227TIP3   OH267171   4.589   6.125   2.800  0.4569 -0.2912  0.2022
15227TIP3    H167172   4.621   6.179   2.728  1.5622  0.0279  0.9205
15227TIP3    H267173   4.651   6.052   2.804  0.7283 -0.0032  1.2015
15228TIP3   OH267174   4.829   3.947  12.713 -0.1345  0.6068  0.5244
15228TIP3    H167175   4.853   3.877  12.652 -2.1433 -0.7877  1.2733
15228TIP3    H267176   4.815   3.902  12.796 -1.1197  1.9444  1.0936
15229TIP3   OH267177   4.654   3.497  15.532 -0.6219 -0.3575 -0.6556
15229TIP3    H167178   4.606   3.435  15.477  0.9582 -2.5246  0.3308
15229TIP3    H267179   4.589   3.529  15.595 -1.8266  0.2077 -2.1716
15230TIP3   OH267180   1.070   2.460  16.387 -0.0693 -0.7748  0.1639
15230TIP3    H167181   1.157   2.500  16.389 -0.5731  0.4270 -1.0033
15230TIP3    H267182   1.024   2.500  16.461  0.3990 -1.5131  0.8631
15231TIP3   OH267183   1.422   0.631  14.433  0.2479 -0.1447  0.3762
15231TIP3    H167184   1.430   0.649  14.339  3.5088 -3.2114 -0.0338
15231TIP3    H267185   1.418   0.718  14.473 -0.4783  1.2500 -2.5229
15232TIP3   OH267186   1.864   2.908  13.039  0.1245 -0.2941  1.2148
15232TIP3    H167187   1.905   2.984  13.081  1.9043 -0.6622  0.1889
15232TIP3    H267188   1.836   2.940  12.953  1.0492 -0.8194  0.7032
15233TIP3   OH267189   6.259   5.096  12.107  0.2368 -0.6663  0.5324
15233TIP3    H167190   6.167   5.106  12.132  0.8084 -0.5388  2.7170
15233TIP3    H267191   6.307   5.112  12.188  2.2065 -0.4666 -0.6446
15234TIP3   OH267192   1.373   4.439   0.998  0.5421 -0.1302  1.1135
15234TIP3    H167193   1.405   4.506   0.938 -3.5774 -0.4483 -1.6540
15234TIP3    H267194   1.328   4.487   1.067 -0.7808  0.0122  0.1507
15235TIP3   OH267195   6.571   0.498  13.713 -0.1936 -0.2443 -0.3653
15235TIP3    H167196   6.483   0.535  13.726  0.2057  1.1198 -1.4520
15235TIP3    H267197   6.569   0.463  13.624  0.1084 -0.9632 -0.0934
15236TIP3   OH267198   4.610   2.168   1.678  0.1136 -0.3739 -0.4994
15236TIP3    H167199   4.519   2.166   1.648 -0.1802 -1.5173  0.4401
15236TIP3    H267200   4.637   2.260   1.668 -1.1594 -0.0202 -0.7197
15237TIP3   OH267201   0.141   0.833  16.946 -0.0338 -0.1170  0.2894
15237TIP3    H167202   0.119   0.743  16.922  1.8724 -0.7048  0.6236
15237TIP3    H267203   0.113   0.885  16.871  2.6577 -1.5154 -1.7922
15238TIP3   OH267204   5.976   4.279  14.982 -0.1464  0.2961  0.0348
15238TIP3    H167205   6.019   4.194  14.996  0.8710  0.8370  0.2140
15238TIP3    H267206   5.922   4.291  15.060  1.0268  0.5990  0.8187
15239TIP3   OH267207   0.050   6.554   6.122 -0.3157  0.1848 -0.0539
15239TIP3    H167208   0.044   6.649   6.133 -0.8235  0.1746 -0.2238
15239TIP3    H267209   0.057   6.542   6.027 -1.7974 -0.0254 -0.1464
15240TIP3   OH267210   2.798   2.391   4.443 -0.0631  0.3418 -0.5719
15240TIP3    H167211   2.776   2.307   4.404 -0.8594  0.6142 -0.7256
15240TIP3    H267212   2.821   2.370   4.534  2.0537 -0.3244 -1.2285
15241TIP3   OH267213   3.345   5.743  15.168  0.3214 -0.7860  0.0709
15241TIP3    H167214   3.258   5.737  15.128  0.3374 -0.1122 -0.0815
15241TIP3    H267215   3.327   5.756  15.262  0.2623 -1.0372  0.0934
15242TIP3   OH267216   0.081   3.198   3.452 -0.8970  0.2987  0.3900
15242TIP3    H167217  -0.003   3.152   3.458 -0.4063 -0.4699  1.6442
15242TIP3    H267218   0.118   3.190   3.540  0.2637  1.0610 -0.0317
15243TIP3   OH267219   1.326   5.947   2.254 -0.0995  0.4284 -0.2660
15243TIP3    H167220   1.315   5.866   2.204 -1.8448  0.3949  0.1369
15243TIP3    H267221   1.346   5.918   2.343 -0.1722  0.4583 -0.2404
15244TIP3   OH267222   3.077   5.774   1.514  0.7317  0.0240 -0.4340
15244TIP3    H167223   3.094   5.764   1.608 -0.8521 -0.6148 -0.2018
15244TIP3    H267224   3.083   5.868   1.499  0.1730  0.2222  0.4928
15245TIP3   OH267225   6.618   2.711  16.335 -0.0023  0.8009  0.8518
15245TIP3    H167226   6.657   2.713  16.422  0.2288  0.3684  0.7585
15245TIP3    H267227   6.653   2.632  16.295  2.0458  2.3749 -0.6244
15246TIP3   OH267228   0.807   2.797  13.986  0.0130  0.0300  0.3207
15246TIP3    H167229   0.772   2.712  14.011  0.4540  0.2970  1.9159
15246TIP3    H267230   0.899   2.793  14.013  0.8743 -0.1634 -2.5448
15247TIP3   OH267231   4.060   6.189  16.503  0.2521 -0.0295 -0.0019
15247TIP3    H167232   4.051   6.103  16.545  1.8818  0.7260  1.9494
15247TIP3    H267233   4.132   6.178  16.442 -0.1889 -0.3046 -0.4814
15248TIP3   OH267234   1.361   4.192  15.584 -0.5507 -0.4008 -0.6592
15248TIP3    H167235   1.338   4.194  15.677  1.5846  2.7775 -0.1137
15248TIP3    H267236   1.427   4.123  15.577 -1.4679 -1.3481 -0.0098
15249TIP3   OH267237   4.349   6.562   2.374 -0.4524  0.1025  0.0779
15249TIP3    H167238   4.348   6.597   2.285 -3.6959  0.8143  0.3161
15249TIP3    H267239   4.267   6.512   2.381  0.2403 -0.7917  2.3500
15250TIP3   OH267240   0.301   1.586  12.239  0.4306 -0.2617 -0.0770
15250TIP3    H167241   0.267   1.665  12.281  1.0610  0.3258 -0.6678
15250TIP3    H267242   0.337   1.535  12.311  0.0721  0.0086  0.2985
15251TIP3   OH267243   5.378   4.496   5.536  0.1993 -0.5987  0.2790
15251TIP3    H167244   5.412   4.555   5.604 -2.7248  1.4480  0.0879
15251TIP3    H267245   5.327   4.431   5.584  0.7273 -1.0499  0.2393
15252TIP3   OH267246   4.033   5.898   0.768 -0.0168 -0.7528 -0.1614
15252TIP3    H167247   4.011   5.804   0.764  0.8225 -0.9669  0.1330
15252TIP3    H267248   4.041   5.916   0.862  0.9201 -0.6487 -0.2582
15253TIP3   OH267249   0.752   3.075   4.342 -0.0217 -0.2586  0.9880
15253TIP3    H167250   0.731   3.041   4.255  1.7880  2.2243 -0.4782
15253TIP3    H267251   0.846   3.060   4.352  0.0408  0.7097  1.9467
15254TIP3   OH267252   5.468   3.954  11.082  0.4415 -0.1571  0.1582
15254TIP3    H167253   5.538   3.986  11.025  1.2944 -1.1421  0.6527
15254TIP3    H267254   5.509   3.888  11.137 -1.1484 -1.6686 -0.4142
15255TIP3   OH267255   0.656   5.514   3.645 -0.0555 -0.6636  0.2618
15255TIP3    H167256   0.665   5.570   3.568  0.2849 -0.7650  0.2279
15255TIP3    H267257   0.725   5.448   3.636  1.3439  0.5508  1.6854
15256TIP3   OH267258   1.048   0.986   2.612 -0.3690  0.0234 -0.3488
15256TIP3    H167259   0.977   1.049   2.606 -1.6714 -1.4703 -1.0006
15256TIP3    H267260   1.011   0.904   2.580  1.7449 -0.7221 -1.0191
15257TIP3   OH267261   1.030   6.498  16.200  0.2311  0.4837  0.3493
15257TIP3    H167262   1.017   6.404  16.187 -0.9232  0.4078  1.8539
15257TIP3    H267263   0.943   6.536  16.187  0.8551  1.4372 -1.0358
15258TIP3   OH267264   0.737   4.729  10.530  0.3709  0.0618  0.8288
15258TIP3    H167265   0.797   4.656  10.511  0.2788  0.3096 -0.4558
15258TIP3    H267266   0.790   4.790  10.581  2.1773  1.6556 -2.7826
15259TIP3   OH267267   1.077   6.610   1.647 -0.1430  0.1067 -0.1283
15259TIP3    H167268   1.097   6.540   1.709 -1.2131  0.5934  0.7867
15259TIP3    H267269   0.989   6.638   1.670  0.2416  1.7094 -0.5161
15260TIP3   OH267270   3.404   1.480  17.047  0.2101 -0.1014 -0.1248
15260TIP3    H167271   3.380   1.390  17.023 -1.1906  0.4919 -0.9659
15260TIP3    H267272   3.327   1.515  17.090  0.9687  0.5101  0.7361
15261TIP3   OH267273   0.768   2.902  12.579  0.7491 -0.4430 -0.1283
15261TIP3    H167274   0.732   2.989  12.562  0.9874 -0.4377 -0.6161
15261TIP3    H267275   0.691   2.844  12.577  0.2576  0.0439  2.5318
15262TIP3   OH267276   0.217   0.686   3.689 -0.7929  0.0183 -0.6144
15262TIP3    H167277   0.126   0.687   3.659 -1.3877 -1.6847  1.0853
15262TIP3    H267278   0.214   0.644   3.775  1.2501  2.3858  0.6709
15263TIP3   OH267279   6.670   0.637   0.253  0.0616 -0.5627 -0.5379
15263TIP3    H167280   6.750   0.690   0.256 -0.6884  1.0787 -4.8977
15263TIP3    H267281   6.700   0.552   0.221  0.6144 -1.3612  2.0098
15264TIP3   OH267282   2.159   2.846   0.090  0.1141  0.0356  0.3171
15264TIP3    H167283   2.219   2.872   0.160 -0.5906 -1.6404  1.5569
15264TIP3    H267284   2.216   2.832   0.014  0.9765  1.0164  0.7688
15265TIP3   OH267285   2.614   4.727   3.580 -0.4763 -0.2052  0.2564
15265TIP3    H167286   2.659   4.700   3.660  0.7299 -0.6703 -0.5623
15265TIP3    H267287   2.614   4.823   3.584 -0.6957 -0.2272  0.9476
15266TIP3   OH267288   3.518   5.740   1.215 -0.2850  0.1766 -0.1464
15266TIP3    H167289   3.467   5.660   1.223 -0.2261  0.1112 -0.4466
15266TIP3    H267290   3.534   5.750   1.122  0.1045  0.2915 -0.0681
15267TIP3   OH267291   4.344   0.754   1.485 -0.0058 -0.5068  0.4680
15267TIP3    H167292   4.430   0.713   1.477 -0.6701 -1.8620  0.0209
15267TIP3    H267293   4.288   0.704   1.426 -0.9363  0.8430  0.1757
15268TIP3   OH267294   5.840   2.390  13.370 -0.0088 -0.2309 -0.2608
15268TIP3    H167295   5.807   2.471  13.331 -0.6551  0.8027  2.3773
15268TIP3    H267296   5.925   2.376  13.327 -1.2737  0.1382 -2.9698
15269TIP3   OH267297   0.058   6.715   1.097  0.5150 -0.4390  0.0392
15269TIP3    H167298   0.077   6.795   1.145 -1.0634  0.7350 -1.2554
15269TIP3    H267299  -0.037   6.714   1.088  0.4459 -2.8531  0.6892
15270TIP3   OH267300   0.519   4.910   5.008 -0.6539  0.5028  0.0624
15270TIP3    H167301   0.447   4.852   4.983 -2.0399  2.7737 -1.4769
15270TIP3    H267302   0.486   4.956   5.085  0.0655 -0.0652  0.7141
15271TIP3   OH267303   4.653   0.818   5.448 -0.3669  0.1906 -0.2031
15271TIP3    H167304   4.638   0.727   5.474 -0.1750  0.4078  0.6447
15271TIP3    H267305   4.586   0.868   5.495 -0.8584  0.4319 -1.1220
15272TIP3   OH267306   5.071   0.880  12.005 -0.3397 -0.3050  0.5943
15272TIP3    H167307   5.035   0.886  12.093 -1.7400 -0.5874  0.0455
15272TIP3    H267308   5.150   0.827  12.015 -0.6759 -0.6239  1.6120
15273TIP3   OH267309   5.221   4.552   2.880 -0.5881 -0.6345  0.0650
15273TIP3    H167310   5.258   4.482   2.934 -0.0172 -0.1363  0.3340
15273TIP3    H267311   5.133   4.522   2.858 -1.1726 -0.4182  2.0579
15274TIP3   OH267312   2.152   3.621   4.894  0.1319  0.0761 -0.5182
15274TIP3    H167313   2.226   3.564   4.912  2.8405  3.9033  1.2343
15274TIP3    H267314   2.117   3.642   4.981 -1.7231 -0.0401 -1.2199
15275TIP3   OH267315   3.668   6.545  13.088  0.2908 -0.0378 -0.3502
15275TIP3    H167316   3.635   6.471  13.138  2.8090  0.0501  1.5034
15275TIP3    H267317   3.745   6.512  13.042  0.4211  0.9707 -0.8884
15276TIP3   OH267318   5.571   4.446  15.965  0.7075  0.7186  0.3215
15276TIP3    H167319   5.492   4.436  16.019 -1.3606  1.6917 -2.3960
15276TIP3    H267320   5.602   4.357  15.951  0.1167  0.3222  1.4504
15277TIP3   OH267321   3.557   3.405  13.026  0.3134  0.5194 -0.1567
15277TIP3    H167322   3.472   3.382  12.987  0.0529 -0.5064  0.9686
15277TIP3    H267323   3.617   3.338  12.994  1.2050  2.4545 -2.6510
15278TIP3   OH267324   1.186   0.947  11.265 -0.5421  0.1816 -0.0994
15278TIP3    H167325   1.178   0.865  11.313 -2.2031  1.7696  2.4784
15278TIP3    H267326   1.104   0.954  11.216 -0.5913  0.4809  0.0206
15279TIP3   OH267327   6.173   5.298   5.946  0.0270 -0.0337 -0.0561
15279TIP3    H167328   6.252   5.310   5.998 -0.8445 -1.5313  1.6583
15279TIP3    H267329   6.104   5.343   5.994 -0.2140  1.1435 -1.4660
15280TIP3   OH267330   1.658   3.662  17.189  0.0637 -0.3242  0.2186
15280TIP3    H167331   1.731   3.724  17.184 -1.0725  0.9490 -0.8758
15280TIP3    H267332   1.593   3.706  17.245 -0.0056 -1.3042  0.9180
15281TIP3   OH267333   5.946   0.978  14.077  0.0082  0.4021  0.5319
15281TIP3    H167334   5.953   1.071  14.097 -0.2831  0.2920  1.1730
15281TIP3    H267335   5.993   0.967  13.994 -1.2651  1.3935 -0.3471
15282TIP3   OH267336   2.448   3.004   3.301 -0.6853  0.1910  0.3676
15282TIP3    H167337   2.505   2.976   3.230  0.4676  1.3554  0.8142
15282TIP3    H267338   2.439   3.098   3.290 -1.5742  0.1971  0.9998
15283TIP3   OH267339   2.578   4.727  16.325  0.3898 -0.0255  0.1339
15283TIP3    H167340   2.509   4.676  16.366 -1.0945 -0.1369 -2.3773
15283TIP3    H267341   2.657   4.675  16.337 -0.8261 -2.2574 -1.0936
15284TIP3   OH267342   6.347   0.715   3.126  0.1575  0.4533 -0.2326
15284TIP3    H167343   6.263   0.671   3.131 -0.3800  1.1495 -2.5536
15284TIP3    H267344   6.409   0.648   3.098 -0.0753  0.4922 -0.8292
15285TIP3   OH267345   2.042   3.440   2.932  0.0430 -0.5487  0.2345
15285TIP3    H167346   2.030   3.507   2.999  1.4590 -0.8183  0.7805
15285TIP3    H267347   2.118   3.389   2.962  1.2603 -0.1265 -2.0118
15286TIP3   OH267348   6.072   6.654   1.478  0.3973 -0.0825  0.1521
15286TIP3    H167349   6.144   6.612   1.526 -0.9297 -0.1732  2.1634
15286TIP3    H267350   6.057   6.736   1.524  1.2108  1.3626 -2.1348
15287TIP3   OH267351   4.753   4.464  16.085 -0.3149 -0.1125  0.0491
15287TIP3    H167352   4.769   4.435  16.175  0.2258 -1.7404 -0.5510
15287TIP3    H267353   4.829   4.433  16.036 -1.3818 -0.6892 -1.2870
15288TIP3   OH267354   2.622   2.726   5.629 -0.2134 -0.3267 -0.0094
15288TIP3    H167355   2.626   2.788   5.557 -0.3872 -2.4934 -1.9155
15288TIP3    H267356   2.701   2.745   5.681 -0.8600  2.2078  0.0855
15289TIP3   OH267357   1.944   0.061  12.884 -0.2775 -0.0680 -0.3479
15289TIP3    H167358   1.899   0.031  12.805 -0.2445 -0.2158 -0.3123
15289TIP3    H267359   1.906   0.008  12.955  0.0204 -0.2667 -0.3327
15290TIP3   OH267360   6.801   6.008  14.590  0.4504 -0.1784 -0.1741
15290TIP3    H167361   6.783   5.914  14.589  0.8973 -0.2647 -0.6341
15290TIP3    H267362   6.716   6.050  14.580  0.4598 -0.5736 -2.1554
15291TIP3   OH267363   1.292   3.356  16.304 -0.0177  0.0213 -0.2967
15291TIP3    H167364   1.261   3.445  16.290 -1.0926 -0.3616 -0.4090
15291TIP3    H267365   1.387   3.363  16.305 -0.0975  1.1403 -0.4902
15292TIP3   OH267366   2.301   3.403  16.339  0.0898  0.4460  0.3645
15292TIP3    H167367   2.306   3.325  16.393  1.7839 -1.1946 -2.0931
15292TIP3    H267368   2.208   3.427  16.340 -0.0424 -0.1039  3.1650
15293TIP3   OH267369   4.057   0.617  10.987 -0.0619 -0.3186 -0.7361
15293TIP3    H167370   3.984   0.557  11.006 -0.2241  0.1095  0.0159
15293TIP3    H267371   4.040   0.648  10.898 -0.7120 -0.3523 -0.6259
15294TIP3   OH267372   0.520   5.772   1.460  0.1201  0.0301 -0.1622
15294TIP3    H167373   0.479   5.687   1.445  0.9172 -0.1430 -1.4385
15294TIP3    H267374   0.484   5.801   1.544 -1.3785 -0.8459 -0.4664
15295TIP3   OH267375   4.488   3.552  11.978  0.4125 -0.3422 -0.1424
15295TIP3    H167376   4.493   3.495  11.901  1.0531 -0.9924  0.3782
15295TIP3    H267377   4.522   3.499  12.049  1.9563  1.0388  0.1591
15296TIP3   OH267378   0.026   3.663   2.057  0.0526  0.1076 -0.2754
15296TIP3    H167379   0.079   3.619   1.990  0.0505  1.0767 -0.9216
15296TIP3    H267380  -0.048   3.700   2.009 -0.7761 -0.5072  0.4996
15297TIP3   OH267381   5.651   1.589  16.250  0.0667  0.0859  0.1961
15297TIP3    H167382   5.662   1.599  16.156  0.5705  0.6801  0.3177
15297TIP3    H267383   5.579   1.527  16.259  1.2314 -1.4337 -0.5960
15298TIP3   OH267384   5.153   5.207  11.418  0.8995  0.1770  0.3896
15298TIP3    H167385   5.066   5.182  11.450  0.0355  0.6169 -1.5393
15298TIP3    H267386   5.183   5.132  11.368  1.3674  0.2836  0.5086
15299TIP3   OH267387   5.254   3.210  13.066  0.2141  0.3312 -0.4736
15299TIP3    H167388   5.189   3.193  12.997  0.0374  0.0543 -0.2393
15299TIP3    H267389   5.250   3.305  13.080  0.2407  0.3860 -0.8342
15300TIP3   OH267390   1.521   6.426   3.720 -0.2090  0.0776  0.1225
15300TIP3    H167391   1.587   6.361   3.697 -1.6236 -0.6893 -1.9282
15300TIP3    H267392   1.554   6.509   3.686 -0.1126 -0.2394 -0.5641
15301TIP3   OH267393   6.813   5.137  16.402  0.7040  0.0229  0.4301
15301TIP3    H167394   6.720   5.124  16.421  0.1408  1.6429 -1.1147
15301TIP3    H267395   6.825   5.232  16.402  1.8222 -0.0814 -1.7607
15302TIP3   OH267396   3.900   5.977   0.518  0.0074  0.1139  0.4207
15302TIP3    H167397   3.955   5.951   0.592 -1.4640 -1.5226  0.9749
15302TIP3    H267398   3.861   6.060   0.545  0.8991  0.4363  0.7249
15303TIP3   OH267399   2.122   0.517  15.576  0.1268 -0.4923  0.1569
15303TIP3    H167400   2.129   0.586  15.643  0.5230 -1.1195  0.7619
15303TIP3    H267401   2.062   0.453  15.613 -0.0930 -0.5739 -0.3320
15304TIP3   OH267402   1.706   0.276   4.964  0.4794  0.3560  0.2072
15304TIP3    H167403   1.718   0.185   4.994  0.6608  0.3280  0.0486
15304TIP3    H267404   1.788   0.320   4.988  1.9370 -0.4147 -3.0375
15305TIP3   OH267405   3.418   5.559   4.219  0.2371 -0.2367  0.2790
15305TIP3    H167406   3.494   5.603   4.259  1.0234 -1.4980  0.1787
15305TIP3    H267407   3.412   5.475   4.265 -0.6591 -0.4515 -0.2235
15306TIP3   OH267408   6.358   0.863  16.981  0.1883 -0.1249 -0.2660
15306TIP3    H167409   6.420   0.874  17.053  0.6646 -1.0455 -0.5282
15306TIP3    H267410   6.297   0.796  17.012  0.1211 -0.1880 -0.5284
15307TIP3   OH267411   3.927   0.414   4.846  0.0412 -0.5650 -0.5634
15307TIP3    H167412   3.954   0.467   4.772 -0.2785  0.7206  0.2280
15307TIP3    H267413   3.874   0.473   4.900  0.7945 -1.2898  1.0071
15308TIP3   OH267414   0.678   0.149   5.209 -0.3742 -0.1039 -0.3430
15308TIP3    H167415   0.649   0.212   5.274  0.3710 -0.6258  0.5149
15308TIP3    H267416   0.644   0.182   5.126  1.0758  2.0743 -0.0844
15309TIP3   OH267417   0.678   3.776  12.356 -0.1340 -1.0158  0.0542
15309TIP3    H167418   0.720   3.801  12.273 -0.4955 -3.1599 -0.8065
15309TIP3    H267419   0.749   3.741  12.409  0.4902  2.2295  1.4993
15310TIP3   OH267420   4.057   3.025  11.801  0.4419 -0.3948 -0.3896
15310TIP3    H167421   4.018   2.972  11.731 -0.4389 -0.6146  0.2517
15310TIP3    H267422   3.999   3.011  11.876  1.1847  0.1120  0.2814
15311TIP3   OH267423   0.341   4.923   2.741 -0.3331 -0.2939  0.6078
15311TIP3    H167424   0.331   4.944   2.834  1.2375 -0.1653  0.7663
15311TIP3    H267425   0.430   4.889   2.734 -0.8751 -1.5044 -0.6405
15312TIP3   OH267426   3.199   6.781   1.187  0.2292 -0.2259 -0.3588
15312TIP3    H167427   3.112   6.814   1.163 -0.0714 -0.5469  0.2644
15312TIP3    H267428   3.221   6.828   1.267 -0.0527 -1.2689  0.3420
15313TIP3   OH267429   4.157   0.904   0.611  0.3567  0.3078 -0.1132
15313TIP3    H167430   4.145   0.999   0.609 -1.5634  0.1372  1.6074
15313TIP3    H267431   4.113   0.873   0.532  1.1305  0.8495 -0.7687
15314TIP3   OH267432   6.440   6.447   4.584  0.4625 -0.6623 -0.1760
15314TIP3    H167433   6.523   6.426   4.628  0.8199  0.3507 -0.3552
15314TIP3    H267434   6.406   6.362   4.555  2.0981 -0.9564 -1.2837
15315TIP3   OH267435   1.836   5.411   0.866  0.2641  0.1129  0.5213
15315TIP3    H167436   1.916   5.422   0.815  0.3622 -0.5188  0.5303
15315TIP3    H267437   1.770   5.383   0.803 -0.1514  1.3799  0.3806
15316TIP3   OH267438   4.594   5.410  14.064  0.0342 -0.2380  0.4034
15316TIP3    H167439   4.564   5.381  14.150 -1.8058 -0.8569 -0.4302
15316TIP3    H267440   4.648   5.487  14.082 -1.8532  0.7529  1.9808
15317TIP3   OH267441   2.680   3.664  13.420 -0.2742  0.3250 -0.2085
15317TIP3    H167442   2.650   3.734  13.477 -0.2231  1.3070 -1.3683
15317TIP3    H267443   2.763   3.696  13.384  0.6378 -1.0784  0.6174
15318TIP3   OH267444   6.723   1.487  13.164 -0.2004 -0.2051 -0.1014
15318TIP3    H167445   6.661   1.415  13.169  1.8272 -1.9495  0.8874
15318TIP3    H267446   6.780   1.475  13.240  1.8484  0.8392 -1.4126
15319TIP3   OH267447   0.246   4.373  14.093 -0.2316 -0.1341 -0.5326
15319TIP3    H167448   0.316   4.309  14.089  0.5321  0.6993 -0.5041
15319TIP3    H267449   0.218   4.374  14.184  0.8337  0.7308 -0.2128
15320TIP3   OH267450   6.292   2.467  12.992 -0.9014 -0.2741  0.2030
15320TIP3    H167451   6.204   2.450  13.026 -0.7179 -0.6911  0.4771
15320TIP3    H267452   6.322   2.544  13.040 -0.7268 -0.7325  0.8422
15321TIP3   OH267453   0.449   3.137  14.323  0.3077 -0.0465  0.3726
15321TIP3    H167454   0.434   3.136  14.229 -1.0554  1.3512  0.5513
15321TIP3    H267455   0.365   3.165  14.361  1.1915  0.6112  1.9114
15322TIP3   OH267456   2.886   0.237   2.543  0.2956 -0.5097  0.2356
15322TIP3    H167457   2.897   0.143   2.560  0.8439 -0.6691 -0.9928
15322TIP3    H267458   2.911   0.279   2.626  0.4074 -1.4271  0.6735
15323TIP3   OH267459   3.526   1.983  15.861  0.6490  0.1687  0.0632
15323TIP3    H167460   3.529   2.063  15.809 -0.2006 -0.6578 -1.2936
15323TIP3    H267461   3.441   1.986  15.906 -0.2373 -0.8483 -1.4771
15324TIP3   OH267462   4.918   5.883  11.578 -0.1996  0.1345  0.3569
15324TIP3    H167463   4.953   5.857  11.493  0.4838  0.0909  0.6562
15324TIP3    H267464   4.900   5.801  11.623 -1.5181  0.1416 -0.1320
15325TIP3   OH267465   2.834   4.787  11.754 -0.2258  0.3025 -0.3179
15325TIP3    H167466   2.832   4.710  11.811  1.4766  0.2691 -0.2602
15325TIP3    H267467   2.818   4.752  11.666 -3.2180  0.4015  0.1332
15326TIP3   OH267468   1.238   5.477   0.089 -0.7699 -0.1454  0.0878
15326TIP3    H167469   1.313   5.446   0.139 -1.3659 -1.4387  0.1866
15326TIP3    H267470   1.181   5.517   0.154 -1.0236 -0.8200  0.2808
15327TIP3   OH267471   6.646   2.018   4.131  0.4896  0.4300 -0.1054
15327TIP3    H167472   6.684   1.972   4.056 -0.1477  1.3388 -0.9941
15327TIP3    H267473   6.588   1.954   4.171  1.1797 -0.2121 -0.1113
15328TIP3   OH267474   4.558   3.855  12.395  0.4309  0.2519  0.8352
15328TIP3    H167475   4.525   3.787  12.336  0.9941  0.6235  0.0951
15328TIP3    H267476   4.502   3.848  12.473 -1.3424  0.7764 -0.3472
15329TIP3   OH267477   4.124   6.552   5.817 -0.0077  0.5426  0.3756
15329TIP3    H167478   4.183   6.497   5.766  0.0272  2.5378 -1.8408
15329TIP3    H267479   4.047   6.562   5.761 -0.9223  0.9657  1.6821
15330TIP3   OH267480   1.426   0.401   0.255 -0.6659  0.1901 -0.7544
15330TIP3    H167481   1.483   0.380   0.181 -0.4259  0.5196 -0.6659
15330TIP3    H267482   1.368   0.325   0.263  0.2271 -0.4551 -0.3870
15331TIP3   OH267483   3.176   4.548  14.426  0.3760  0.3882  0.1065
15331TIP3    H167484   3.083   4.567  14.438  0.3114  0.5324 -0.6249
15331TIP3    H267485   3.182   4.512  14.337  1.2634  1.9559 -0.4872
15332TIP3   OH267486   0.309   6.497  16.354 -0.8487  0.1382  0.0813
15332TIP3    H167487   0.342   6.581  16.321 -0.1494 -0.2187 -0.1554
15332TIP3    H267488   0.293   6.513  16.447  1.1904 -0.0069  0.4876
15333TIP3   OH267489   4.280   5.862  14.081 -0.2774  0.0338  0.9051
15333TIP3    H167490   4.227   5.885  14.158 -1.4277  0.0011  0.1318
15333TIP3    H267491   4.289   5.945  14.033  2.0251  0.4661  2.0144
15334TIP3   OH267492   3.344   6.058  16.702  0.4833 -0.2981 -0.3589
15334TIP3    H167493   3.422   6.055  16.646  1.3623 -0.0188  0.8228
15334TIP3    H267494   3.355   5.985  16.762 -0.6572 -0.8395 -0.7901
15335TIP3   OH267495   6.069   1.298  15.952 -0.0958 -0.0531  0.4291
15335TIP3    H167496   6.028   1.380  15.922 -0.1767  0.2395  1.3321
15335TIP3    H267497   6.043   1.290  16.043  1.3472 -0.1885  0.8432
15336TIP3   OH267498   2.119   6.444  12.928 -0.1938 -0.0944 -0.2558
15336TIP3    H167499   2.107   6.505  13.001 -2.6458  0.7797 -1.3319
15336TIP3    H267500   2.159   6.367  12.967  0.9902  1.3999  1.5218
15337TIP3   OH267501   6.435   6.495  16.278  0.0970 -0.2496  0.2626
15337TIP3    H167502   6.437   6.472  16.185 -3.1689  0.6177 -0.0634
15337TIP3    H267503   6.376   6.431  16.317 -0.6864  1.0632  1.2483
15338TIP3   OH267504   5.032   2.478   0.873  0.3294 -0.2610 -0.1737
15338TIP3    H167505   5.003   2.564   0.843  0.0683 -0.7933 -1.4649
15338TIP3    H267506   5.004   2.474   0.965 -2.3219 -0.1538 -0.9418
15339TIP3   OH267507   3.261   3.349  12.653  0.1487  0.0080  0.0566
15339TIP3    H167508   3.276   3.331  12.560  0.2365  1.2613 -0.1862
15339TIP3    H267509   3.167   3.367  12.659 -0.2385 -2.0681  0.5680
15340TIP3   OH267510   5.873   4.558  14.513 -0.4641 -0.2200  0.2440
15340TIP3    H167511   5.936   4.611  14.465  0.5355 -1.1834  0.4702
15340TIP3    H267512   5.902   4.564  14.604 -1.7040  0.7092  0.5945
15341TIP3   OH267513   0.580   4.993  14.480 -0.6559 -0.1960  0.6806
15341TIP3    H167514   0.493   5.020  14.452 -0.9513 -3.1731 -1.4529
15341TIP3    H267515   0.572   4.900  14.498  1.9387 -0.3775  1.1108
15342TIP3   OH267516   1.727   4.062   5.441  0.5452 -0.5114  0.2263
15342TIP3    H167517   1.735   4.135   5.379 -0.6945  0.3849  1.1058
15342TIP3    H267518   1.733   3.984   5.386 -0.1398  0.2689 -0.9920
15343TIP3   OH267519   1.095   4.526   0.882 -0.0312 -0.2473  0.0982
15343TIP3    H167520   1.152   4.476   0.823  0.7109 -0.2361  0.7857
15343TIP3    H267521   1.054   4.592   0.826 -0.2439 -0.9854 -0.6272
15344TIP3   OH267522   1.949   6.080  17.289  0.2077  0.5021 -0.1652
15344TIP3    H167523   1.946   6.062  17.383  0.1115 -0.4186 -0.3410
15344TIP3    H267524   2.042   6.070  17.266  0.2364  0.7608 -0.1607
15345TIP3   OH267525   0.977   1.951   0.181 -0.8467  0.9561 -0.4395
15345TIP3    H167526   0.886   1.928   0.161 -0.4628 -0.0707 -1.0586
15345TIP3    H267527   1.029   1.884   0.137  0.1961  1.2204  0.3623
15346TIP3   OH267528   4.864   1.696   3.153 -0.1096 -0.7222 -0.2062
15346TIP3    H167529   4.772   1.674   3.139 -0.6801  1.8072 -0.7050
15346TIP3    H267530   4.873   1.700   3.249 -0.7010 -0.2428 -0.1687
15347TIP3   OH267531   3.496   5.986  13.250 -0.2317 -0.0409 -0.6632
15347TIP3    H167532   3.542   5.945  13.323  0.1338  1.3575 -0.0898
15347TIP3    H267533   3.520   5.934  13.174  0.1287 -0.9522  0.0690
15348TIP3   OH267534   5.822   3.581  13.180 -0.0738  0.3415 -0.7158
15348TIP3    H167535   5.831   3.486  13.177  1.8243  0.4812 -0.1255
15348TIP3    H267536   5.758   3.597  13.249 -0.7321 -0.5201 -1.1277
15349TIP3   OH267537   5.346   1.944   0.028  0.4527 -0.1246  0.4026
15349TIP3    H167538   5.305   1.909   0.108 -2.0951 -0.3677 -0.9618
15349TIP3    H267539   5.309   2.031   0.018  1.0698  0.0597 -0.3150
15350TIP3   OH267540   2.522   4.813  16.621 -0.4624 -0.5422 -0.0178
15350TIP3    H167541   2.521   4.768  16.537  2.5636  0.3103 -0.5992
15350TIP3    H267542   2.530   4.906  16.599  0.3810 -0.3092  1.1884
15351TIP3   OH267543   1.647   2.854  14.898 -0.5621 -0.0339 -0.5576
15351TIP3    H167544   1.653   2.864  14.993  1.6764  0.2778 -0.6991
15351TIP3    H267545   1.595   2.929  14.869  2.9067  2.7087 -0.0317
15352TIP3   OH267546   4.388   6.646   2.080  0.0513 -0.1393  0.4285
15352TIP3    H167547   4.328   6.720   2.085  0.5192  0.2366  0.5409
15352TIP3    H267548   4.434   6.657   1.997 -1.1778 -1.3172 -0.4145
15353TIP3   OH267549   1.541   5.950   1.651 -0.2711  0.3502 -0.1326
15353TIP3    H167550   1.572   6.007   1.581  1.1079  0.5959  0.6498
15353TIP3    H267551   1.446   5.950   1.642 -0.0516 -1.7441 -3.6971
15354TIP3   OH267552   1.206   0.266  12.131 -0.2640  0.2237  0.3613
15354TIP3    H167553   1.284   0.299  12.177  0.0167  0.1376 -0.0488
15354TIP3    H267554   1.133   0.294  12.185  0.1074 -0.5718  1.2964
15355TIP3   OH267555   6.388   6.582   3.876  0.3208 -0.3565  0.1004
15355TIP3    H167556   6.408   6.675   3.872  0.5128 -0.4073 -0.1226
15355TIP3    H267557   6.394   6.551   3.785 -0.4982 -0.4317  0.0634
15356TIP3   OH267558   5.777   1.561  11.591  0.1065 -0.4509 -0.0629
15356TIP3    H167559   5.833   1.601  11.525  0.5597 -0.7538  0.1263
15356TIP3    H267560   5.769   1.470  11.563  0.0380 -0.5028  0.1253
15357TIP3   OH267561   5.948   2.830  13.494  1.0270  0.3556 -0.3099
15357TIP3    H167562   6.021   2.768  13.501 -0.6431 -1.9446 -2.5186
15357TIP3    H267563   5.923   2.847  13.585  1.0008 -2.8790  0.3480
15358TIP3   OH267564   4.494   5.496   5.375 -0.0427 -0.2891  0.1361
15358TIP3    H167565   4.405   5.462   5.370 -0.7297  0.8859  3.2129
15358TIP3    H267566   4.484   5.585   5.410  2.4315 -0.8013  2.3071
15359TIP3   OH267567   2.265   6.548  14.317  0.1348 -0.2918  0.3899
15359TIP3    H167568   2.326   6.528  14.246  0.6318  0.0981  0.7037
15359TIP3    H267569   2.180   6.517  14.285  0.2946  0.1835 -0.5158
15360TIP3   OH267570   1.037   0.044   6.346  0.4173  0.1259  0.0527
15360TIP3    H167571   1.050   0.028   6.440  1.4123  1.0216  0.0901
15360TIP3    H267572   1.109   0.104   6.323  0.0882  0.0249 -1.2458
15361TIP3   OH267573   1.818   5.918  17.097 -0.3184 -0.4844  0.0413
15361TIP3    H167574   1.879   5.923  17.171 -0.0545  0.6964 -0.2472
15361TIP3    H267575   1.741   5.966  17.127 -0.0176  0.4287 -0.6240
15362TIP3   OH267576   6.618   5.449   1.511 -0.0125 -0.2801 -0.3504
15362TIP3    H167577   6.539   5.404   1.481 -0.2847  0.1223 -0.2512
15362TIP3    H267578   6.585   5.519   1.568  0.3945  0.0985 -0.5757
15363TIP3   OH267579   2.692   2.285   4.131 -0.3712 -0.7555  0.4540
15363TIP3    H167580   2.758   2.335   4.083 -0.9357 -0.0456  0.4078
15363TIP3    H267581   2.742   2.221   4.182  0.2922 -0.9206 -0.3829
15364TIP3   OH267582   6.301   0.275  11.002  0.3526  0.0265  0.0603
15364TIP3    H167583   6.396   0.286  10.989  0.3649 -0.1626 -0.0165
15364TIP3    H267584   6.278   0.342  11.066  0.5297  0.1099  0.0374
15365TIP3   OH267585   3.803   1.257   5.500 -0.0418 -0.4174  0.2609
15365TIP3    H167586   3.882   1.212   5.469  0.1685 -0.1656  0.4220
15365TIP3    H267587   3.824   1.350   5.492 -0.5215 -0.3470 -0.1929
15366TIP3   OH267588   5.097   5.788   2.687  0.1448  0.4565 -0.6533
15366TIP3    H167589   5.060   5.701   2.672 -1.5730  0.8989  0.8745
15366TIP3    H267590   5.058   5.843   2.619 -0.0190  0.3663 -0.6327
15367TIP3   OH267591   1.250   6.258  15.270 -0.0551 -0.1327 -0.7105
15367TIP3    H167592   1.191   6.304  15.330 -0.5821 -0.3332 -1.0817
15367TIP3    H267593   1.297   6.196  15.326  0.0306  0.2424 -0.3622
15368TIP3   OH267594   4.880   6.222   4.799 -0.0957  0.5725  0.1316
15368TIP3    H167595   4.815   6.279   4.757  0.1352  0.1516 -0.7901
15368TIP3    H267596   4.935   6.191   4.728 -0.3573 -1.0103  0.5950
15369TIP3   OH267597   0.711   6.721   6.828 -0.2733 -0.2336 -0.6084
15369TIP3    H167598   0.617   6.716   6.846 -0.2808  0.4334 -0.4446
15369TIP3    H267599   0.751   6.674   6.901 -0.4722 -0.3852 -0.5952
15370TIP3   OH267600   1.976   6.508  14.593  0.4171 -0.0444  0.2436
15370TIP3    H167601   1.883   6.493  14.607  0.4132  0.6219  0.9209
15370TIP3    H267602   2.001   6.572  14.660  1.0807  0.7381 -0.7319
15371TIP3   OH267603   4.708   5.762  15.701  0.2769  0.0870  0.7560
15371TIP3    H167604   4.628   5.710  15.708 -0.0694  0.6211  0.7441
15371TIP3    H267605   4.691   5.840  15.754  0.9642 -0.0142  1.1274
15372TIP3   OH267606   4.843   5.909   5.000 -0.2907 -0.1088 -0.3312
15372TIP3    H167607   4.761   5.867   4.975  0.2304 -0.5709 -1.2900
15372TIP3    H267608   4.845   5.902   5.096 -3.0554  3.0462  0.0761
15373TIP3   OH267609   1.338   5.257  13.229 -0.3377 -0.6585 -0.3878
15373TIP3    H167610   1.381   5.176  13.256  0.4689 -0.0595  0.1338
15373TIP3    H267611   1.300   5.237  13.144 -2.0235 -2.2634  0.7113
15374TIP3   OH267612   5.815   1.443   1.632  0.1124 -0.1226  0.1698
15374TIP3    H167613   5.779   1.518   1.678 -0.6529 -0.4495  0.1101
15374TIP3    H267614   5.854   1.480   1.552 -1.2857  0.0764 -0.4285
15375TIP3   OH267615   5.643   5.563  10.614 -0.6491 -0.0893  0.4411
15375TIP3    H167616   5.685   5.624  10.675  0.2645  0.0624 -0.3157
15375TIP3    H267617   5.671   5.477  10.644 -1.7376 -0.1298  1.3634
15376TIP3   OH267618   6.116   4.913  15.543 -0.7228  1.1598 -0.5979
15376TIP3    H167619   6.110   4.827  15.584 -2.0908  1.0659 -0.9482
15376TIP3    H267620   6.124   4.974  15.617 -0.2511  0.7629 -0.3253
15377TIP3   OH267621   5.486   1.600   5.616 -0.4309 -0.0260 -0.4555
15377TIP3    H167622   5.403   1.640   5.590  0.2079  1.3437 -0.4409
15377TIP3    H267623   5.504   1.637   5.702  0.3915  0.0024 -0.6406
15378TIP3   OH267624   6.301   3.486   1.861 -0.5980 -0.4883 -0.0135
15378TIP3    H167625   6.382   3.455   1.821 -1.1681 -0.8092 -0.9320
15378TIP3    H267626   6.246   3.514   1.788  0.2068  3.5935  0.7878
15379TIP3   OH267627   6.181   2.808  12.943 -0.3428 -0.0455  0.1073
15379TIP3    H167628   6.211   2.780  12.856  2.0558  0.3466  0.7565
15379TIP3    H267629   6.135   2.732  12.979 -1.6635 -0.0964 -1.6153
15380TIP3   OH267630   6.223   2.975   3.380 -0.0225 -0.4548 -0.0137
15380TIP3    H167631   6.285   2.912   3.341  0.4326 -1.0087  1.5823
15380TIP3    H267632   6.275   3.055   3.391  0.5795 -1.0718  1.7944
15381TIP3   OH267633   5.238   0.136   0.452 -0.0993 -0.0340  0.9454
15381TIP3    H167634   5.307   0.150   0.387 -1.7359  0.9357 -0.6180
15381TIP3    H267635   5.250   0.208   0.514 -0.3412  0.7346  0.1091
15382TIP3   OH267636   2.223   1.507   5.208  0.1183  0.2040 -0.2670
15382TIP3    H167637   2.251   1.598   5.199  0.7173  0.0386 -0.0749
15382TIP3    H267638   2.203   1.480   5.118 -0.6496  0.7096 -0.2567
15383TIP3   OH267639   0.276   6.026   0.166 -0.7955  0.0107 -0.3156
15383TIP3    H167640   0.319   5.992   0.245 -0.5960  2.1575  0.5229
15383TIP3    H267641   0.330   5.992   0.094  0.8378  0.5679  0.6094
15384TIP3   OH267642   2.645   2.042  14.418 -0.0976  0.3226  0.1646
15384TIP3    H167643   2.631   1.954  14.454 -0.3044  0.4276  0.3442
15384TIP3    H267644   2.564   2.061  14.370  0.1764  0.1848 -0.3525
15385TIP3   OH267645   3.664   6.243  15.960  0.5984 -0.0116  0.2931
15385TIP3    H167646   3.611   6.224  15.883  2.3169 -0.1793 -0.8617
15385TIP3    H267647   3.632   6.182  16.027 -1.7931  1.0241  0.1500
15386TIP3   OH267648   1.043   4.100   3.980  0.1399 -0.0479 -0.5776
15386TIP3    H167649   0.953   4.080   4.005  0.3871 -0.9869 -0.4129
15386TIP3    H267650   1.095   4.080   4.058  0.4713  0.6165 -0.6273
15387TIP3   OH267651   1.209   3.869   5.771  0.3692 -0.0449 -0.0559
15387TIP3    H167652   1.174   3.912   5.849 -1.5253 -0.1677 -0.8276
15387TIP3    H267653   1.236   3.941   5.714  0.2589  0.0683  0.0338
15388TIP3   OH267654   1.642   5.692   4.181 -0.0646 -0.1494 -0.3266
15388TIP3    H167655   1.613   5.722   4.095  0.0298  0.9690  0.0197
15388TIP3    H267656   1.708   5.625   4.163  2.5697  2.5628 -1.1845
15389TIP3   OH267657   1.256   3.031   0.919 -0.1987  0.4548  0.4449
15389TIP3    H167658   1.225   2.946   0.888  0.7941  0.2728 -0.0828
15389TIP3    H267659   1.299   3.012   1.003 -1.0358  0.6281  0.9221
15390TIP3   OH267660   1.410   1.434  13.559 -0.2466 -0.0462 -0.4433
15390TIP3    H167661   1.458   1.485  13.492 -0.9373  0.3848 -0.6154
15390TIP3    H267662   1.318   1.455  13.543 -0.2946  1.8897  2.1161
15391TIP3   OH267663   4.554   0.025  17.068  0.0697  0.4037  0.3579
15391TIP3    H167664   4.460   0.011  17.076 -0.2234  1.9147 -0.2307
15391TIP3    H267665   4.583  -0.039  17.004 -0.5608 -0.0859  0.5629
15392TIP3   OH267666   1.085   3.142   3.357 -0.4252 -0.0747  0.2506
15392TIP3    H167667   1.099   3.187   3.440  0.0896 -0.2095  0.2385
15392TIP3    H267668   1.113   3.204   3.290 -0.0784 -0.2634  0.2166
15393TIP3   OH267669   6.051   1.809   1.481 -0.3914  0.0884  0.4210
15393TIP3    H167670   6.095   1.784   1.400 -1.1830 -1.4552  0.4554
15393TIP3    H267671   6.103   1.882   1.515  0.1443  0.5303 -1.2912
15394TIP3   OH267672   5.664   4.181  15.925 -0.2152  0.3894  0.2208
15394TIP3    H167673   5.669   4.129  16.006 -2.5832  0.3086  0.3596
15394TIP3    H267674   5.660   4.115  15.856  0.9903  0.4551  0.0730
15395TIP3   OH267675   4.660   0.735  16.669 -0.0124 -0.0601 -0.2719
15395TIP3    H167676   4.679   0.823  16.700  0.0568 -0.0930 -0.2190
15395TIP3    H267677   4.630   0.688  16.748  0.8197 -0.3335 -0.1111
15396TIP3   OH267678   3.600   2.100  13.291 -0.8965  0.4955 -0.5460
15396TIP3    H167679   3.529   2.164  13.279 -0.8219  0.6009 -0.4248
15396TIP3    H267680   3.574   2.050  13.369  0.1808  1.8945  0.7240
15397TIP3   OH267681   4.955   5.905   3.868 -0.4272 -0.6527  0.2105
15397TIP3    H167682   5.007   5.923   3.790 -1.1746 -0.1907 -0.1894
15397TIP3    H267683   4.875   5.865   3.834  0.4260 -3.0714  0.9550
15398TIP3   OH267684   2.359   2.773   1.554  0.0246  0.2430 -0.0033
15398TIP3    H167685   2.373   2.680   1.568 -0.3681 -0.1961 -2.3166
15398TIP3    H267686   2.295   2.798   1.622  1.4180 -0.7567  1.7195
15399TIP3   OH267687   3.878   4.968   2.132 -0.1934  0.3249 -0.3422
15399TIP3    H167688   3.826   4.939   2.057  0.1566 -0.9450 -0.1188
15399TIP3    H267689   3.969   4.953   2.106 -0.0668 -0.1042  0.3029
15400TIP3   OH267690   4.250   5.040  15.361 -0.4163 -0.2267  0.0092
15400TIP3    H167691   4.258   5.127  15.398  0.2400  0.3820 -1.4906
15400TIP3    H267692   4.165   5.040  15.317 -0.0794 -0.0693 -0.6506
15401TIP3   OH267693   6.331   0.034   5.617  0.4960  0.7438 -0.0332
15401TIP3    H167694   6.398   0.102   5.617 -1.6405  2.9502  1.8838
15401TIP3    H267695   6.354  -0.022   5.691  1.8254 -0.2101 -1.1463
15402TIP3   OH267696   4.819   1.059   6.782 -0.3549  0.6585 -0.2696
15402TIP3    H167697   4.912   1.080   6.773  0.0830 -0.4486  1.4646
15402TIP3    H267698   4.814   1.005   6.861 -2.7785  2.8215  1.1336
15403TIP3   OH267699   3.910   2.733  13.955 -0.0724  0.5150  0.3026
15403TIP3    H167700   3.830   2.717  14.005 -0.3612  0.6742 -0.1121
15403TIP3    H267701   3.980   2.730  14.021 -0.6867  3.3143  1.1885
15404TIP3   OH267702   4.796   3.024  12.953  0.3907  0.6021  0.1257
15404TIP3    H167703   4.880   2.979  12.939  1.0785  1.6289  0.9687
15404TIP3    H267704   4.792   3.041  13.047 -1.1803 -0.2263  0.2392
15405TIP3   OH267705   3.718   2.588  14.103 -0.0076  0.3321  0.1415
15405TIP3    H167706   3.651   2.587  14.171 -1.0117  1.0043 -0.8229
15405TIP3    H267707   3.722   2.498  14.072 -0.6114  0.3261  0.0703
15406TIP3   OH267708   5.441   4.030   2.743 -0.0478 -0.0884 -0.4173
15406TIP3    H167709   5.366   3.988   2.702  0.8566 -0.0211 -2.2046
15406TIP3    H267710   5.461   3.975   2.819 -2.6177  0.5758  0.7674
15407TIP3   OH267711   1.296   5.637   1.613 -0.3618  0.4468  0.0730
15407TIP3    H167712   1.242   5.591   1.549 -0.4318  0.2074  0.3032
15407TIP3    H267713   1.386   5.611   1.591 -0.3176  1.0773 -0.4927
15408TIP3   OH267714   6.538   6.403   2.994 -0.0344  0.7178 -0.0484
15408TIP3    H167715   6.534   6.348   3.072  1.0381  1.4430  0.5122
15408TIP3    H267716   6.459   6.378   2.944  0.0988 -0.8693  0.4960
15409TIP3   OH267717   4.336   6.664   2.896  0.3689  0.4447 -0.0751
15409TIP3    H167718   4.351   6.626   2.810  0.8238 -1.4495  0.8100
15409TIP3    H267719   4.365   6.755   2.888 -1.4446  0.8500 -2.4536
15410TIP3   OH267720   4.845   2.763  14.910  0.5095  0.1875  0.1400
15410TIP3    H167721   4.894   2.775  14.829  0.0509 -1.1704 -0.3563
15410TIP3    H267722   4.903   2.712  14.967  0.5935  0.6154  0.4421
15411TIP3   OH267723   1.484   3.816  11.343  0.0076  0.4352  0.1806
15411TIP3    H167724   1.505   3.874  11.416  0.2872  0.1578  0.3239
15411TIP3    H267725   1.390   3.800  11.351 -0.1416  1.1759 -0.0892
15412TIP3   OH267726   0.822   2.606  15.269 -0.5339 -0.2100 -0.5278
15412TIP3    H167727   0.788   2.582  15.355  0.1802 -1.8068 -0.6692
15412TIP3    H267728   0.901   2.552  15.259 -0.2025  0.5070 -1.8689
15413TIP3   OH267729   0.375   3.116  13.091  0.3423  0.0530  0.5881
15413TIP3    H167730   0.393   3.054  13.020 -1.0711 -0.6857  0.8549
15413TIP3    H267731   0.440   3.185  13.080  0.2031 -0.1072 -1.3731
15414TIP3   OH267732   3.767   5.965  11.822  0.2309 -0.1312 -0.3099
15414TIP3    H167733   3.802   5.975  11.733  0.1541  2.1333 -0.1266
15414TIP3    H267734   3.755   5.871  11.833  1.1188 -0.5152 -2.3614
15415TIP3   OH267735   1.887   6.789   4.601 -0.4361 -0.4842  0.4292
15415TIP3    H167736   1.949   6.857   4.628 -0.7725 -0.1533  0.3802
15415TIP3    H267737   1.882   6.730   4.676 -0.8105  0.0313  0.8212
15416TIP3   OH267738   1.450   5.191   3.314  0.4828 -0.0090 -0.4732
15416TIP3    H167739   1.476   5.180   3.406 -0.0658  1.2801 -0.1614
15416TIP3    H267740   1.355   5.179   3.314  0.4890 -0.0569 -0.8856
15417TIP3   OH267741   1.885   5.222   2.487  0.3159  0.6892 -0.2666
15417TIP3    H167742   1.869   5.213   2.393 -0.5638 -1.5439  0.0493
15417TIP3    H267743   1.961   5.165   2.503 -0.3696  0.0015  0.5709
15418TIP3   OH267744   1.018   5.266   0.729  0.5023  0.1439  0.0193
15418TIP3    H167745   0.940   5.258   0.674  1.4968  0.8675 -1.4888
15418TIP3    H267746   0.988   5.236   0.815 -1.2694 -0.2257 -0.6951
15419TIP3   OH267747   3.535   5.288   2.760  0.1865 -0.0401 -0.1186
15419TIP3    H167748   3.471   5.218   2.776 -0.2693  0.6043  0.8781
15419TIP3    H267749   3.587   5.292   2.840  0.2643  0.7207 -0.2060
15420TIP3   OH267750   0.740   4.477  13.853 -0.0110  0.5971  0.0077
15420TIP3    H167751   0.771   4.478  13.763 -0.4176  0.5117 -0.1363
15420TIP3    H267752   0.732   4.570  13.876 -1.1614  0.6413 -0.4927
15421TIP3   OH267753   5.562   6.224  14.207  0.2592  0.2299 -0.4877
15421TIP3    H167754   5.620   6.232  14.132  1.0883  0.4782  0.1653
15421TIP3    H267755   5.526   6.312  14.219 -0.0407  0.1386 -0.7343
15422TIP3   OH267756   5.998   6.358   4.090 -0.3826 -0.4517 -0.5070
15422TIP3    H167757   5.945   6.363   4.010  0.4273 -0.1463 -1.0319
15422TIP3    H267758   6.066   6.293   4.071 -0.4711 -0.7269  0.1041
15423TIP3   OH267759   2.559   0.452   4.612  0.0973 -0.6063  0.1763
15423TIP3    H167760   2.639   0.472   4.565  0.5796 -1.5434  0.5666
15423TIP3    H267761   2.560   0.511   4.688 -0.6186  0.8110 -0.9052
15424TIP3   OH267762   4.523   6.313  14.495 -0.3527  0.2109 -0.0200
15424TIP3    H167763   4.436   6.343  14.467 -0.3023  2.0304  1.6680
15424TIP3    H267764   4.506   6.262  14.575  0.2309  1.8876  1.2138
15425TIP3   OH267765   1.990   0.998   5.647  0.4554 -0.2600  0.1317
15425TIP3    H167766   2.007   1.038   5.562  3.0591  0.6090  1.0177
15425TIP3    H267767   1.917   1.048   5.683  2.1873  2.2567  0.2549
15426TIP3   OH267768   2.077   1.218   6.429 -0.5721  0.4411 -0.2473
15426TIP3    H167769   2.155   1.242   6.480 -0.7580 -1.1951  0.8733
15426TIP3    H267770   2.029   1.299   6.419 -0.1971  0.9389  1.6625
15427TIP3   OH267771   4.912   1.404  13.704  0.1365 -0.5026  0.8823
15427TIP3    H167772   4.856   1.334  13.670  0.0862  0.2868 -0.7175
15427TIP3    H267773   4.977   1.360  13.758 -0.6989 -1.6515  0.9493
15428TIP3   OH267774   5.151   3.259   5.887  0.1742  0.1419 -0.6060
15428TIP3    H167775   5.111   3.324   5.944  0.6195 -0.4593  0.4078
15428TIP3    H267776   5.135   3.291   5.798 -0.2430  1.2482 -0.1344
15429TIP3   OH267777   2.947   3.951   1.551 -0.0850 -0.5395  0.4487
15429TIP3    H167778   2.874   3.969   1.492  0.5804  1.3762  0.1736
15429TIP3    H267779   2.910   3.894   1.619 -1.6871 -0.0194  0.0251
15430TIP3   OH267780   6.378   4.070   1.505  0.0936 -0.0751  0.3997
15430TIP3    H167781   6.404   4.161   1.519  0.1526  0.0256 -0.3574
15430TIP3    H267782   6.293   4.062   1.549 -0.6952  0.7883 -0.9548
15431TIP3   OH267783   2.312   3.752  11.758 -0.0941 -0.0576 -0.3987
15431TIP3    H167784   2.349   3.839  11.747 -0.7371 -0.0776 -2.9743
15431TIP3    H267785   2.219   3.767  11.775 -0.1637 -0.2305 -0.6245
15432TIP3   OH267786   4.715   3.324  13.097  0.2238  0.3497  0.2811
15432TIP3    H167787   4.780   3.316  13.027 -0.3970  1.4595 -0.4401
15432TIP3    H267788   4.736   3.254  13.158  1.7811  0.3751 -0.2151
15433TIP3   OH267789   4.150   6.345   1.242  0.0974 -0.1539 -0.3238
15433TIP3    H167790   4.149   6.297   1.158  3.1275 -0.2887 -0.3406
15433TIP3    H267791   4.146   6.437   1.217 -1.6235 -0.2729 -0.4919
15434TIP3   OH267792   3.225   5.447  12.377 -0.2503 -0.6450 -0.0473
15434TIP3    H167793   3.239   5.361  12.415  1.3247 -0.0166  0.8353
15434TIP3    H267794   3.312   5.477  12.352 -0.5971  1.3006  0.9864
15435TIP3   OH267795   1.608   2.993   6.052  0.1450 -0.3002 -0.6828
15435TIP3    H167796   1.612   2.922   6.116  0.1736  1.6316  1.4995
15435TIP3    H267797   1.514   3.005   6.036  0.1071 -0.2515 -0.4163
15436TIP3   OH267798   0.498   2.846  14.276  0.0475 -0.2566  0.0640
15436TIP3    H167799   0.564   2.915  14.261  0.3850 -0.6029 -0.0449
15436TIP3    H267800   0.471   2.820  14.188 -0.0473 -0.2984  0.1055
15437TIP3   OH267801   1.136   0.383   0.014  0.7828 -0.2282 -0.1386
15437TIP3    H167802   1.170   0.304   0.056 -0.2925 -1.0435 -0.7996
15437TIP3    H267803   1.211   0.420  -0.033  1.3650 -0.6620  0.4419
15438TIP3   OH267804   4.856   4.475  15.162  0.4825  0.1556  0.4355
15438TIP3    H167805   4.789   4.534  15.128  0.3109 -0.4974 -0.3805
15438TIP3    H267806   4.810   4.392  15.177  1.0217 -0.1878  0.2144
15439TIP3   OH267807   0.125   1.608   5.351 -0.6773 -0.1536  0.2936
15439TIP3    H167808   0.126   1.535   5.289 -0.1928  0.0399  0.0739
15439TIP3    H267809   0.184   1.673   5.313 -2.6088  1.1754 -0.5049
15440TIP3   OH267810   0.477   1.490   0.879  0.3213 -0.3762  0.2942
15440TIP3    H167811   0.443   1.573   0.912 -0.1891 -0.4466 -0.0560
15440TIP3    H267812   0.403   1.449   0.835  0.7438 -0.7252 -0.0994
15441TIP3   OH267813   0.931   4.325   0.750  0.7454 -0.6627  0.2240
15441TIP3    H167814   0.943   4.340   0.656 -0.5910 -0.1614  0.1253
15441TIP3    H267815   0.972   4.401   0.792 -0.6286  0.2408 -0.0469
15442TIP3   OH267816   0.719   0.970   1.355  0.3134 -0.1618  0.3638
15442TIP3    H167817   0.742   1.063   1.351  0.4530 -0.2358 -0.7662
15442TIP3    H267818   0.763   0.938   1.434 -0.0971  0.8195  1.0070
15443TIP3   OH267819   0.306   0.929  15.981  0.3478 -0.3880 -0.5768
15443TIP3    H167820   0.215   0.908  16.003  0.4807 -2.5254 -1.9114
15443TIP3    H267821   0.314   0.907  15.889  1.3250  3.0604 -1.3939
15444TIP3   OH267822   2.523   1.087   1.610  0.8043  0.5207  0.2320
15444TIP3    H167823   2.475   1.036   1.675 -0.5434 -0.9783 -1.8635
15444TIP3    H267824   2.551   1.023   1.545  5.1991  1.4392  1.0422
15445TIP3   OH267825   6.507   4.674  16.135 -0.1887 -0.1003  0.5141
15445TIP3    H167826   6.530   4.646  16.046 -1.1786 -0.6521  0.4352
15445TIP3    H267827   6.584   4.650  16.187 -0.1973 -1.1319  0.0751
15446TIP3   OH267828   0.972   5.164   2.408  0.2386 -0.0021 -0.2457
15446TIP3    H167829   0.904   5.149   2.342 -0.4181  0.9893  0.1853
15446TIP3    H267830   1.049   5.119   2.374 -0.6483 -1.1784 -0.7192
15447TIP3   OH267831   4.751   4.752   5.821 -0.4006  0.2870 -0.3990
15447TIP3    H167832   4.658   4.769   5.834 -0.0155 -0.1479  3.4889
15447TIP3    H267833   4.787   4.835   5.789 -1.2416  2.2350  3.3733
15448TIP3   OH267834   0.430   4.276  11.098 -0.0086  0.7678 -0.3460
15448TIP3    H167835   0.524   4.290  11.097 -0.1541  1.9532  1.1374
15448TIP3    H267836   0.420   4.183  11.117  0.8519  0.8928  0.7593
15449TIP3   OH267837   5.618   4.589  11.888  0.2042 -0.0806  0.3696
15449TIP3    H167838   5.631   4.529  11.961 -0.3059  0.0116  0.5389
15449TIP3    H267839   5.665   4.668  11.912  1.3627 -0.6139 -0.1068
15450TIP3   OH267840   6.066   0.242  13.767  0.0847 -0.5097 -0.2667
15450TIP3    H167841   6.060   0.305  13.839  3.9695  0.8247 -0.9627
15450TIP3    H267842   6.107   0.165  13.805  1.5574 -0.0383 -0.8429
15451TIP3   OH267843   0.782   2.647   6.008  0.1777 -0.4076  0.5646
15451TIP3    H167844   0.780   2.595   6.089  2.0753  1.0913  1.6028
15451TIP3    H267845   0.690   2.665   5.990 -0.5173 -3.6706  0.4554
15452TIP3   OH267846   3.775   4.058  14.697  0.4833  0.4671  0.1279
15452TIP3    H167847   3.737   4.019  14.776 -2.6035  1.0032 -1.0121
15452TIP3    H267848   3.780   3.985  14.635 -0.1487  0.7105 -0.2157
15453TIP3   OH267849   4.301   4.568  15.158 -0.2543  0.2801 -1.1459
15453TIP3    H167850   4.261   4.484  15.138 -0.5927  0.0623  0.4211
15453TIP3    H267851   4.280   4.584  15.250 -0.3927  2.1838 -1.4828
15454TIP3   OH267852   5.766   1.727   5.602  0.0302  0.1178  0.5349
15454TIP3    H167853   5.671   1.724   5.589  0.1496  0.6223 -0.4509
15454TIP3    H267854   5.778   1.795   5.668 -0.1559  1.4096 -0.7374
15455TIP3   OH267855   0.316   5.256  16.346 -0.0852 -0.2343  0.1537
15455TIP3    H167856   0.316   5.348  16.373  1.4213 -0.2190  0.1140
15455TIP3    H267857   0.247   5.251  16.280 -1.6768  0.3827  1.7320
15456TIP3   OH267858   5.781   4.020  11.953  0.1707  0.0552  0.9040
15456TIP3    H167859   5.804   4.082  12.022  0.0290 -0.8838  1.7993
15456TIP3    H267860   5.808   3.935  11.986 -1.4150 -0.6194  0.5067
15457TIP3   OH267861   2.590   6.724   3.261  0.7097 -0.5841 -0.0014
15457TIP3    H167862   2.682   6.731   3.287  0.3790  2.2756  0.6083
15457TIP3    H267863   2.592   6.730   3.165  1.2639 -2.0690 -0.0872
15458TIP3   OH267864   6.471   5.488  11.327  0.0726  0.0713  0.4886
15458TIP3    H167865   6.385   5.453  11.306  0.8606 -0.1905 -2.5584
15458TIP3    H267866   6.454   5.571  11.371 -1.7181 -0.4051  0.7385
15459TIP3   OH267867   3.691   2.688   3.410  0.3347 -0.6120 -0.2931
15459TIP3    H167868   3.756   2.741   3.456 -0.5528  0.4804 -0.2754
15459TIP3    H267869   3.611   2.697   3.462 -0.9529  1.4316 -2.5466
15460TIP3   OH267870   5.344   5.518  16.253 -0.8091  0.1580 -0.1680
15460TIP3    H167871   5.270   5.465  16.283 -0.1577 -1.6215 -1.6139
15460TIP3    H267872   5.416   5.455  16.243  0.5887  1.6801  0.1252
15461TIP3   OH267873   2.770   4.532  11.571  0.0545  0.6005 -0.6161
15461TIP3    H167874   2.781   4.530  11.666  1.0460  0.7123 -0.7184
15461TIP3    H267875   2.677   4.513  11.557 -0.5248  2.5368  0.4491
15462TIP3   OH267876   2.853   1.573   1.839 -0.7982  0.1555  0.4888
15462TIP3    H167877   2.830   1.575   1.746 -2.3044  2.1793  0.8679
15462TIP3    H267878   2.810   1.495   1.872 -3.0492  1.2150  0.1435
15463TIP3   OH267879   3.699   4.929   2.358 -0.5161  0.0543  0.0127
15463TIP3    H167880   3.747   4.920   2.276  0.6720  0.2542  0.6763
15463TIP3    H267881   3.643   5.006   2.345 -0.6443 -0.1675 -0.7545
15464TIP3   OH267882   3.289   4.748  16.809 -0.3320 -0.3080  0.2287
15464TIP3    H167883   3.283   4.785  16.721 -1.0222 -0.3305  0.2644
15464TIP3    H267884   3.317   4.658  16.795  1.3822  0.2187  0.1450
15465TIP3   OH267885   3.502   2.806  14.998 -0.5603 -0.3337 -0.0970
15465TIP3    H167886   3.549   2.723  14.992 -1.0837 -0.5247 -2.1382
15465TIP3    H267887   3.571   2.872  15.003 -0.1312 -0.8286  0.6494
15466TIP3   OH267888   2.433   3.761  13.780  0.4067  1.0041  0.5198
15466TIP3    H167889   2.463   3.692  13.839  0.0900  1.0193  0.6997
15466TIP3    H267890   2.412   3.835  13.837  1.0098  1.3471  0.3033
15467TIP3   OH267891   0.998   5.548   2.976  0.1527 -0.6051 -0.4762
15467TIP3    H167892   1.059   5.488   2.933 -0.0226  0.1132 -1.7633
15467TIP3    H267893   0.920   5.495   2.993  0.2669 -0.9287 -0.9496
15468TIP3   OH267894   3.331   0.276  13.553 -0.9402 -0.4746  0.4634
15468TIP3    H167895   3.353   0.205  13.613  1.8111 -0.2429 -0.1845
15468TIP3    H267896   3.381   0.351  13.587  2.2805 -0.8415 -3.1476
15469TIP3   OH267897   1.549   2.352   0.641  0.1348 -0.0098 -0.7646
15469TIP3    H167898   1.579   2.266   0.613  0.7141 -0.1337  0.2257
15469TIP3    H267899   1.613   2.380   0.707 -1.6222 -0.0573  1.0150
15470TIP3   OH267900   5.291   1.583  14.655  0.1196 -0.3336  0.0886
15470TIP3    H167901   5.233   1.604  14.728  2.2740  1.0095  1.4515
15470TIP3    H267902   5.256   1.501  14.620 -1.7647 -0.2807  1.7588
15471TIP3   OH267903   0.287   2.620   1.610 -0.0830 -0.6050 -0.5588
15471TIP3    H167904   0.368   2.630   1.660  1.1089 -1.3414 -2.2871
15471TIP3    H267905   0.229   2.572   1.668  0.7865 -0.2328  0.6328
15472TIP3   OH267906   1.420   6.248   1.734  0.1734  0.3653  0.5903
15472TIP3    H167907   1.354   6.267   1.801  2.6412  0.7571  2.9995
15472TIP3    H267908   1.462   6.168   1.764  0.2425 -0.3553 -1.3699
15473TIP3   OH267909   6.565   2.254   2.958 -0.3378 -0.0248  0.1848
15473TIP3    H167910   6.515   2.309   3.019  0.8509  0.4365  0.7671
15473TIP3    H267911   6.595   2.180   3.011  1.1303  0.6383  0.2901
15474TIP3   OH267912   5.872   5.715  16.708  0.5893  0.6022  0.1204
15474TIP3    H167913   5.811   5.707  16.634  0.5304 -0.7540  0.3022
15474TIP3    H267914   5.902   5.626  16.724  0.1032  0.7705  2.1643
15475TIP3   OH267915   3.107   1.534  16.843  0.3843 -0.0297  0.0310
15475TIP3    H167916   3.057   1.465  16.798  2.3148 -1.5034  0.0992
15475TIP3    H267917   3.040   1.594  16.877 -1.3106 -1.7169 -0.2673
15476TIP3   OH267918   5.152   0.771  13.833 -0.2032 -0.4015 -0.5788
15476TIP3    H167919   5.191   0.806  13.753 -1.3265  0.8867 -0.5732
15476TIP3    H267920   5.060   0.796  13.829 -0.3076 -0.4347  1.0402
15477TIP3   OH267921   5.068   5.527  16.954 -0.0182  0.9640  0.3277
15477TIP3    H167922   5.148   5.477  16.944 -1.7093 -1.6054 -0.9927
15477TIP3    H267923   5.072   5.595  16.886  0.8543  0.6147  0.0322
15478TIP3   OH267924   2.417   6.246   2.807 -0.3217 -0.0528  0.1055
15478TIP3    H167925   2.412   6.298   2.887  0.5116  2.2986 -1.3241
15478TIP3    H267926   2.450   6.161   2.835  1.5528  1.2901  2.0341
15479TIP3   OH267927   2.869   4.879   1.737 -0.5965  0.3021 -0.1549
15479TIP3    H167928   2.952   4.906   1.775 -1.0425 -0.9244  1.7624
15479TIP3    H267929   2.826   4.961   1.714  1.1778  0.9388 -1.2933
15480TIP3   OH267930   0.095   6.376  12.571 -0.1363 -0.1824 -0.0588
15480TIP3    H167931   0.155   6.430  12.519 -0.2636 -1.8870 -2.0620
15480TIP3    H267932   0.013   6.377  12.522 -0.2888 -1.7774  0.1196
15481TIP3   OH267933   6.236   4.529  13.294 -0.1684  0.3941  0.2093
15481TIP3    H167934   6.234   4.476  13.374 -1.1211 -2.2509 -1.5133
15481TIP3    H267935   6.300   4.486  13.238 -0.4659  1.4726 -0.9826
15482TIP3   OH267936   4.578   1.397  14.768  0.3581 -0.0700 -0.1768
15482TIP3    H167937   4.483   1.395  14.759  0.2025 -1.8418  1.4641
15482TIP3    H267938   4.600   1.311  14.804  2.3977  1.0111  1.2599
15483TIP3   OH267939   3.763   4.416  15.534  0.1099  0.2036  0.2653
15483TIP3    H167940   3.808   4.391  15.615 -2.0541 -3.3519  0.4853
15483TIP3    H267941   3.816   4.377  15.464  0.4403  0.8554  0.1514
15484TIP3   OH267942   5.084   3.905  16.870  0.2945 -0.0328 -0.0654
15484TIP3    H167943   5.036   3.916  16.952  2.4477 -3.7590  1.8543
15484TIP3    H267944   5.017   3.905  16.802 -1.6930  1.6265  1.8257
15485TIP3   OH267945   3.754   2.620  16.751 -0.2207  0.2863 -0.0332
15485TIP3    H167946   3.725   2.530  16.734  1.7537 -0.6526  1.3374
15485TIP3    H267947   3.717   2.671  16.678 -2.1835 -1.4391 -0.2950
15486TIP3   OH267948   2.913   3.457   5.390 -0.8613  0.0434  0.0760
15486TIP3    H167949   2.978   3.403   5.345 -2.9183 -1.4394 -1.2435
15486TIP3    H267950   2.959   3.538   5.412  1.1401 -0.5647 -1.7410
15487TIP3   OH267951   1.422   3.469   2.021 -0.0186 -0.4308  0.2100
15487TIP3    H167952   1.410   3.419   2.101 -1.2985  0.7437  0.7803
15487TIP3    H267953   1.334   3.500   1.999  0.5553  0.5369 -0.7894
15488TIP3   OH267954   3.350   0.334  16.143  0.0407  0.6761 -0.5010
15488TIP3    H167955   3.417   0.337  16.075 -0.2595  0.3661 -0.8106
15488TIP3    H267956   3.397   0.359  16.223  0.5733  0.2644 -0.6777
15489TIP3   OH267957   1.337   5.751  14.622 -0.6765 -0.1241  0.4343
15489TIP3    H167958   1.296   5.674  14.584  1.9053 -0.9306 -0.8355
15489TIP3    H267959   1.334   5.817  14.553 -0.3243 -0.0204  0.5156
15490TIP3   OH267960   3.753   1.972  16.998 -0.2024  0.2786  0.2433
15490TIP3    H167961   3.848   1.988  16.999 -0.5594  2.6074 -0.3580
15490TIP3    H267962   3.737   1.924  17.079  1.1650  2.0888  1.6489
15491TIP3   OH267963   6.258   1.778   2.613  0.3035  0.4502  0.6588
15491TIP3    H167964   6.296   1.702   2.570  0.6830  0.3402  1.1910
15491TIP3    H267965   6.317   1.797   2.685  1.1401  2.2913 -0.4814
15492TIP3   OH267966   3.058   4.243   1.381  0.4765  0.1586  0.4037
15492TIP3    H167967   3.128   4.235   1.445  1.7816 -1.4247 -1.1578
15492TIP3    H267968   2.994   4.176   1.406  1.2621 -0.8604 -0.2327
15493TIP3   OH267969   5.903   3.998   1.962 -0.1865  0.0713 -0.4586
15493TIP3    H167970   5.970   4.060   1.991 -0.3488  0.1093 -0.1705
15493TIP3    H267971   5.950   3.916   1.949 -0.3012 -0.2220  0.9234
15494TIP3   OH267972   5.582   2.678  12.294  0.9303 -0.4178  0.0497
15494TIP3    H167973   5.654   2.735  12.322  0.0023  0.6787  0.2062
15494TIP3    H267974   5.595   2.597  12.345  3.2851 -1.0477 -1.5059
15495TIP3   OH267975   5.515   5.540   5.274  0.2540 -0.1557  0.3488
15495TIP3    H167976   5.569   5.539   5.195 -0.0051  1.1479  0.1435
15495TIP3    H267977   5.433   5.581   5.247  0.0845  0.1195  1.2446
15496TIP3   OH267978   4.550   1.990   1.042  0.3029  0.4159 -0.0949
15496TIP3    H167979   4.535   2.064   1.101 -0.1083  0.1568  0.1311
15496TIP3    H267980   4.608   1.932   1.092  0.3144  0.4068 -0.1192
15497TIP3   OH267981   4.062   2.067  16.906 -1.1482 -0.1746  0.3813
15497TIP3    H167982   4.121   2.003  16.947 -1.1855 -1.0417 -0.8944
15497TIP3    H267983   4.019   2.018  16.835 -2.8736  0.6440  0.8393
15498TIP3   OH267984   4.234   6.132   4.077  0.4865 -0.9329 -0.4157
15498TIP3    H167985   4.202   6.220   4.056  0.9621 -0.7157 -0.2215
15498TIP3    H267986   4.155   6.078   4.079  0.2720 -0.6545 -1.2597
15499TIP3   OH267987   5.585   4.937   3.961  0.4430  0.1443 -0.2715
15499TIP3    H167988   5.537   4.854   3.963 -1.2026  1.0341 -1.9249
15499TIP3    H267989   5.603   4.953   3.869  1.7146  1.1091  0.1234
15500TIP3   OH267990   1.229   2.165   6.375  0.5500  0.4983 -0.1032
15500TIP3    H167991   1.185   2.250   6.374  0.6306  0.5307 -1.0843
15500TIP3    H267992   1.310   2.180   6.423  1.4556  1.4197 -1.9014
15501TIP3   OH267993   5.405   3.316  16.748 -0.3654 -0.1296 -0.4369
15501TIP3    H167994   5.496   3.326  16.722  0.4534  0.2826  2.3695
15501TIP3    H267995   5.381   3.400  16.788 -1.3187 -0.8801  0.6356
15502TIP3   OH267996   1.081   3.361  15.132 -0.0397  0.5832  0.0524
15502TIP3    H167997   1.153   3.407  15.174  0.0706  0.4304  0.0294
15502TIP3    H267998   1.046   3.303  15.199 -0.5969  1.1718  0.2824
15503TIP3   OH267999   4.721   5.518   4.817 -0.7944  0.5447  0.2896
15503TIP3    H168000   4.793   5.547   4.873 -0.7736  1.5181 -0.2226
15503TIP3    H268001   4.643   5.556   4.858 -0.9667 -0.0643  0.5415
15504TIP3   OH268002   2.466   4.901   2.731 -0.1866 -0.1172  0.1513
15504TIP3    H168003   2.382   4.937   2.761 -0.1076 -0.5152  0.8714
15504TIP3    H268004   2.532   4.954   2.776 -0.0596 -0.2108  0.0739
15505TIP3   OH268005   5.093   1.798  15.704  0.1921 -0.2176 -0.2020
15505TIP3    H168006   5.172   1.775  15.655 -0.9679 -1.4838 -1.5228
15505TIP3    H268007   5.106   1.759  15.791  1.1800 -0.0866 -0.2855
15506TIP3   OH268008   6.814   0.833   5.485  0.0154 -0.2056 -0.7319
15506TIP3    H168009   6.807   0.895   5.413 -0.4833 -0.7900 -1.1915
15506TIP3    H268010   6.739   0.774   5.473 -0.2665 -0.0978  0.4596
15507TIP3   OH268011   0.254   5.522  16.368 -0.4925  0.7746 -0.1097
15507TIP3    H168012   0.221   5.579  16.438 -0.0518 -0.3266  1.0204
15507TIP3    H268013   0.340   5.558  16.346  0.1848  0.0414  1.2404
15508TIP3   OH268014   0.216   5.431  11.261 -0.8198 -0.2154 -0.0198
15508TIP3    H168015   0.162   5.476  11.196  0.7262  1.1294 -0.3905
15508TIP3    H268016   0.167   5.440  11.342 -1.1374  1.0505 -0.3348
15509TIP3   OH268017   0.370   5.545  15.453  0.0129  0.4661  0.4834
15509TIP3    H168018   0.287   5.573  15.414 -0.4945 -2.6199 -0.7506
15509TIP3    H268019   0.435   5.606  15.415 -1.0476  0.0260 -2.1567
15510TIP3   OH268020   0.557   2.361  15.489 -0.2926 -0.0262 -0.1912
15510TIP3    H168021   0.563   2.427  15.420 -0.2668 -1.0920 -1.2413
15510TIP3    H268022   0.477   2.383  15.536 -0.1826  0.8643 -0.4076
15511TIP3   OH268023   4.827   3.564   3.157  0.2737 -0.3440 -0.0912
15511TIP3    H168024   4.761   3.608   3.212 -0.2821  2.5600 -2.9250
15511TIP3    H268025   4.776   3.524   3.086  1.4952  2.3512 -2.5845
15512TIP3   OH268026   4.327   4.152   0.132 -0.1962 -0.0423  0.0918
15512TIP3    H168027   4.390   4.080   0.133  0.8501  0.8729  0.8580
15512TIP3    H268028   4.301   4.161   0.041  0.1823 -0.9459 -0.1064
15513TIP3   OH268029   1.498   2.456  13.827  0.4176  0.3219 -0.5483
15513TIP3    H168030   1.540   2.402  13.760 -0.9339 -1.7654  0.2774
15513TIP3    H268031   1.406   2.431  13.824  0.5403 -0.7507  2.9599
15514TIP3   OH268032   2.171   0.525   5.069 -0.2673  0.5717  0.1256
15514TIP3    H168033   2.168   0.478   5.152 -0.3300  0.2365 -0.0679
15514TIP3    H268034   2.236   0.479   5.018 -1.2078 -0.0530 -0.5210
15515TIP3   OH268035   0.926   6.568   5.048  0.3933  0.3693 -0.2949
15515TIP3    H168036   0.906   6.639   5.109 -0.6763  0.5258 -0.8203
15515TIP3    H268037   1.021   6.567   5.043  0.3957  2.3138 -0.9336
15516TIP3   OH268038   5.318   2.883   4.771 -0.3996  0.7711  0.1423
15516TIP3    H168039   5.257   2.949   4.804 -0.5152  0.7345  0.0011
15516TIP3    H268040   5.370   2.930   4.705  0.9202  1.2861  1.5026
15517TIP3   OH268041   4.355   0.495  12.583 -0.0215  0.2990 -0.7907
15517TIP3    H168042   4.343   0.417  12.638 -1.4627  0.6090 -0.6361
15517TIP3    H268043   4.349   0.462  12.494  0.1487  0.1141 -0.7351
15518TIP3   OH268044   4.075   5.087  13.420 -0.0439  0.4313 -0.1756
15518TIP3    H168045   4.158   5.072  13.465 -1.2214 -0.9381  1.5795
15518TIP3    H268046   4.088   5.048  13.333  0.7308 -0.9342  0.5291
15519TIP3   OH268047   5.141   6.650   1.031 -0.0554 -0.3491  0.1327
15519TIP3    H168048   5.097   6.662   1.115  1.2057  1.7044  0.5188
15519TIP3    H268049   5.178   6.736   1.010 -1.1515 -0.5834 -2.9901
15520TIP3   OH268050   0.419   5.749  16.260 -0.5253 -0.2643  0.0642
15520TIP3    H168051   0.513   5.762  16.244 -0.2777 -1.9555  0.0569
15520TIP3    H268052   0.385   5.718  16.176 -0.9484 -0.3790  0.2794
15521TIP3   OH268053   3.503   0.682  15.364  0.0638  0.3148  0.0729
15521TIP3    H168054   3.545   0.620  15.422  2.0274  1.3797 -0.1695
15521TIP3    H268055   3.521   0.650  15.276  1.9103  1.7068 -0.0832
15522TIP3   OH268056   1.378   4.733  11.133  0.1958 -0.2599 -0.0530
15522TIP3    H168057   1.333   4.680  11.067  0.3046 -0.3436 -0.0589
15522TIP3    H268058   1.466   4.746  11.099  0.2724 -0.3574  0.1047
15523TIP3   OH268059   3.571   1.264  11.715 -0.9700 -0.1483  0.3253
15523TIP3    H168060   3.569   1.330  11.646  1.6184  0.0272  0.3903
15523TIP3    H268061   3.536   1.308  11.793  0.1344  0.9436  0.1998
15524TIP3   OH268062   5.990   3.487  16.454 -0.3213  0.5977  0.3128
15524TIP3    H168063   5.940   3.538  16.390  0.9798 -0.4835 -1.6041
15524TIP3    H268064   5.972   3.396  16.432 -0.2670  0.2052  1.8289
15525TIP3   OH268065   2.530   5.872  11.374 -0.1722  0.3817 -0.2265
15525TIP3    H168066   2.613   5.826  11.364 -0.0930  0.4725  0.0112
15525TIP3    H268067   2.514   5.911  11.288 -0.0038  0.3086 -0.2917
15526TIP3   OH268068   6.037   1.780  12.780 -0.2421  0.3013 -0.4276
15526TIP3    H168069   5.950   1.748  12.757  0.6405 -0.7509 -2.3853
15526TIP3    H268070   6.085   1.702  12.808  0.6117  0.5897 -1.0675
15527TIP3   OH268071   1.411   3.029  14.706  0.0069  0.1895 -0.2531
15527TIP3    H168072   1.344   3.000  14.644  0.2386  0.1921 -0.5075
15527TIP3    H268073   1.362   3.064  14.780 -0.2794 -0.7188 -0.0037
15528TIP3   OH268074   1.077   5.157  11.513  0.7306  0.3182  0.3979
15528TIP3    H168075   1.040   5.242  11.492  1.0863  0.5377  0.6603
15528TIP3    H268076   1.002   5.097  11.510  0.5899  0.5317 -0.3834
15529TIP3   OH268077   2.038   1.510  12.981  0.7268 -0.2365 -0.2141
15529TIP3    H168078   2.103   1.519  12.911  1.9654  0.1681  0.9659
15529TIP3    H268079   1.957   1.489  12.936  2.1780 -3.1369 -1.5634
15530TIP3   OH268080   0.500   5.471  14.666 -0.0548 -0.6005 -0.0533
15530TIP3    H168081   0.506   5.565  14.682  0.1889 -0.2094 -2.3997
15530TIP3    H268082   0.590   5.439  14.675 -0.3452 -0.8890  2.2151
15531TIP3   OH268083   4.942   1.450  13.183 -0.3102 -0.0887  0.3320
15531TIP3    H168084   4.950   1.545  13.192 -0.2056 -0.0663 -0.0249
15531TIP3    H268085   4.851   1.431  13.206 -0.4501  0.1454 -0.0290
15532TIP3   OH268086   2.927   1.167  16.988  0.3118  0.3603  0.5339
15532TIP3    H168087   2.872   1.134  16.916 -0.2118  1.8115  0.2416
15532TIP3    H268088   2.905   1.112  17.063  1.0184 -1.3116 -0.4640
15533TIP3   OH268089   2.550   0.561  11.604  0.1550 -0.3129 -0.0400
15533TIP3    H168090   2.479   0.501  11.584 -0.1195 -1.0864  2.9729
15533TIP3    H268091   2.511   0.648  11.595 -0.7532 -0.7011  0.0745
15534TIP3   OH268092   5.545   3.502  13.064 -0.0030  0.1951 -0.8911
15534TIP3    H168093   5.634   3.494  13.031  0.2170 -1.8060  0.1053
15534TIP3    H268094   5.555   3.513  13.158 -0.8391 -1.7958 -0.5486
15535TIP3   OH268095   3.750   2.924   0.558  0.1645  0.5449 -0.5214
15535TIP3    H168096   3.758   2.941   0.652 -0.4618  1.8537 -0.6883
15535TIP3    H268097   3.832   2.882   0.534 -0.2323 -1.1206  0.8861
15536TIP3   OH268098   3.808   1.620  11.853  0.6308  0.6083  0.4138
15536TIP3    H168099   3.765   1.546  11.896  1.6613  0.0021  0.4194
15536TIP3    H268100   3.858   1.662  11.923  0.9921  0.6028  0.1592
15537TIP3   OH268101   4.198   2.572  16.706 -0.7095 -0.1446  0.5010
15537TIP3    H168102   4.239   2.606  16.786 -1.1486  0.2186  0.5695
15537TIP3    H268103   4.164   2.487  16.731  2.4686 -1.7337 -0.2739
15538TIP3   OH268104   4.566   6.810   3.615 -0.6934  0.1273  0.1260
15538TIP3    H168105   4.532   6.899   3.629  2.9492  2.1139 -2.6982
15538TIP3    H268106   4.499   6.767   3.562 -1.7004  1.7637  0.0163
15539TIP3   OH268107   0.151   3.221   1.375  0.1516  0.1745 -0.1092
15539TIP3    H168108   0.226   3.169   1.349 -0.3873 -1.1893  1.0116
15539TIP3    H268109   0.184   3.281   1.441  0.2681 -0.4117  0.3691
15540TIP3   OH268110   0.096   5.283  16.846  0.8498  0.0607  0.4344
15540TIP3    H168111   0.179   5.297  16.799  0.4233 -0.4843 -0.4982
15540TIP3    H268112   0.031   5.332  16.795  0.1428 -1.6509 -0.3235
15541TIP3   OH268113   0.389   4.273   3.596  0.5345  0.2315  0.0620
15541TIP3    H168114   0.349   4.284   3.682  2.2256 -0.5296  0.9793
15541TIP3    H268115   0.483   4.286   3.611  0.7919  0.7070 -1.7896
15542TIP3   OH268116   0.521   2.180   6.050 -0.9291  0.1203  0.3956
15542TIP3    H168117   0.466   2.125   6.106  0.5217 -0.3314  1.4397
15542TIP3    H268118   0.609   2.169   6.087 -0.4105  2.1305 -0.1900
15543TIP3   OH268119   4.308   2.291   1.888 -0.8182  0.1110  0.7330
15543TIP3    H168120   4.324   2.314   1.979 -2.8579  0.8961  0.9056
15543TIP3    H268121   4.274   2.201   1.891 -1.0773  0.2103  0.7587
15544TIP3   OH268122   2.776   5.389   4.117 -0.0941  0.5097 -0.7567
15544TIP3    H168123   2.800   5.369   4.208  3.0936 -0.3060 -1.7135
15544TIP3    H268124   2.755   5.304   4.078 -1.7323  0.8865 -0.7593
15545TIP3   OH268125   3.931   2.131   1.293 -0.4435 -0.1633  0.0594
15545TIP3    H168126   3.899   2.221   1.293 -0.5203 -0.1935 -0.8763
15545TIP3    H268127   3.871   2.085   1.353 -0.3988  0.3988  0.5435
15546TIP3   OH268128   0.552   1.571   3.387 -0.3912  0.3147 -0.6171
15546TIP3    H168129   0.611   1.504   3.353  2.2187  1.9722  0.4957
15546TIP3    H268130   0.501   1.527   3.454  0.6187 -0.7859 -0.5664
15547TIP3   OH268131   3.115   3.715   0.296  0.5236  0.9268  0.4523
15547TIP3    H168132   3.206   3.704   0.267  0.1839 -1.5134  0.1505
15547TIP3    H268133   3.064   3.709   0.215 -0.0802 -0.7393  0.9255
15548TIP3   OH268134   4.486   0.923   0.238 -0.0359 -0.0624 -0.0690
15548TIP3    H168135   4.534   0.982   0.295 -1.6807  0.0366  1.2628
15548TIP3    H268136   4.521   0.836   0.256  0.0722  0.0885  0.4370
15549TIP3   OH268137   4.064   6.442   2.667 -0.1640 -0.2350 -0.0074
15549TIP3    H168138   4.052   6.491   2.749  1.7241  0.4408 -0.1162
15549TIP3    H268139   3.980   6.451   2.622 -0.0133  2.5569  0.1738
15550TIP3   OH268140   5.014   2.631  13.325 -0.6236  0.4657  0.1439
15550TIP3    H168141   5.079   2.668  13.385  0.9198 -0.7471 -0.7318
15550TIP3    H268142   4.934   2.624  13.377  0.7961 -0.9519  2.1845
15551TIP3   OH268143   0.105   0.129  14.306  0.2750  0.0765  0.3012
15551TIP3    H168144   0.175   0.152  14.245 -0.3104  2.0444  0.3459
15551TIP3    H268145   0.143   0.059  14.360  1.6160 -0.0341 -0.7486
15552TIP3   OH268146   6.535   1.865   7.001  0.2622 -0.2527 -0.1692
15552TIP3    H168147   6.511   1.851   6.909 -0.9578  4.0820 -0.6328
15552TIP3    H268148   6.456   1.899   7.041  1.1974 -0.8143  2.2103
15553TIP3   OH268149   1.782   4.596   1.602 -0.1492 -1.2098  0.0260
15553TIP3    H168150   1.774   4.508   1.639 -1.4372 -1.6373 -1.2112
15553TIP3    H268151   1.866   4.595   1.556  1.1604 -0.8801  2.3023
15554TIP3   OH268152   2.890   5.797   5.121 -0.7790  0.4552  0.7703
15554TIP3    H168153   2.920   5.858   5.188  0.2086 -0.6033  1.3230
15554TIP3    H268154   2.833   5.736   5.168 -1.8822  1.0211  0.1944
15555TIP3   OH268155   1.747   0.086  10.479  0.1508 -0.2245  0.3922
15555TIP3    H168156   1.749  -0.006  10.506 -0.9595 -0.0774  1.0351
15555TIP3    H268157   1.833   0.121  10.505 -0.5155 -0.3450  2.8977
15556TIP3   OH268158   6.774   3.678  15.151  0.5279 -0.5310 -0.0829
15556TIP3    H168159   6.683   3.654  15.130  0.2817 -0.4851  0.8863
15556TIP3    H268160   6.769   3.770  15.177  1.1698  0.0388 -1.9277
15557TIP3   OH268161   0.877   2.078  13.700  0.5537 -0.4212 -0.1140
15557TIP3    H168162   0.848   2.124  13.622  0.2858 -0.2417  0.0893
15557TIP3    H268163   0.922   2.144  13.752 -0.4249 -0.2291  0.4896
15558TIP3   OH268164   0.114   5.249  16.161  0.2478 -0.4965  0.3416
15558TIP3    H168165   0.130   5.292  16.077 -0.9391 -1.5699 -0.4601
15558TIP3    H268166   0.019   5.257  16.174  0.0717 -2.5221  0.3637
15559TIP3   OH268167   4.664   6.313  16.410  0.5611 -0.2385  0.9084
15559TIP3    H168168   4.619   6.350  16.486  0.9915  1.2664  0.4368
15559TIP3    H268169   4.670   6.385  16.347  0.5988 -1.3495 -0.3872
15560TIP3   OH268170   5.412   3.189  13.412  0.8314 -0.1224 -0.5234
15560TIP3    H168171   5.453   3.171  13.328 -2.2187 -0.5445 -1.9942
15560TIP3    H268172   5.364   3.271  13.399 -1.1351 -1.1119  0.2128
15561TIP3   OH268173   0.611   5.840   6.146  0.6110 -0.0629  0.2952
15561TIP3    H168174   0.533   5.827   6.199  0.9474 -0.0459  0.7944
15561TIP3    H268175   0.647   5.753   6.132 -0.8897 -0.3562 -2.0751
15562TIP3   OH268176   0.740   4.524   2.857  0.3131 -0.2898 -0.1537
15562TIP3    H168177   0.795   4.595   2.824  1.7890 -1.5442 -0.4328
15562TIP3    H268178   0.757   4.451   2.798 -1.8674 -0.6143 -0.3917
15563TIP3   OH268179   6.227   1.615  12.601  0.2806 -0.6304 -0.4881
15563TIP3    H168180   6.171   1.574  12.668  1.1135 -0.1342  0.5259
15563TIP3    H268181   6.311   1.570  12.609  0.6218 -0.0209 -0.6650
15564TIP3   OH268182   3.029   3.278   1.608 -0.3710 -0.1355  0.0468
15564TIP3    H168183   3.119   3.309   1.609 -0.9719  1.7144  1.5552
15564TIP3    H268184   3.004   3.279   1.516  1.2231 -0.9520 -0.4144
15565TIP3   OH268185   1.083   2.135  13.274  0.3171 -0.0009  0.0651
15565TIP3    H168186   1.031   2.116  13.195  0.3454 -2.1307  0.5241
15565TIP3    H268187   1.174   2.129  13.244  0.3236 -0.2305  0.1300
15566TIP3   OH268188   5.241   2.396  12.887 -0.2185 -0.2095 -0.7016
15566TIP3    H168189   5.214   2.308  12.914  0.0858 -0.4091 -1.0372
15566TIP3    H268190   5.317   2.415  12.943  0.7066 -0.8170 -1.7311
15567TIP3   OH268191   4.168   3.311  11.937 -0.0049 -0.0298 -0.3269
15567TIP3    H168192   4.183   3.310  11.842  1.8589 -0.2506 -0.0594
15567TIP3    H268193   4.150   3.220  11.960 -1.1272  0.1311 -0.5634
15568TIP3   OH268194   0.216   2.777   3.034  0.1974  0.6047 -0.1245
15568TIP3    H168195   0.128   2.746   3.053  0.3261  1.1238  1.3657
15568TIP3    H268196   0.205   2.845   2.969 -0.4857  0.5430 -0.0715
15569TIP3   OH268197   4.350   2.066  12.288 -0.8249 -0.2627 -0.1292
15569TIP3    H168198   4.331   1.972  12.289  0.3850 -0.5265  2.4212
15569TIP3    H268199   4.435   2.073  12.244  0.5707 -0.7475  2.3521
15570TIP3   OH268200   3.577   4.043   1.382  0.3088 -0.6738  0.1321
15570TIP3    H168201   3.578   3.948   1.395  0.9296 -0.6404  0.3331
15570TIP3    H268202   3.523   4.056   1.305 -0.6399 -1.1208  0.7125
15571TIP3   OH268203   1.544   3.273  15.818 -0.0201  0.1757 -0.6349
15571TIP3    H168204   1.590   3.356  15.831 -0.4973  0.3875 -0.2790
15571TIP3    H268205   1.577   3.216  15.888 -1.4827  0.8425  0.6355
15572TIP3   OH268206   4.456   1.099  15.368  0.2988  0.4766 -0.0670
15572TIP3    H168207   4.439   1.025  15.309  0.1851 -1.4140  2.2505
15572TIP3    H268208   4.373   1.113  15.414  1.2178 -0.1766  1.8701
15573TIP3   OH268209   3.925   2.558   4.023 -0.0567  0.1843  0.3158
15573TIP3    H168210   3.969   2.523   4.101 -0.6727 -0.8091  0.2271
15573TIP3    H268211   3.990   2.549   3.953  0.7162  1.6433  0.8319
15574TIP3   OH268212   1.055   5.268  16.655  0.4542 -0.1365 -0.8321
15574TIP3    H168213   1.107   5.192  16.682  0.3413  0.1068  0.0696
15574TIP3    H268214   1.070   5.334  16.723  0.2034  0.4998 -1.3768
15575TIP3   OH268215   6.689   3.292   3.961 -0.0761  0.2462 -0.6011
15575TIP3    H168216   6.761   3.230   3.978 -0.1689  0.1771 -0.4633
15575TIP3    H268217   6.699   3.316   3.869  0.5703  0.8036 -0.3945
15576TIP3   OH268218   1.671   1.674  13.863  0.1321  0.1949 -0.0128
15576TIP3    H168219   1.698   1.758  13.900 -1.9898 -0.4152  3.0995
15576TIP3    H268220   1.752   1.623  13.858  0.9057  1.2762  1.1836
15577TIP3   OH268221   0.697   4.718   4.444 -0.4652 -0.1536  0.1833
15577TIP3    H168222   0.737   4.803   4.464 -2.4606  1.1982 -1.3866
15577TIP3    H268223   0.770   4.664   4.414  0.6062  1.4456 -0.1888
15578TIP3   OH268224   1.802   2.217   0.033 -0.1548 -0.4581 -0.0795
15578TIP3    H168225   1.726   2.221   0.092  0.1466 -0.1479  0.2931
15578TIP3    H268226   1.819   2.308   0.010 -1.9302 -0.7607 -2.8260
15579TIP3   OH268227   5.383   0.246   4.167  0.0985 -0.0469 -0.0300
15579TIP3    H168228   5.303   0.297   4.179 -1.8724 -1.8211 -4.5139
15579TIP3    H268229   5.448   0.309   4.137 -0.7560  0.7380 -0.2491
15580TIP3   OH268230   3.397   0.678  10.482 -0.2782  0.3996 -0.7526
15580TIP3    H168231   3.323   0.618  10.494 -1.0533  1.4367 -0.3119
15580TIP3    H268232   3.411   0.679  10.388  0.2919 -1.1208 -0.7096
15581TIP3   OH268233   1.532   6.002   6.469 -0.0601 -0.3734 -0.0024
15581TIP3    H168234   1.484   5.944   6.410  0.1029  0.3816 -0.8905
15581TIP3    H268235   1.506   6.090   6.443 -0.5957 -0.0476  1.5876
15582TIP3   OH268236   2.107   1.043   5.083 -0.1485 -0.5388 -0.2891
15582TIP3    H168237   2.158   0.966   5.055  0.1268 -0.4678  0.0081
15582TIP3    H268238   2.148   1.116   5.038 -0.0650 -0.4994 -0.1526
15583TIP3   OH268239   0.689   5.166   2.880 -0.5546  0.1834  0.2313
15583TIP3    H168240   0.720   5.177   2.790 -2.8370 -0.9151 -0.7411
15583TIP3    H268241   0.726   5.240   2.928 -0.2548  1.4338 -1.8869
15584TIP3   OH268242   1.950   5.132   2.985 -0.0027  0.2025 -0.5647
15584TIP3    H168243   1.891   5.179   3.044  0.2616 -0.5082  0.2672
15584TIP3    H268244   1.933   5.171   2.899 -0.5550  1.0818 -0.0671
15585TIP3   OH268245   4.393   0.491   3.199 -0.2640 -0.0901 -0.1031
15585TIP3    H168246   4.311   0.509   3.152 -0.3843  0.7681  0.4162
15585TIP3    H268247   4.430   0.578   3.215  1.2109 -0.5139 -1.1444
15586TIP3   OH268248   5.079   0.171  16.412  0.3038 -0.0318 -0.4813
15586TIP3    H168249   4.990   0.203  16.429 -0.1910 -1.3111 -0.6420
15586TIP3    H268250   5.122   0.244  16.367 -0.7301  0.5118 -0.6097
15587TIP3   OH268251   2.680   4.424  13.702 -0.1890  0.4067 -0.2060
15587TIP3    H168252   2.592   4.458  13.720 -0.2009  0.9945 -1.3118
15587TIP3    H268253   2.669   4.329  13.700 -0.8651  0.4904 -0.6432
15588TIP3   OH268254   4.636   6.512   2.177 -1.0252  0.4118  0.6026
15588TIP3    H168255   4.559   6.538   2.126  1.1190  2.0267 -1.9604
15588TIP3    H268256   4.689   6.591   2.181  0.5397 -0.7045  2.2602
15589TIP3   OH268257   3.588   3.088   3.373  0.4892  0.1107 -0.2800
15589TIP3    H168258   3.647   3.057   3.442 -0.6764 -0.1786  0.6029
15589TIP3    H268259   3.620   3.047   3.293  1.6649  0.1965  0.1359
15590TIP3   OH268260   0.192   1.845  15.990  0.2676 -0.0828 -0.2637
15590TIP3    H168261   0.249   1.822  15.917 -0.5857 -1.0960 -0.6237
15590TIP3    H268262   0.170   1.761  16.031 -0.6832  0.3206  0.0739
15591TIP3   OH268263   4.934   1.181   3.897  0.2172  0.3107 -0.1486
15591TIP3    H168264   4.911   1.096   3.935  0.8253  0.3163  0.2420
15591TIP3    H268265   4.942   1.240   3.972 -1.0630  0.9212 -0.4887
15592TIP3   OH268266   0.749   5.588  12.336  0.3003 -0.4710  0.3049
15592TIP3    H168267   0.753   5.515  12.399  0.7838  0.1732  1.0289
15592TIP3    H268268   0.790   5.553  12.257 -1.2192 -1.6291 -0.0067
15593TIP3   OH268269   0.046   1.128  11.946  0.2641  0.4451 -0.1137
15593TIP3    H168270   0.028   1.035  11.952  1.3017  0.1127 -1.8350
15593TIP3    H268271   0.133   1.138  11.986 -0.1148  0.7939  0.6540
15594TIP3   OH268272   0.713   3.810  16.486 -0.2956 -0.4242  1.0651
15594TIP3    H168273   0.786   3.791  16.546  0.7521  0.8387  0.2099
15594TIP3    H268274   0.674   3.724  16.470  0.5960 -1.0413  2.0550
15595TIP3   OH268275   4.892   1.787   0.955 -0.0721  0.2399 -0.5604
15595TIP3    H168276   4.807   1.774   0.998  1.0781 -0.1735  1.6779
15595TIP3    H268277   4.905   1.882   0.956  0.6706  0.1530  1.5693
15596TIP3   OH268278   1.741   1.651  12.611  0.0673  0.2592 -0.3702
15596TIP3    H168279   1.677   1.659  12.540 -1.6524 -0.4774  1.0552
15596TIP3    H268280   1.758   1.742  12.638 -1.0335  0.4330 -0.2163
15597TIP3   OH268281   4.511   2.082  13.090  0.3589 -0.6756 -0.0310
15597TIP3    H168282   4.474   1.994  13.082  3.1728 -1.7517 -2.0465
15597TIP3    H268283   4.459   2.135  13.030 -0.9833 -1.0445  0.7708
15598TIP3   OH268284   1.873   6.035   6.005  0.0753  0.1606 -0.1193
15598TIP3    H168285   1.832   6.040   6.092 -0.6583 -1.4582 -0.3616
15598TIP3    H268286   1.964   6.012   6.023  0.0849  0.4652  0.2485
15599TIP3   OH268287   6.709   2.426   6.162  0.8616  0.1758 -0.3637
15599TIP3    H168288   6.676   2.342   6.193  0.4000  1.3537  2.4020
15599TIP3    H268289   6.800   2.408   6.137  1.0231 -0.9420  1.0066
15600TIP3   OH268290   3.412   1.878   5.057  0.3809  0.2527  0.1925
15600TIP3    H168291   3.480   1.910   4.997 -1.0343 -0.9582 -2.0832
15600TIP3    H268292   3.350   1.951   5.064 -0.6920 -0.4480 -1.7348
15601TIP3   OH268293   3.475   4.697   0.467  0.4595  0.0287 -0.3550
15601TIP3    H168294   3.402   4.679   0.408 -0.6366  0.4807  0.8193
15601TIP3    H268295   3.488   4.616   0.516 -1.3846  0.9085  1.6609
15602TIP3   OH268296   3.164   5.446   5.574 -0.2267  0.2475  0.0221
15602TIP3    H168297   3.233   5.403   5.624 -0.0079 -1.6310 -1.8596
15602TIP3    H268298   3.094   5.382   5.568 -0.5748  0.7385 -1.3963
15603TIP3   OH268299   3.538   5.218  14.232 -0.3653 -0.1601  0.0896
15603TIP3    H168300   3.464   5.205  14.292  1.2724 -0.5507  2.0768
15603TIP3    H268301   3.565   5.309  14.247 -0.5129  0.0236 -0.7297
15604TIP3   OH268302   1.191   2.793  13.010 -0.3044 -0.3516  0.3418
15604TIP3    H168303   1.207   2.888  13.010 -0.5092 -0.2989  2.1367
15604TIP3    H268304   1.274   2.755  12.983 -0.0915  0.3186  0.0343
15605TIP3   OH268305   1.155   2.725  12.060 -0.1625  0.3368 -0.2104
15605TIP3    H168306   1.087   2.731  12.128 -1.1776  0.6509 -1.2467
15605TIP3    H268307   1.162   2.814  12.026 -1.6237 -0.3663 -2.4161
15606TIP3   OH268308   1.586   2.939   5.402 -0.1003  0.4746  0.1557
15606TIP3    H168309   1.545   2.966   5.484  2.0779  2.3274  0.6945
15606TIP3    H268310   1.622   2.852   5.420 -0.8251  0.2860  0.7139
15607TIP3   OH268311   2.906   5.281   1.706  0.6331  0.3280  0.3978
15607TIP3    H168312   2.981   5.338   1.715 -0.0174  0.9681  2.0595
15607TIP3    H268313   2.852   5.300   1.783 -1.0947 -0.2954 -0.6314
15608TIP3   OH268314   1.632   0.698   5.251 -0.2768  0.3797 -0.0362
15608TIP3    H168315   1.616   0.620   5.198  0.5704 -0.7838  1.4035
15608TIP3    H268316   1.548   0.743   5.252 -0.6601 -0.2651 -1.2468
15609TIP3   OH268317   4.651   3.383  13.994 -0.4355 -0.3551 -0.0649
15609TIP3    H168318   4.677   3.406  14.083 -0.4055 -1.9832  0.3624
15609TIP3    H268319   4.731   3.393  13.942  0.1210 -1.6449  0.5284
15610TIP3   OH268320   1.093   3.494   1.250  0.3292  0.0310  0.0416
15610TIP3    H168321   1.112   3.419   1.305 -1.4815  0.5916  1.4968
15610TIP3    H268322   1.000   3.485   1.228 -0.0740  2.1029  0.7000
15611TIP3   OH268323   3.389   6.698  16.546  0.6781  0.4499 -0.0805
15611TIP3    H168324   3.405   6.606  16.570 -0.9886  0.4487  1.1665
15611TIP3    H268325   3.369   6.696  16.453 -1.5022 -0.7612  0.3910
15612TIP3   OH268326   3.224   2.834  14.696 -0.2684 -0.5319 -0.4113
15612TIP3    H168327   3.275   2.760  14.663  0.6815 -0.0228 -0.1186
15612TIP3    H268328   3.286   2.907  14.697 -1.0158  0.1073 -0.0665
15613TIP3   OH268329   5.625   3.147   2.913 -0.1250  0.4352 -0.2203
15613TIP3    H168330   5.645   3.060   2.948 -2.0267  0.0567 -0.0173
15613TIP3    H268331   5.655   3.208   2.981  2.2889  0.0146 -0.8753
15614TIP3   OH268332   0.856   5.970  15.982  0.3800 -0.0713  1.1981
15614TIP3    H168333   0.849   5.876  15.997  1.1787 -0.5870 -1.4387
15614TIP3    H268334   0.863   5.979  15.887 -2.2090  2.8354  1.1915
15615TIP3   OH268335   2.921   2.296  13.040 -0.2863 -0.4500  0.4479
15615TIP3    H168336   2.857   2.366  13.049  1.8599  1.4573  1.1670
15615TIP3    H268337   2.923   2.254  13.126 -2.0417 -1.8607 -0.1661
15616TIP3   OH268338   0.002   3.995  11.286  0.0984  0.0162  0.0529
15616TIP3    H168339  -0.023   3.983  11.195 -0.5538  1.6210 -0.0053
15616TIP3    H268340  -0.003   4.090  11.300 -1.6789 -0.3623  2.2646
15617TIP3   OH268341   4.342   0.355  16.442 -0.1221 -0.9072 -0.3328
15617TIP3    H168342   4.252   0.369  16.472  0.2356  0.2965  0.2044
15617TIP3    H268343   4.392   0.428  16.479  0.4723  0.2678 -3.3028
15618TIP3   OH268344   0.033   6.709  12.633 -0.1510  0.8525 -0.2880
15618TIP3    H168345  -0.003   6.664  12.556 -0.9213  2.4450 -0.8791
15618TIP3    H268346   0.092   6.775  12.596 -1.0711  2.0926  0.4660
15619TIP3   OH268347   2.630   3.763  15.441  0.1818 -0.3065 -0.0191
15619TIP3    H168348   2.700   3.736  15.501 -0.5412 -0.3425  0.8155
15619TIP3    H268349   2.674   3.815  15.374  0.9336  0.1025  0.7899
15620TIP3   OH268350   4.115   2.345   5.617 -0.3438 -0.0595 -0.0117
15620TIP3    H168351   4.161   2.284   5.560  0.9803  1.5925 -0.7680
15620TIP3    H268352   4.030   2.303   5.634  0.9590 -2.6061  0.4421
15621TIP3   OH268353   0.074   3.296   0.569 -0.2247  0.6426  0.3038
15621TIP3    H168354   0.094   3.344   0.489  1.3437 -1.5202 -0.6540
15621TIP3    H268355  -0.007   3.249   0.550  0.3200 -0.1224 -0.1429
15622TIP3   OH268356   2.075   0.689   2.144  0.1505  0.1198 -0.1412
15622TIP3    H168357   2.114   0.619   2.092  1.2309  0.9985 -0.5236
15622TIP3    H268358   2.119   0.684   2.229 -1.1862 -0.9270  0.5183
15623TIP3   OH268359   1.452   1.381   4.015 -0.5669  0.7601  0.6378
15623TIP3    H168360   1.372   1.389   4.066 -0.5801 -4.9917  1.7951
15623TIP3    H268361   1.424   1.343   3.932  0.7496  0.2165  0.4247
15624TIP3   OH268362   0.414   6.787   0.317 -0.0624  0.4536 -0.2029
15624TIP3    H168363   0.393   6.839   0.395  0.3428 -0.1083  0.2885
15624TIP3    H268364   0.379   6.700   0.337 -0.0064  0.3251 -0.6734
15625TIP3   OH268365   2.001   1.127   1.714 -0.1939 -0.3853 -0.5414
15625TIP3    H168366   2.088   1.158   1.736  0.5758 -2.6961 -0.2373
15625TIP3    H268367   2.012   1.078   1.633 -1.3377 -0.0817 -0.8922
15626TIP3   OH268368   3.444   3.517  13.850 -0.1602  0.9548 -0.5143
15626TIP3    H168369   3.493   3.572  13.911  0.1413  1.4822 -1.2206
15626TIP3    H268370   3.491   3.434  13.849  0.5216  1.3357 -0.9087
15627TIP3   OH268371   3.308   5.794  13.962 -0.4620 -0.4084 -0.6174
15627TIP3    H168372   3.265   5.715  13.995  0.5956 -0.4397  0.7507
15627TIP3    H268373   3.237   5.850  13.932 -1.6529  0.2627  3.1959
15628TIP3   OH268374   0.565   5.782  13.754 -0.0656  0.0579 -0.0366
15628TIP3    H168375   0.596   5.864  13.716  1.0929 -0.1218  0.5094
15628TIP3    H268376   0.531   5.732  13.680  0.2284  0.5811 -0.5218
15629TIP3   OH268377   5.541   4.317   3.087  0.3684 -1.0739 -0.1517
15629TIP3    H168378   5.628   4.285   3.066  1.7404  2.6773 -0.4696
15629TIP3    H268379   5.542   4.409   3.064 -2.7496 -0.2334  2.5564
15630TIP3   OH268380   2.797   5.841   3.421 -0.1283  0.5017  0.1587
15630TIP3    H168381   2.870   5.823   3.362 -1.5126  0.2436 -1.5370
15630TIP3    H268382   2.821   5.799   3.503  1.7734  0.7150 -0.2671
15631TIP3   OH268383   4.341   6.726  16.005  0.1959  0.9230 -0.8361
15631TIP3    H168384   4.403   6.744  15.934 -0.4140 -2.1986 -2.2264
15631TIP3    H268385   4.317   6.635  15.994 -2.4434  1.2665  1.4682
15632TIP3   OH268386   1.195   4.133   2.343 -0.0635 -0.0929 -0.7818
15632TIP3    H168387   1.110   4.097   2.367  0.1721 -0.8309 -1.0499
15632TIP3    H268388   1.258   4.081   2.392  0.2725  0.0507 -1.0600
15633TIP3   OH268389   2.626   3.003   4.052  0.7728 -0.4663  0.4162
15633TIP3    H168390   2.623   2.955   4.135 -0.9781 -1.6847 -0.3163
15633TIP3    H268391   2.682   2.949   3.996  1.1376 -0.1584  0.4797
15634TIP3   OH268392   0.153   1.299  16.894 -0.1987 -0.3388  0.3458
15634TIP3    H168393   0.068   1.262  16.872 -0.3873  0.3586 -0.1355
15634TIP3    H268394   0.135   1.391  16.914  0.4865 -0.0871 -0.1280
15635TIP3   OH268395   2.727   2.771  14.416  0.4727 -0.5885 -0.0164
15635TIP3    H168396   2.641   2.781  14.376  0.8669 -0.9283 -0.9410
15635TIP3    H268397   2.762   2.860  14.418 -0.6063 -0.1776  1.9712
15636TIP3   OH268398   2.822   1.180   5.158 -0.4658 -0.3158  0.1150
15636TIP3    H168399   2.847   1.089   5.143  0.5206 -0.1659  0.8448
15636TIP3    H268400   2.884   1.212   5.222  0.7935  1.6166 -2.0026
15637TIP3   OH268401   1.530   4.974   0.517 -0.6735 -0.3792 -0.1048
15637TIP3    H168402   1.592   4.981   0.445  0.0397 -0.0213  0.5474
15637TIP3    H268403   1.445   4.996   0.478 -0.2917 -0.1897 -0.8293
15638TIP3   OH268404   5.353   5.219  17.121 -0.6727 -0.1747 -0.4334
15638TIP3    H168405   5.419   5.226  17.052 -0.6753 -1.2202 -0.5540
15638TIP3    H268406   5.397   5.249  17.200 -0.9324  1.8659 -1.0338
15639TIP3   OH268407   6.145   1.612   6.395 -0.1625  0.7376 -0.2479
15639TIP3    H168408   6.136   1.611   6.491 -1.0779  0.4461 -0.3271
15639TIP3    H268409   6.141   1.519   6.371  1.0595  0.7488 -0.4852
15640TIP3   OH268410   3.632   5.547  15.393 -0.4432 -0.4088  0.5077
15640TIP3    H168411   3.660   5.585  15.476 -0.4405  1.6874 -0.4311
15640TIP3    H268412   3.566   5.482  15.418  0.4863 -0.7138  2.2349
15641TIP3   OH268413   4.495   1.475   4.889  0.1416 -0.0229  0.0410
15641TIP3    H168414   4.523   1.563   4.865  0.9068 -0.3697 -0.3574
15641TIP3    H268415   4.405   1.486   4.920  0.5233  1.0189  0.7926
15642TIP3   OH268416   3.986   1.143   0.115 -0.4586  0.4771  0.4423
15642TIP3    H168417   4.072   1.144   0.072  0.5378  0.7679  2.4030
15642TIP3    H268418   3.968   1.050   0.129 -0.0390  0.4605  0.8702
15643TIP3   OH268419   2.964   0.396   2.336  0.2257  0.0029  0.1822
15643TIP3    H168420   3.055   0.423   2.331  0.3524 -0.3893  0.3695
15643TIP3    H268421   2.964   0.322   2.397 -0.1864 -0.1199  0.0358
15644TIP3   OH268422   3.133   1.665  12.607 -0.0134  0.0529  0.2906
15644TIP3    H168423   3.203   1.677  12.543  0.2325 -0.1468  0.5198
15644TIP3    H268424   3.053   1.690  12.561  0.1222 -0.4177 -0.1965
15645TIP3   OH268425   4.258   2.877   0.369  0.7788  0.1130  0.1404
15645TIP3    H168426   4.337   2.920   0.401  0.7288 -0.3089  0.8448
15645TIP3    H268427   4.289   2.816   0.302  0.8373  1.3063 -0.9396
15646TIP3   OH268428   6.614   6.099   3.830  0.2638 -0.0509 -0.2663
15646TIP3    H168429   6.569   6.171   3.786 -0.6423 -1.3549 -1.5264
15646TIP3    H268430   6.707   6.116   3.816 -0.0037 -0.3863 -2.6417
15647TIP3   OH268431   0.402   3.187  12.626 -0.3661 -0.0382 -0.0985
15647TIP3    H168432   0.345   3.244  12.677  0.2807  0.0060  0.5832
15647TIP3    H268433   0.397   3.221  12.537 -1.0954  0.2067  0.0344
15648TIP3   OH268434   0.488   4.209  13.412 -0.1486 -0.1845  0.0309
15648TIP3    H168435   0.502   4.124  13.369 -0.0460 -0.9744  1.5801
15648TIP3    H268436   0.394   4.210  13.433  0.4231 -1.3452  2.8781
15649TIP3   OH268437   1.348   5.447  15.106 -0.0843  0.5091  0.0316
15649TIP3    H168438   1.372   5.423  15.196  1.3036  1.7197  0.0111
15649TIP3    H268439   1.427   5.489  15.071 -0.4734 -0.3026 -1.8898
15650TIP3   OH268440   5.331   1.230  15.156  0.3317  0.3356  0.0758
15650TIP3    H168441   5.417   1.273  15.150  0.4497 -0.2067 -2.8108
15650TIP3    H268442   5.269   1.303  15.164  1.1093  0.6877  3.6456
15651TIP3   OH268443   1.910   1.333  14.491  0.2217 -0.0258  0.6133
15651TIP3    H168444   1.895   1.426  14.472  0.3990 -0.4454 -1.7392
15651TIP3    H268445   2.001   1.329  14.519  0.0768  0.5824  1.1712
15652TIP3   OH268446   2.009   4.972  12.427 -0.4322 -0.9540 -0.4908
15652TIP3    H168447   1.922   4.936  12.443 -0.6208 -0.6492 -0.8327
15652TIP3    H268448   2.050   4.910  12.366 -0.3810 -1.1405 -0.2669
15653TIP3   OH268449   2.373   4.705  10.480  0.5001  0.0248  0.2449
15653TIP3    H168450   2.420   4.633  10.523 -2.1063 -0.1926  2.8234
15653TIP3    H268451   2.322   4.662  10.412  1.1353 -0.1929 -0.1027
15654TIP3   OH268452   5.584   5.751  15.799  0.9398 -0.5350  0.4196
15654TIP3    H168453   5.581   5.846  15.806  0.2412 -0.6196  1.4089
15654TIP3    H268454   5.631   5.734  15.718  0.5527  0.6590 -0.0597
15655TIP3   OH268455   3.847   6.179  12.529 -0.5363 -0.7959  0.7392
15655TIP3    H168456   3.771   6.236  12.516  1.2214  0.9914 -2.2268
15655TIP3    H268457   3.841   6.114  12.459  0.2211 -1.1486  0.9903
15656TIP3   OH268458   5.496   4.970  15.061  0.4438  0.3565 -0.4216
15656TIP3    H168459   5.520   4.923  15.140  0.4010  0.4145 -0.3739
15656TIP3    H268460   5.565   5.036  15.049  0.4017  0.4082 -0.3807
15657TIP3   OH268461   1.706   0.429   4.260 -0.5305 -0.4926  0.4082
15657TIP3    H168462   1.754   0.499   4.304  0.5882 -1.1441  0.2541
15657TIP3    H268463   1.767   0.355   4.259 -1.9680 -1.7180  1.2469
15658TIP3   OH268464   5.665   3.988  14.102 -0.2143  0.1103 -0.2188
15658TIP3    H168465   5.700   4.007  14.189 -1.4900 -0.5773  0.4674
15658TIP3    H268466   5.696   3.899  14.083  0.4485  0.4392 -0.6624
15659TIP3   OH268467   0.425   1.854   4.441 -0.5306  0.9815 -0.5600
15659TIP3    H168468   0.482   1.896   4.506  0.2450  0.1524 -0.6866
15659TIP3    H268469   0.354   1.817   4.493 -0.1037  0.6393 -0.2072
15660TIP3   OH268470   0.879   2.270   1.930  0.3242 -1.0216 -0.5676
15660TIP3    H168471   0.859   2.276   2.023 -2.8347 -0.0593 -1.2398
15660TIP3    H268472   0.956   2.214   1.925  0.8195 -0.6839  2.6508
15661TIP3   OH268473   6.701   3.691  12.161 -0.2395  0.9382  0.0059
15661TIP3    H168474   6.632   3.669  12.224 -0.2517 -0.6674 -0.5334
15661TIP3    H268475   6.668   3.768  12.115  0.2153  2.7400  2.6154
15662TIP3   OH268476   4.324   2.781  16.535 -0.0567  0.2705  0.0134
15662TIP3    H168477   4.410   2.760  16.498  0.5544 -0.3542  1.7152
15662TIP3    H268478   4.343   2.844  16.604 -0.9700  0.1332  0.3921
15663TIP3   OH268479   6.570   1.708   1.212  0.2310  0.3655  0.2626
15663TIP3    H168480   6.511   1.780   1.234 -0.5633  0.6752 -2.6529
15663TIP3    H268481   6.528   1.631   1.250 -1.8107  0.6783 -1.2648
15664TIP3   OH268482   2.899   5.736   0.145  0.0435  0.3169 -0.0611
15664TIP3    H168483   2.854   5.691   0.074  0.5476  0.2019 -0.3123
15664TIP3    H268484   2.884   5.682   0.222 -1.0844  0.7988  0.0706
15665TIP3   OH268485   4.021   0.581  16.279  0.6716  0.7056 -0.0170
15665TIP3    H168486   4.068   0.580  16.196  1.5725  1.3171  0.4868
15665TIP3    H268487   3.988   0.671  16.286 -2.4178 -0.2455 -1.3851
15666TIP3   OH268488   4.467   4.142   5.205  0.7602  0.9114  0.1570
15666TIP3    H168489   4.391   4.125   5.261  1.0028 -0.1367  0.1649
15666TIP3    H268490   4.539   4.096   5.247  0.3668 -2.2546 -2.4990
15667TIP3   OH268491   3.278   5.967  13.660 -0.0153 -0.1164  0.4940
15667TIP3    H168492   3.262   5.878  13.628 -0.5335  0.6191 -1.3185
15667TIP3    H268493   3.296   6.018  13.582  1.8793  1.0663  1.6627
15668TIP3   OH268494   4.540   5.930  14.580  0.0456  0.5097  0.3320
15668TIP3    H168495   4.502   5.893  14.500 -1.5421  1.2764  0.7037
15668TIP3    H268496   4.506   6.020  14.583 -0.7950  0.1541  2.4028
15669TIP3   OH268497   0.400   2.735  15.579  0.2490  0.2658 -0.1863
15669TIP3    H168498   0.340   2.664  15.555  1.0939  0.1847 -2.1532
15669TIP3    H268499   0.461   2.695  15.641  0.5212 -0.6634 -1.0393
15670TIP3   OH268500   2.701   4.806  11.429 -0.0756 -0.0632  0.0356
15670TIP3    H168501   2.640   4.780  11.361  0.2248 -0.7507  0.0176
15670TIP3    H268502   2.671   4.892  11.458  0.7788  0.9893 -2.1108
15671TIP3   OH268503   1.752   3.627   3.420  0.2280  0.3444  0.3372
15671TIP3    H168504   1.799   3.597   3.497 -1.0357  0.4749  1.1731
15671TIP3    H268505   1.661   3.636   3.449  0.0239  1.9346 -0.7278
15672TIP3   OH268506   5.776   4.366  11.409  0.0307 -0.1266 -0.3411
15672TIP3    H168507   5.757   4.389  11.500  0.7441 -0.8080 -0.0139
15672TIP3    H268508   5.702   4.312  11.382 -0.2193  0.1362 -0.1961
15673TIP3   OH268509   2.265   4.588  11.696 -0.1345 -0.9873 -0.2493
15673TIP3    H168510   2.272   4.675  11.735  1.5908 -1.5415  0.7457
15673TIP3    H268511   2.174   4.562  11.711 -0.0535 -0.3201  1.5799
15674TIP3   OH268512   3.966   2.553  13.212  0.1827  0.8098 -0.1221
15674TIP3    H168513   3.877   2.588  13.219 -1.2966 -3.0003  1.1231
15674TIP3    H268514   4.010   2.585  13.291  0.1185  3.1653 -1.0099
15675TIP3   OH268515   0.649   6.107   5.021 -0.0390 -0.4145  0.4171
15675TIP3    H168516   0.725   6.163   5.009 -0.2912  0.2106  1.6664
15675TIP3    H268517   0.583   6.142   4.962 -0.4089  1.0133  1.6481
15676TIP3   OH268518   2.437   0.857   2.148  0.5700  0.3001 -0.1381
15676TIP3    H168519   2.489   0.809   2.083 -1.1757 -0.9253 -0.6596
15676TIP3    H268520   2.407   0.790   2.209 -0.7222  0.9324 -0.0704
15677TIP3   OH268521   5.998   6.639  14.033 -0.5203 -0.0995 -0.7159
15677TIP3    H168522   6.050   6.590  13.969  1.1739  0.9952 -0.2006
15677TIP3    H268523   5.989   6.578  14.107 -1.9010 -1.1088 -1.6810
15678TIP3   OH268524   6.548   6.736   0.415 -0.0438 -0.1276  0.0996
15678TIP3    H168525   6.467   6.686   0.401  0.2170 -0.5595  0.1066
15678TIP3    H268526   6.616   6.669   0.420 -0.1249 -0.0295  3.5849
15679TIP3   OH268527   2.040   3.636   2.625  0.1801  0.1059 -0.0625
15679TIP3    H168528   2.051   3.728   2.603 -0.9774  0.8580  2.2702
15679TIP3    H268529   1.952   3.614   2.592  0.0996  0.0962  0.1545
15680TIP3   OH268530   5.804   3.583   0.515  0.6000  0.1255 -0.6800
15680TIP3    H168531   5.864   3.648   0.478 -0.7085  1.6315 -0.2047
15680TIP3    H268532   5.717   3.614   0.491 -0.0846 -1.0918  0.1565
15681TIP3   OH268533   4.405   3.052   4.027 -0.0257  0.1995 -0.2507
15681TIP3    H168534   4.354   3.082   3.953  2.8166  1.6154 -1.7252
15681TIP3    H268535   4.439   2.967   4.000 -2.5243 -1.3109  1.2141
15682TIP3   OH268536   5.717   1.206  12.333 -0.4633 -0.3548  0.1644
15682TIP3    H168537   5.645   1.143  12.330  0.3917 -1.3439 -0.1665
15682TIP3    H268538   5.693   1.274  12.269 -0.5636 -1.2790 -0.7957
15683TIP3   OH268539   2.093   3.222   1.738 -0.1488  0.3279 -0.1197
15683TIP3    H168540   2.007   3.238   1.776 -0.0988 -0.0496  0.1569
15683TIP3    H268541   2.079   3.229   1.643 -0.4905  0.2464 -0.0761
15684TIP3   OH268542   1.306   4.562  11.365 -0.4134  0.8951 -0.0151
15684TIP3    H168543   1.304   4.601  11.277 -1.1514 -0.0113 -0.4122
15684TIP3    H268544   1.397   4.569  11.392  0.2470 -0.6792 -1.7214
15685TIP3   OH268545   3.816   1.325  14.087 -0.2975  0.0136  0.2981
15685TIP3    H168546   3.734   1.294  14.049 -0.0626  0.1780 -0.3500
15685TIP3    H268547   3.867   1.246  14.103 -0.1906 -0.0228 -0.2125
15686TIP3   OH268548   5.912   1.773  10.809 -0.3358 -0.1994 -0.3095
15686TIP3    H168549   5.840   1.836  10.806 -0.4169 -0.2861 -0.1747
15686TIP3    H268550   5.979   1.811  10.753 -0.4170 -0.0311 -0.2934
15687TIP3   OH268551   6.215   0.469   5.933  0.2956 -0.1966 -0.0653
15687TIP3    H168552   6.214   0.494   6.025 -0.9575  1.2175 -0.4335
15687TIP3    H268553   6.122   0.464   5.909  0.6214  0.1887 -1.4432
15688TIP3   OH268554   2.355   2.117  14.434 -0.2474  0.5394 -0.2320
15688TIP3    H168555   2.268   2.156  14.437 -1.2856 -1.5287 -1.7750
15688TIP3    H268556   2.344   2.029  14.470  0.9143 -0.1698 -1.5213
15689TIP3   OH268557   0.886   2.445   0.673 -0.0345 -0.2068 -0.4359
15689TIP3    H168558   0.842   2.461   0.590 -1.4702 -0.3957  0.2657
15689TIP3    H268559   0.945   2.520   0.684  0.8425 -0.6463 -2.0461
15690TIP3   OH268560   2.345   2.828   3.679  0.0701 -0.2214 -0.8259
15690TIP3    H168561   2.269   2.788   3.721  0.3439  0.3854  0.2808
15690TIP3    H268562   2.391   2.756   3.638 -1.3797 -0.5337 -1.9701
15691TIP3   OH268563   2.157   4.964   0.434  0.0721  0.3348  0.1806
15691TIP3    H168564   2.243   4.971   0.476  0.1732  0.8314 -0.1013
15691TIP3    H268565   2.100   5.021   0.486 -0.1864 -0.3317  0.6243
15692TIP3   OH268566   5.773   0.502  15.329  0.3716 -0.4017  0.4805
15692TIP3    H168567   5.737   0.416  15.308 -0.2489 -0.0428  0.0526
15692TIP3    H268568   5.701   0.547  15.374  0.0511  0.5398 -0.9259
15693TIP3   OH268569   3.698   4.874  15.857 -0.1512 -0.0998 -0.4342
15693TIP3    H168570   3.792   4.865  15.870 -0.4478  0.2987  2.1684
15693TIP3    H268571   3.683   4.967  15.844 -0.1524 -0.2210 -1.3818
15694TIP3   OH268572   5.763   2.762   6.067 -0.8673  0.1529  0.3190
15694TIP3    H168573   5.677   2.802   6.054 -1.1820 -0.0464  1.7184
15694TIP3    H268574   5.810   2.822   6.125 -0.7304 -0.6633  1.0575
15695TIP3   OH268575   5.449   3.114  15.626 -0.5214  0.1624  0.3521
15695TIP3    H168576   5.417   3.137  15.713  0.6595  3.4663 -0.0417
15695TIP3    H268577   5.530   3.164  15.615  1.6952 -3.4365 -1.0229
15696TIP3   OH268578   0.959   2.865  12.796  0.1436 -0.0524 -0.1021
15696TIP3    H168579   0.941   2.925  12.868  1.1828  1.0018 -0.7057
15696TIP3    H268580   0.887   2.881  12.734 -1.6071 -2.0468  1.3371
15697TIP3   OH268581   3.559   3.943  15.833  0.1958 -0.4413 -0.6206
15697TIP3    H168582   3.564   4.020  15.777  1.8801  0.9775  1.3689
15697TIP3    H268583   3.466   3.935  15.855 -0.2868 -0.2446 -2.5287
15698TIP3   OH268584   5.063   5.923  15.607 -0.2086  0.2204  0.2496
15698TIP3    H168585   5.017   6.000  15.573 -0.2753 -0.4204 -1.1390
15698TIP3    H268586   5.156   5.942  15.592 -0.2821 -0.4142 -1.0684
15699TIP3   OH268587   4.057   0.857  12.823  0.3920 -0.1730  0.3917
15699TIP3    H168588   4.091   0.771  12.799  3.1405  0.6820  1.1248
15699TIP3    H268589   4.105   0.919  12.767  1.1865  1.1768  2.5000
15700TIP3   OH268590   5.311   0.341   5.121 -0.0582  0.3283  0.2622
15700TIP3    H168591   5.328   0.389   5.202 -0.6940 -0.1609  0.6922
15700TIP3    H268592   5.283   0.408   5.059 -2.2819  0.3737  1.2530
15701TIP3   OH268593   3.390   6.576   5.618  0.1383 -0.1304  0.4119
15701TIP3    H168594   3.343   6.633   5.557  0.4916  0.0689  0.3201
15701TIP3    H268595   3.324   6.545   5.679 -0.5201 -1.5410 -0.9835
15702TIP3   OH268596   1.705   0.898  13.123  0.4126 -0.9897 -0.2457
15702TIP3    H168597   1.763   0.970  13.144 -0.8007 -0.1800  0.3887
15702TIP3    H268598   1.668   0.920  13.038 -0.5732 -0.4608  0.3157
15703TIP3   OH268599   6.428   0.132   0.177  0.1181  0.6059  0.5918
15703TIP3    H168600   6.509   0.120   0.225 -0.6227 -2.8618  1.0891
15703TIP3    H268601   6.455   0.132   0.085  0.6407 -1.0915  0.7335
15704TIP3   OH268602   3.134   6.816  13.387 -0.2896  0.0484 -0.2220
15704TIP3    H168603   3.121   6.727  13.356  0.5739  0.3410 -1.4676
15704TIP3    H268604   3.200   6.853  13.328  0.3874  1.0642  1.1361
15705TIP3   OH268605   2.882   5.476   3.727  0.0169 -0.8868  0.0992
15705TIP3    H168606   2.804   5.420   3.726 -0.0564 -0.7860  0.0982
15705TIP3    H268607   2.930   5.452   3.648 -0.0621 -0.8810  0.0492
15706TIP3   OH268608   6.342   4.448   4.537  0.1852 -0.4557  0.3177
15706TIP3    H168609   6.381   4.390   4.471 -1.7716 -0.4863 -0.8673
15706TIP3    H268610   6.400   4.442   4.612  2.1592 -0.8937 -1.1971
15707TIP3   OH268611   3.449   5.235   4.632 -0.0909 -0.2585  0.1122
15707TIP3    H168612   3.544   5.229   4.634 -0.0753  0.2223  1.4056
15707TIP3    H268613   3.423   5.230   4.724 -1.1110  2.6885  0.0176
15708TIP3   OH268614   2.550   1.799   1.899  0.1964 -0.1526 -0.0001
15708TIP3    H168615   2.541   1.708   1.928 -1.5843 -0.4132 -1.3193
15708TIP3    H268616   2.641   1.821   1.918 -0.0120 -1.3814  2.6896
15709TIP3   OH268617   2.954   6.804   4.211 -0.0466 -0.1289 -0.2235
15709TIP3    H168618   3.024   6.792   4.276 -0.2184 -2.4578 -0.4307
15709TIP3    H268619   2.875   6.770   4.254 -0.6510  0.6025 -0.7412
15710TIP3   OH268620   1.980   2.730   5.478  0.5582  0.1575  0.5958
15710TIP3    H168621   1.943   2.749   5.391  0.2064 -1.2332  0.4346
15710TIP3    H268622   1.943   2.646   5.502 -0.4806  1.2034  2.7571
15711TIP3   OH268623   1.178   2.670   3.500  0.3596 -0.1735 -0.0729
15711TIP3    H168624   1.187   2.708   3.587  2.8136 -0.0701 -0.3354
15711TIP3    H268625   1.173   2.746   3.441  2.1885 -0.2446 -0.3262
15712TIP3   OH268626   1.001   0.301  15.943 -0.1379 -0.2311  0.2281
15712TIP3    H168627   0.970   0.224  15.992 -0.5407 -1.4875 -1.8824
15712TIP3    H268628   0.922   0.334  15.900  0.0583  1.3176  1.0623
15713TIP3   OH268629   5.704   0.215   5.329 -0.6987  0.1556  0.3960
15713TIP3    H168630   5.779   0.164   5.297  0.0592  0.7244  1.2663
15713TIP3    H268631   5.743   0.284   5.382 -1.7604  1.3145 -0.3138
15714TIP3   OH268632   4.254   6.253  15.712  0.1022  0.5956  0.0176
15714TIP3    H168633   4.314   6.187  15.748  0.5127  1.0787  0.2350
15714TIP3    H268634   4.231   6.220  15.625  1.7580  1.0711 -0.6132
15715TIP3   OH268635   4.727   2.940  15.828  0.8479 -0.3039 -0.2443
15715TIP3    H168636   4.754   2.929  15.919  2.4392  1.2133 -0.4984
15715TIP3    H268637   4.636   2.970  15.834  1.3601  1.1104  0.9267
15716TIP3   OH268638   5.595   1.246   4.691 -0.3982 -0.5147 -0.1741
15716TIP3    H168639   5.665   1.272   4.751 -0.5278  2.5235 -1.2518
15716TIP3    H268640   5.550   1.175   4.737  0.2096  0.9451  2.8293
15717TIP3   OH268641   2.143   3.628   1.728  0.0215 -0.7943 -0.2428
15717TIP3    H168642   2.073   3.637   1.664 -0.9834  0.1294  0.9608
15717TIP3    H268643   2.169   3.718   1.750  0.6381 -1.1041  0.3447
15718TIP3   OH268644   3.393   2.907  15.823  0.1399  0.4032 -0.1688
15718TIP3    H168645   3.478   2.951  15.812  0.6987 -1.0448 -1.9599
15718TIP3    H268646   3.380   2.861  15.740 -1.3475 -1.2089  0.9471
15719TIP3   OH268647   1.961   4.520   1.884 -0.6701 -0.1146  0.1446
15719TIP3    H168648   2.018   4.595   1.865  0.5354 -0.8757  0.6662
15719TIP3    H268649   1.873   4.557   1.888 -0.4568  0.8013 -2.4417
15720TIP3   OH268650   4.495   2.523   2.159  0.0259  0.3508  0.2108
15720TIP3    H168651   4.425   2.539   2.095 -0.8032  0.8042  1.2128
15720TIP3    H268652   4.468   2.444   2.205  0.2161  0.4692  0.5335
15721TIP3   OH268653   3.074   2.560  16.598  0.1361  0.1765  0.1953
15721TIP3    H168654   3.014   2.525  16.532 -1.0345  0.8103  0.9226
15721TIP3    H268655   3.029   2.635  16.636  1.4646  0.7815  0.6223
15722TIP3   OH268656   3.686   1.334  10.654  0.5964 -0.0699  0.5420
15722TIP3    H168657   3.671   1.376  10.569  2.1841 -0.0879  0.2281
15722TIP3    H268658   3.613   1.363  10.708  0.9300  2.0350 -0.0609
15723TIP3   OH268659   6.682   6.261  13.825 -0.5010 -0.0741  0.2506
15723TIP3    H168660   6.662   6.325  13.893 -0.3227 -1.4217  1.6145
15723TIP3    H268661   6.598   6.247  13.780 -0.6753  0.6630  0.3427
15724TIP3   OH268662   4.485   5.295   0.161  0.7133 -0.2969 -0.1459
15724TIP3    H168663   4.521   5.338   0.084 -1.1364 -0.6355 -1.2040
15724TIP3    H268664   4.490   5.361   0.230  1.1349  0.4384 -0.8806
15725TIP3   OH268665   1.874   3.737   0.401 -0.1218 -0.5733  0.5139
15725TIP3    H168666   1.963   3.761   0.428  0.5072 -1.7984 -0.4225
15725TIP3    H268667   1.883   3.650   0.363 -1.1488  0.5584 -2.5088
15726TIP3   OH268668   1.547   4.692  12.944 -0.5910  0.6935 -0.3135
15726TIP3    H168669   1.551   4.610  12.994 -1.3679  0.7460 -0.1657
15726TIP3    H268670   1.587   4.670  12.860 -1.3640 -0.0045 -0.5007
15727TIP3   OH268671   1.589   5.227  15.483 -0.3772  0.1215  0.1967
15727TIP3    H168672   1.644   5.250  15.558 -0.5294  0.7098  0.1343
15727TIP3    H268673   1.612   5.137  15.463  1.2209  0.6244 -0.3665
15728TIP3   OH268674   6.463   0.645  14.499 -0.1143  0.2257  0.0652
15728TIP3    H168675   6.476   0.625  14.406  1.6814 -1.1514  0.5809
15728TIP3    H268676   6.513   0.725  14.514 -0.1320  0.2620 -0.0714
15729TIP3   OH268677   6.462   4.112  16.933  0.5426 -0.5541  0.5155
15729TIP3    H168678   6.494   4.180  16.874  0.5147 -1.1971 -0.2415
15729TIP3    H268679   6.421   4.047  16.876 -0.2552 -0.7589  1.3037
15730TIP3   OH268680   4.651   4.610   0.723 -0.3384 -0.3854 -0.2452
15730TIP3    H168681   4.640   4.569   0.809 -0.8330 -0.6337 -0.4293
15730TIP3    H268682   4.563   4.637   0.698 -0.0159  0.8678 -0.0896
15731TIP3   OH268683   4.565   5.786   2.657  0.2272 -0.1878  0.8201
15731TIP3    H168684   4.471   5.797   2.669  0.0603  0.1329 -0.7624
15731TIP3    H268685   4.597   5.758   2.743 -1.0560  1.3702  1.8425
15732TIP3   OH268686   2.652   2.449   0.947 -0.0615 -0.3717  0.8744
15732TIP3    H168687   2.656   2.386   0.875  1.1437  0.5402  0.1230
15732TIP3    H268688   2.742   2.459   0.976  0.0060  2.2368 -0.1202
15733TIP3   OH268689   2.937   6.643  11.111 -0.9871 -0.4610  0.3065
15733TIP3    H168690   2.992   6.640  11.190  1.4873 -3.3227 -1.4424
15733TIP3    H268691   2.992   6.683  11.044 -2.1292 -0.5241 -0.6942
15734TIP3   OH268692   5.176   1.598  12.287  0.3517 -0.4548 -0.0153
15734TIP3    H168693   5.189   1.577  12.194 -0.2563  1.5086 -0.5679
15734TIP3    H268694   5.260   1.636  12.314  0.9812 -2.2357  0.6158
15735TIP3   OH268695   2.973   0.280   2.805 -0.6359  0.1782  0.4607
15735TIP3    H168696   3.063   0.247   2.801 -0.6500  0.2333 -0.3504
15735TIP3    H268697   2.978   0.357   2.861 -0.0234  0.6628 -0.2454
15736TIP3   OH268698   4.669   0.015  12.129  0.3963 -0.1538  0.0358
15736TIP3    H168699   4.654   0.069  12.051  0.8710 -2.1411 -1.4549
15736TIP3    H268700   4.586  -0.031  12.142 -0.3892  1.7012  1.9797
15737TIP3   OH268701   2.999   2.710   0.630 -0.2422  0.2598 -0.4046
15737TIP3    H168702   3.085   2.705   0.588  0.0877 -0.4459  0.3339
15737TIP3    H268703   2.982   2.803   0.638  1.0316  0.4146  0.6068
15738TIP3   OH268704   0.801   1.612  12.043  0.7243 -0.3638  0.1849
15738TIP3    H168705   0.724   1.586  12.094  0.7041 -0.9234 -0.1243
15738TIP3    H268706   0.872   1.618  12.107  0.5224 -0.2967  0.4004
15739TIP3   OH268707   5.588   5.539   1.970 -0.1485 -0.5903 -0.4145
15739TIP3    H168708   5.556   5.617   1.924 -0.2800 -1.4032 -1.7271
15739TIP3    H268709   5.635   5.490   1.904  0.4969 -1.3153  0.5690
15740TIP3   OH268710   2.642   2.401  12.253  0.1974  0.0711  0.2244
15740TIP3    H168711   2.588   2.376  12.178  1.4064 -0.3774 -0.5191
15740TIP3    H268712   2.580   2.411  12.325 -0.9438  0.1913 -0.7582
15741TIP3   OH268713   2.989   0.696   1.355 -0.0992  0.4809 -0.2409
15741TIP3    H168714   2.989   0.790   1.374  0.6141  0.7385 -1.4857
15741TIP3    H268715   2.980   0.691   1.260 -1.3226 -0.7420 -0.0777
15742TIP3   OH268716   6.754   2.591   0.206 -0.0560 -0.1515 -0.0021
15742TIP3    H168717   6.745   2.623   0.117  1.2900 -1.6141 -0.7093
15742TIP3    H268718   6.827   2.642   0.242  0.1250 -0.3166 -0.1279
15743TIP3   OH268719   1.387   0.971  17.109 -0.4098 -0.3846  0.6275
15743TIP3    H168720   1.308   0.926  17.141  0.1508 -1.4293  0.5695
15743TIP3    H268721   1.459   0.924  17.151  0.3249 -1.4783 -1.7579
15744TIP3   OH268722   2.999   1.435   4.528  0.3101 -0.3554  0.7274
15744TIP3    H168723   3.066   1.367   4.519  0.4710 -0.0659 -0.3026
15744TIP3    H268724   2.944   1.425   4.450  0.5650  0.9469  0.3802
15745TIP3   OH268725   2.948   3.030   1.633 -0.2339 -0.1334 -0.3140
15745TIP3    H168726   2.988   3.117   1.637 -0.5153  0.0510 -1.3217
15745TIP3    H268727   2.887   3.029   1.707 -0.5633  0.6967 -0.5647
15746TIP3   OH268728   1.407   4.892  15.975  0.2579 -0.2764 -0.5082
15746TIP3    H168729   1.361   4.842  16.042  3.0240 -0.4625  1.3283
15746TIP3    H268730   1.400   4.983  16.004  1.2990 -0.3374 -0.0541
15747TIP3   OH268731   0.785   4.303  15.563  0.7364  0.5147 -0.5666
15747TIP3    H168732   0.782   4.207  15.554  1.6196  0.1083  2.8339
15747TIP3    H268733   0.876   4.326  15.542  0.5877  0.5800 -1.1407
15748TIP3   OH268734   4.979   5.627   0.863 -0.2839  0.4062  0.6872
15748TIP3    H168735   4.952   5.680   0.937  0.4434  1.0092  0.5369
15748TIP3    H268736   4.898   5.598   0.822 -0.7068  2.0656  0.3132
15749TIP3   OH268737   5.464   2.105  14.014  0.0079  0.7169  0.1975
15749TIP3    H168738   5.518   2.061  14.080 -0.4239 -0.2486 -0.0819
15749TIP3    H268739   5.509   2.188  13.998  1.3121  0.0140  0.1107
15750TIP3   OH268740   5.391   5.632   4.142  0.1534 -0.1607 -0.3359
15750TIP3    H168741   5.338   5.647   4.063  0.2821  0.4946 -0.2963
15750TIP3    H268742   5.367   5.703   4.201 -2.2321 -2.3174  1.4452
15751TIP3   OH268743   2.622   1.422  13.814 -0.5573 -0.3938  0.1361
15751TIP3    H168744   2.593   1.481  13.884 -1.6563  0.4120 -0.9712
15751TIP3    H268745   2.708   1.457  13.788 -1.4369  1.0735 -0.8811
15752TIP3   OH268746   3.679   2.626  11.415 -0.2999 -0.5562  0.1606
15752TIP3    H168747   3.652   2.536  11.435 -0.6054  0.0075  2.4866
15752TIP3    H268748   3.599   2.678  11.424  0.4643  0.3764  1.9358
15753TIP3   OH268749   1.924   4.058   0.259  0.7599  0.4469 -0.3402
15753TIP3    H168750   2.007   4.088   0.296  1.3336 -0.7903 -0.5992
15753TIP3    H268751   1.873   4.030   0.335  0.8937  0.4737 -0.2400
15754TIP3   OH268752   5.378   1.427  11.634 -0.0199 -0.3838 -0.1910
15754TIP3    H168753   5.437   1.368  11.587 -1.1049 -1.6286 -0.0199
15754TIP3    H268754   5.354   1.379  11.713 -0.6079  0.4493  0.1445
15755TIP3   OH268755   0.187   1.601  13.777  0.1369  0.2922  0.0516
15755TIP3    H168756   0.176   1.597  13.872 -1.4051 -0.4697 -0.1404
15755TIP3    H268757   0.224   1.688  13.760 -2.2318  1.5407  1.1214
15756TIP3   OH268758   0.305   4.534   1.088 -0.2054  0.1209  0.6456
15756TIP3    H168759   0.353   4.451   1.088  2.5033  1.6304  0.2914
15756TIP3    H268760   0.316   4.568   0.999 -0.2457  1.4098  1.1245
15757TIP3   OH268761   0.608   1.230   2.084 -0.2575  0.2194  0.3627
15757TIP3    H168762   0.576   1.283   2.157 -3.3686  1.1180 -1.5306
15757TIP3    H268763   0.692   1.269   2.061 -0.7000  1.8743  1.4647
15758TIP3   OH268764   3.108   0.134   1.379  0.1648 -0.2874 -0.0530
15758TIP3    H168765   3.052   0.147   1.455 -0.2415 -0.4130 -0.3282
15758TIP3    H268766   3.165   0.211   1.378  0.5534 -0.5630  0.6983
15759TIP3   OH268767   6.732   6.797   3.092  0.2421  0.0004  0.0588
15759TIP3    H168768   6.748   6.891   3.088 -0.5862  0.1322 -0.2893
15759TIP3    H268769   6.676   6.785   3.168  1.2273 -0.3518  0.7462
15760TIP3   OH268770   5.063   4.670  15.312  0.4111 -0.1318  0.3754
15760TIP3    H168771   5.123   4.607  15.272 -0.7657 -0.6662 -0.6142
15760TIP3    H268772   5.094   4.755  15.282  0.9570 -0.3709  0.2536
15761TIP3   OH268773   2.177   0.474   2.761 -0.2691 -0.5593 -0.3038
15761TIP3    H168774   2.085   0.478   2.785 -0.4505 -0.8544 -0.9504
15761TIP3    H268775   2.224   0.500   2.841 -0.8591 -1.7957  0.4601
15762TIP3   OH268776   4.186   6.449  16.757 -0.7144  0.4365 -0.2288
15762TIP3    H168777   4.256   6.389  16.786  0.9186  1.7488 -1.3341
15762TIP3    H268778   4.144   6.403  16.684 -1.1461 -0.4409  0.5574
15763TIP3   OH268779   4.856   2.770  14.046 -0.0274  0.1740  0.4971
15763TIP3    H168780   4.912   2.732  14.113  1.2890 -1.9712 -1.6992
15763TIP3    H268781   4.778   2.715  14.045  0.7811 -1.0150 -0.9499
15764TIP3   OH268782   3.018   3.217   5.220  0.1109  0.0632 -0.2450
15764TIP3    H168783   2.999   3.123   5.221  0.8077 -0.0767  0.2843
15764TIP3    H268784   3.038   3.236   5.128 -1.5477  0.0155 -0.6300
15765TIP3   OH268785   4.531   0.662   2.586 -0.2529 -0.0973 -0.6725
15765TIP3    H168786   4.561   0.695   2.670  0.3951 -1.7582 -0.2239
15765TIP3    H268787   4.475   0.731   2.551 -0.4560  0.6422  1.0705
15766TIP3   OH268788   4.042   6.576  16.432  0.5795  0.4783 -0.3222
15766TIP3    H168789   3.970   6.538  16.482  0.4188 -0.0002 -0.9155
15766TIP3    H268790   4.053   6.664  16.468  0.9047 -0.0951  1.0091
15767TIP3   OH268791   1.171   6.289  13.543 -0.2983 -0.0327  0.8322
15767TIP3    H168792   1.149   6.288  13.636 -1.8975  0.1660  0.4584
15767TIP3    H268793   1.147   6.376  13.513 -0.0467 -0.1880  0.1691
15768TIP3   OH268794   0.241   5.267  11.984  0.0805  0.0578  0.3515
15768TIP3    H168795   0.326   5.309  11.976 -0.3351  0.6334 -1.2820
15768TIP3    H268796   0.236   5.210  11.907  0.1277 -2.0767  1.8854
15769TIP3   OH268797   4.093   2.640  12.149  0.5137  0.2653  0.0535
15769TIP3    H168798   4.060   2.653  12.060  0.8858  1.3502  0.0664
15769TIP3    H268799   4.021   2.595  12.195 -0.4192  1.4081 -0.2753
15770TIP3   OH268800   3.248   0.632   1.144  0.0013 -0.2638  0.3991
15770TIP3    H168801   3.173   0.669   1.098 -0.7704 -1.5317  0.5924
15770TIP3    H268802   3.324   0.660   1.093 -0.6521  0.4654 -0.1908
15771TIP3   OH268803   2.959   6.111  12.559  0.0160 -0.4514 -0.3550
15771TIP3    H168804   3.002   6.098  12.475  1.3159 -1.4824  0.4505
15771TIP3    H268805   2.982   6.034  12.610 -2.6091 -0.9272  0.1987
15772TIP3   OH268806   2.580   2.225   1.829 -0.2461  0.5745  0.4917
15772TIP3    H168807   2.597   2.317   1.849 -1.2278  1.0535 -0.7847
15772TIP3    H268808   2.629   2.176   1.895  1.1543  2.0004  0.5303
15773TIP3   OH268809   3.473   5.450   5.264  0.1780  0.3071 -0.0151
15773TIP3    H168810   3.413   5.526   5.262 -0.6655 -0.3886 -1.8001
15773TIP3    H268811   3.486   5.427   5.173  1.0286 -1.2525  0.4826
15774TIP3   OH268812   5.686   1.299   2.952 -0.1395  0.4306 -0.4925
15774TIP3    H168813   5.640   1.216   2.936  0.6591  0.0726 -0.9711
15774TIP3    H268814   5.736   1.282   3.032  0.8791  0.0771 -1.1937
15775TIP3   OH268815   0.027   1.429   2.482  0.2365 -0.3066 -0.2589
15775TIP3    H168816   0.107   1.481   2.474  1.4393 -2.1200 -0.1642
15775TIP3    H268817   0.018   1.384   2.398 -0.3651 -0.5566 -0.0629
15776TIP3   OH268818   4.157   6.124  14.568  0.8760  0.2520  0.3714
15776TIP3    H168819   4.124   6.043  14.608 -1.2441 -0.1524 -2.0495
15776TIP3    H268820   4.107   6.194  14.609 -1.0604 -0.1310 -1.2894
15777TIP3   OH268821   6.017   0.481   0.484 -0.2647 -0.2264 -0.4156
15777TIP3    H168822   5.947   0.416   0.479 -0.4875 -0.0411  0.2375
15777TIP3    H268823   6.019   0.521   0.397 -1.2929  0.0962 -0.3016
15778TIP3   OH268824   2.728   5.044   4.868  0.4035  0.2027  0.6189
15778TIP3    H168825   2.755   5.110   4.804 -0.3775  0.0076  0.0726
15778TIP3    H268826   2.664   5.089   4.923 -0.5262 -0.2337 -0.0826
15779TIP3   OH268827   0.904   5.433   3.300  0.5555 -0.1067 -0.2950
15779TIP3    H168828   0.836   5.500   3.302  0.0663 -0.5798 -0.9375
15779TIP3    H268829   0.984   5.482   3.281  0.8279  0.7820  2.8610
15780TIP3   OH268830   1.262   6.145   3.813 -0.3923  0.0744  0.1403
15780TIP3    H168831   1.354   6.123   3.831 -0.5692 -2.0366 -1.4570
15780TIP3    H268832   1.213   6.066   3.837 -1.6251  0.6188 -0.5737
15781TIP3   OH268833   0.921   3.732   3.643  0.3946 -0.4837  0.1557
15781TIP3    H168834   0.862   3.785   3.697  0.3631 -0.1033 -0.2435
15781TIP3    H268835   0.886   3.741   3.554  1.5426  0.4135 -0.2111
15782TIP3   OH268836   2.479   0.435  15.623  0.2102  0.3793 -0.3406
15782TIP3    H168837   2.457   0.490  15.548 -1.3586  2.3226  1.4834
15782TIP3    H268838   2.469   0.346  15.591 -2.8202  1.1892 -1.7900
15783TIP3   OH268839   4.926   3.722   2.475 -0.8792 -0.3429  0.3081
15783TIP3    H168840   4.890   3.716   2.564 -0.2124 -1.1241  0.5365
15783TIP3    H268841   4.936   3.631   2.447 -0.4708 -0.1107 -0.3181
15784TIP3   OH268842   4.021   6.515  14.582  0.7152 -0.3569 -0.2753
15784TIP3    H168843   4.064   6.557  14.508  2.1823 -1.3300  0.0154
15784TIP3    H268844   4.068   6.546  14.659  0.5606 -1.0053  0.0872
15785TIP3   OH268845   4.590   4.025  15.049 -0.2550  0.0168 -0.1152
15785TIP3    H168846   4.594   4.038  15.144 -0.8744  1.7702 -0.3131
15785TIP3    H268847   4.507   3.980  15.035 -0.9666  1.2706  0.0254
15786TIP3   OH268848   1.017   2.491   2.849 -0.3288 -0.7723  0.7301
15786TIP3    H168849   0.939   2.470   2.901 -0.4983 -0.4862  0.5937
15786TIP3    H268850   0.982   2.518   2.765 -0.0311 -1.7345  0.2900
15787TIP3   OH268851   1.388   2.452  11.731 -0.2443 -0.1127 -0.0517
15787TIP3    H168852   1.360   2.462  11.822 -1.1596 -0.6019 -0.2718
15787TIP3    H268853   1.341   2.522  11.685  2.2739  1.8545  0.2652
15788TIP3   OH268854   3.541   0.442   0.424 -0.0678 -0.0567  0.1419
15788TIP3    H168855   3.517   0.485   0.506 -0.8308  4.0181 -2.0676
15788TIP3    H268856   3.462   0.393   0.400 -1.8127  2.9919 -0.6946
15789TIP3   OH268857   4.305   3.620   6.074  0.2722  0.3326  0.1724
15789TIP3    H168858   4.236   3.678   6.042  0.4923  2.1276  2.7994
15789TIP3    H268859   4.259   3.548   6.117  0.0081  0.4621  0.1035
15790TIP3   OH268860   5.413   3.239  14.424 -0.1329 -0.2955  0.0332
15790TIP3    H168861   5.345   3.180  14.456 -1.8477  0.6067 -1.8452
15790TIP3    H268862   5.464   3.186  14.362  0.0202 -0.5602  0.3817
15791TIP3   OH268863   4.696   2.239  11.889  0.5084  0.0245  0.2892
15791TIP3    H168864   4.771   2.296  11.874  1.3211 -1.1533 -0.1770
15791TIP3    H268865   4.672   2.208  11.802  0.0064 -0.2850  0.5338
15792TIP3   OH268866   2.273   1.069  14.000  0.3428 -0.0185  0.0412
15792TIP3    H168867   2.347   1.118  13.965  1.2253 -0.5041  1.1881
15792TIP3    H268868   2.223   1.042  13.923  1.3860  0.2574 -0.7425
15793TIP3   OH268869   6.737   6.270  16.202  0.4647 -0.4809  0.3458
15793TIP3    H168870   6.724   6.270  16.297  1.9798  0.3240  0.5694
15793TIP3    H268871   6.713   6.181  16.175 -2.1131 -0.0906  1.1454
15794TIP3   OH268872   1.066   2.846  11.475 -0.3589 -0.2377 -0.3112
15794TIP3    H168873   1.025   2.775  11.523  1.3176 -1.2039 -0.2563
15794TIP3    H268874   1.021   2.848  11.391 -1.8000 -0.0032  0.4515
15795TIP3   OH268875   1.573   0.691   2.547 -0.3811 -0.3330 -0.4236
15795TIP3    H168876   1.482   0.666   2.530  0.0630 -2.7159  0.5410
15795TIP3    H268877   1.625   0.637   2.488  0.4159  1.3139 -1.2722
15796TIP3   OH268878   6.537   3.968   4.843 -0.4811 -0.5935  0.0800
15796TIP3    H168879   6.478   3.982   4.917 -0.6044  1.9150 -0.4628
15796TIP3    H268880   6.624   3.961   4.883 -0.4867  1.2194  0.4259
15797TIP3   OH268881   2.530   1.544   1.989  0.4148 -0.6158  0.4136
15797TIP3    H168882   2.526   1.479   1.919  1.9645 -1.5067  1.1445
15797TIP3    H268883   2.523   1.493   2.070 -0.1763  0.2984  0.9478
15798TIP3   OH268884   5.492   6.704  16.037  0.2265 -0.0113  0.3196
15798TIP3    H168885   5.437   6.737  16.108 -0.6424 -2.2932  0.7674
15798TIP3    H268886   5.568   6.665  16.081  0.5399  0.1195 -0.1023
15799TIP3   OH268887   0.175   6.100   4.867  0.5408  0.7167  0.2454
15799TIP3    H168888   0.151   6.098   4.959 -1.0423  0.7057 -0.1382
15799TIP3    H268889   0.152   6.189   4.838  0.3355  0.4918 -0.3010
15800TIP3   OH268890   4.578   4.872  16.456  0.0282 -1.0177  0.6657
15800TIP3    H168891   4.513   4.851  16.389  1.1465  0.4755 -0.9294
15800TIP3    H268892   4.644   4.923  16.410  1.6965 -1.4300  2.5464
15801TIP3   OH268893   1.076   5.410   0.464 -0.4449 -0.2413  0.5200
15801TIP3    H168894   1.142   5.403   0.532  1.0727  2.1291 -0.6322
15801TIP3    H268895   0.995   5.379   0.505  0.7832 -0.4551  2.8510
15802TIP3   OH268896   3.357   3.625   2.021 -0.0738  0.1333  0.3069
15802TIP3    H168897   3.312   3.626   2.106  0.3693 -2.1850  0.5968
15802TIP3    H268898   3.448   3.650   2.042 -0.8721  3.7581 -0.1328
15803TIP3   OH268899   1.047   5.561  14.303 -0.1114  0.5293  0.0436
15803TIP3    H168900   1.075   5.589  14.216 -0.8405 -0.3724 -0.4904
15803TIP3    H268901   1.014   5.641  14.344 -0.4754  0.8140 -0.7882
15804TIP3   OH268902   4.211   3.247   5.238  0.3090  0.3816 -0.4229
15804TIP3    H168903   4.146   3.193   5.284  1.9608  1.7436  3.7930
15804TIP3    H268904   4.216   3.210   5.150 -4.7342 -0.9597 -0.2749
15805TIP3   OH268905   2.081   3.292   4.902 -0.8589  0.1314 -0.2107
15805TIP3    H168906   2.047   3.375   4.869  1.6769  1.3763  0.2244
15805TIP3    H268907   2.105   3.244   4.823  1.0706  1.3267 -0.3928
15806TIP3   OH268908   0.554   3.269   3.468  0.2122 -0.1810  0.2192
15806TIP3    H168909   0.603   3.196   3.506  0.3423 -0.2038  0.0076
15806TIP3    H268910   0.466   3.234   3.455  0.1648 -0.1690  0.5129
15807TIP3   OH268911   4.806   6.163   3.963 -0.1855  0.0957  0.8473
15807TIP3    H168912   4.813   6.245   3.914  0.7910  0.1691  1.0915
15807TIP3    H268913   4.888   6.117   3.944 -1.0558 -1.1861  0.0699
15808TIP3   OH268914   4.918   0.865   5.583  0.5777  0.3364 -0.2422
15808TIP3    H168915   4.875   0.950   5.574 -2.0233 -1.0949 -2.0114
15808TIP3    H268916   4.863   0.817   5.645  0.6085 -0.9216 -1.1789
15809TIP3   OH268917   0.423   1.080  13.018 -0.6163  0.1587 -0.1086
15809TIP3    H168918   0.357   1.061  12.952 -0.1558  0.3594 -0.6298
15809TIP3    H268919   0.383   1.145  13.075 -0.5111  0.9850 -0.9768
15810TIP3   OH268920   5.298   5.699  11.298 -0.3595 -0.4268 -0.2025
15810TIP3    H168921   5.249   5.628  11.256  0.3583 -0.9325 -0.1940
15810TIP3    H268922   5.275   5.777  11.247 -1.2485 -0.6399 -0.1364
15811TIP3   OH268923   6.804   1.103  12.887 -0.1259  0.3307  0.2454
15811TIP3    H168924   6.769   1.035  12.944  0.3436 -1.0652 -1.0965
15811TIP3    H268925   6.753   1.181  12.909 -0.6205 -0.4239  1.8633
15812TIP3   OH268926   0.312   3.968   2.809 -0.5330  0.6916  0.1390
15812TIP3    H168927   0.391   4.000   2.764  0.0282 -1.3795 -0.3778
15812TIP3    H268928   0.243   3.973   2.743 -0.5199  1.1087  0.1536
15813TIP3   OH268929   5.444   0.532   0.997 -0.1970 -0.5057 -0.3043
15813TIP3    H168930   5.444   0.501   1.087 -1.3161  0.8667  0.1925
15813TIP3    H268931   5.365   0.494   0.958 -0.9035  0.6911 -0.0538
15814TIP3   OH268932   2.775   3.569   3.234  0.1075 -0.3341  0.4315
15814TIP3    H168933   2.776   3.520   3.316  1.3824 -0.5130  0.3282
15814TIP3    H268934   2.787   3.660   3.260  0.3270 -0.3713  0.4665
15815TIP3   OH268935   0.808   3.907  14.848  0.2037 -0.1691  0.3617
15815TIP3    H168936   0.879   3.934  14.790 -0.7275  1.2617 -0.1216
15815TIP3    H268937   0.788   3.984  14.901 -0.7862 -0.6456  0.7099
15816TIP3   OH268938   5.395   0.661  14.320 -0.0867  0.1381  0.0291
15816TIP3    H168939   5.400   0.601  14.394 -0.4888 -0.1481 -0.1781
15816TIP3    H268940   5.458   0.626  14.256 -0.4604 -0.1716 -0.1708
15817TIP3   OH268941   2.990   3.662   0.047 -0.1522 -0.6565  0.1697
15817TIP3    H168942   2.973   3.710  -0.034  0.5148  0.3531  0.6118
15817TIP3    H268943   2.908   3.618   0.067 -0.7447  0.2271 -0.3073
15818TIP3   OH268944   3.018   3.710   4.746  0.8855 -0.2080  0.2988
15818TIP3    H168945   3.073   3.683   4.674  0.8312 -1.3959  0.6909
15818TIP3    H268946   2.929   3.684   4.720  1.1715 -2.8185  1.7994
15819TIP3   OH268947   5.702   5.256  15.807  0.4629 -0.1225 -0.1086
15819TIP3    H168948   5.728   5.343  15.838  0.5147 -0.0864 -0.2531
15819TIP3    H268949   5.782   5.204  15.815  1.2083  0.5498 -2.6351
15820TIP3   OH268950   6.501   1.993   0.503 -0.7484 -0.4864  0.5950
15820TIP3    H168951   6.579   1.938   0.499  0.0956  0.7381 -0.3350
15820TIP3    H268952   6.433   1.943   0.458 -0.6262 -1.7364  1.7637
15821TIP3   OH268953   3.328   4.791  12.890  0.5489 -0.4658  0.2255
15821TIP3    H168954   3.315   4.882  12.865  1.0308  0.2126  2.3511
15821TIP3    H268955   3.276   4.741  12.827 -2.3438  1.4698  0.9817
15822TIP3   OH268956   4.127   4.146   5.827 -0.0509 -0.0204  0.3607
15822TIP3    H168957   4.106   4.094   5.904 -0.0905 -0.7327 -0.1310
15822TIP3    H268958   4.088   4.098   5.754  0.5422  0.3129 -0.1792
15823TIP3   OH268959   4.034   0.439   3.532 -0.2373  0.5496  0.5144
15823TIP3    H168960   4.053   0.350   3.561 -1.4653 -0.4217 -1.5476
15823TIP3    H268961   3.985   0.478   3.604 -0.3276 -0.7013  1.1362
15824TIP3   OH268962   6.686   4.819   5.142  0.5153 -0.7262 -0.3631
15824TIP3    H168963   6.642   4.858   5.218 -0.6394  1.3645 -2.0661
15824TIP3    H268964   6.746   4.754   5.180  1.3614  1.6052  2.4540
15825TIP3   OH268965   4.352   2.400  12.120  0.3329 -0.1256 -0.2744
15825TIP3    H168966   4.398   2.479  12.092  1.6064 -0.4065  0.9505
15825TIP3    H268967   4.422   2.341  12.150 -0.7150 -1.1121  0.2676
15826TIP3   OH268968   1.760   2.188   0.405 -0.6654  0.3340 -0.1675
15826TIP3    H168969   1.736   2.277   0.378 -0.7793  0.3099 -0.1474
15826TIP3    H268970   1.678   2.139   0.400 -0.2144 -0.2473 -2.0576
15827TIP3   OH268971   5.734   0.287   6.328  0.0198 -0.1670 -0.3797
15827TIP3    H168972   5.732   0.292   6.424  0.8084 -0.0150 -0.3682
15827TIP3    H268973   5.762   0.374   6.301 -1.9631  0.3490 -0.8249
15828TIP3   OH268974   2.082   1.444  17.101 -0.0683  0.4516 -0.2532
15828TIP3    H168975   2.011   1.508  17.095 -0.9126 -0.3765  0.6088
15828TIP3    H268976   2.084   1.419  17.194  1.3901  0.4938 -0.2523
15829TIP3   OH268977   6.581   1.721  16.270 -0.2396  0.2505 -0.3582
15829TIP3    H168978   6.646   1.791  16.259  0.9247 -0.7888 -0.2710
15829TIP3    H268979   6.499   1.767  16.286  0.7605  1.5854  1.0897
15830TIP3   OH268980   0.977   2.323   1.004 -0.2019 -0.0620  0.3992
15830TIP3    H168981   1.039   2.386   1.041 -1.8315  1.3689  0.7171
15830TIP3    H268982   0.996   2.323   0.910 -0.9489  1.7341  0.2457
15831TIP3   OH268983   2.694   3.964   4.840  0.5917  0.0805  0.6193
15831TIP3    H168984   2.630   3.943   4.772  1.8195 -1.9636  0.0729
15831TIP3    H268985   2.704   4.059   4.833 -0.1899  0.0587 -1.2584
15832TIP3   OH268986   0.132   5.101  13.630  0.5817  0.2471  0.4033
15832TIP3    H168987   0.177   5.174  13.674  0.4433 -0.0554  1.0362
15832TIP3    H268988   0.071   5.067  13.695 -0.0495  0.1814 -0.2158
15833TIP3   OH268989   5.791   3.173   1.615  0.1932  0.0268 -0.6704
15833TIP3    H168990   5.731   3.177   1.540 -0.0546 -3.2918 -0.7169
15833TIP3    H268991   5.779   3.085   1.650 -0.2026  1.7028  3.7148
15834TIP3   OH268992   0.259   5.259   0.401  0.5747  0.7952 -0.0585
15834TIP3    H168993   0.251   5.289   0.491  1.1699 -0.0648  0.2899
15834TIP3    H268994   0.169   5.246   0.372  0.3954  0.6934  0.5389
15835TIP3   OH268995   1.902   4.424  12.655 -0.4124  0.0176  0.1097
15835TIP3    H168996   1.934   4.345  12.698  1.4083 -0.1002 -1.4181
15835TIP3    H268997   1.884   4.397  12.565 -2.4875  0.6911  0.2901
15836TIP3   OH268998   3.869   0.868   5.146 -0.2297 -0.7724 -0.1270
15836TIP3    H168999   3.891   0.776   5.159  2.0764  0.0286  1.9784
15836TIP3    H269000   3.876   0.881   5.051  1.4218 -2.3098 -0.2500
15837TIP3   OH269001   3.178   6.789  15.605 -0.4794 -0.0259  0.3164
15837TIP3    H169002   3.138   6.833  15.681  0.3592 -0.3903  0.9800
15837TIP3    H269003   3.269   6.819  15.606  0.3448 -2.4735  1.3100
15838TIP3   OH269004   0.443   0.220  11.403  0.1673  0.1083 -0.1874
15838TIP3    H169005   0.446   0.212  11.498  0.0414 -2.2735 -0.3675
15838TIP3    H269006   0.529   0.253  11.379 -0.3276  2.3166  0.8415
15839TIP3   OH269007   2.763   6.253   2.763 -0.1070  0.4264 -0.1211
15839TIP3    H169008   2.710   6.320   2.720  0.2764  0.2272 -0.9139
15839TIP3    H269009   2.709   6.175   2.763  0.4853  0.0023 -1.6642
15840TIP3   OH269010   5.901   2.004   5.608 -0.3241 -0.3354  0.0679
15840TIP3    H169011   5.813   1.978   5.636 -0.8252 -0.8147 -1.8803
15840TIP3    H269012   5.959   1.936   5.642 -1.1796 -2.0655 -1.8475
15841TIP3   OH269013   0.057   5.308  15.204 -0.2818  0.6530 -0.1742
15841TIP3    H169014   0.038   5.215  15.189  2.0034  0.3516 -1.5636
15841TIP3    H269015   0.013   5.329  15.286 -1.0287 -1.6119  0.0387
15842TIP3   OH269016   4.334   4.602   0.463 -0.5005  0.2652 -0.3851
15842TIP3    H169017   4.348   4.612   0.557 -1.0160 -0.6253 -0.2137
15842TIP3    H269018   4.253   4.650   0.445 -0.0610  0.9778 -0.4895
15843TIP3   OH269019   1.025   2.935   6.537  0.8477 -0.1746 -0.0384
15843TIP3    H169020   0.976   2.940   6.455 -1.1818 -1.7708  1.0260
15843TIP3    H269021   1.091   2.867   6.522 -1.7638 -2.9815  0.7199
15844TIP3   OH269022   2.431   0.773  14.461  0.1217 -0.1456 -0.1512
15844TIP3    H169023   2.386   0.716  14.524  0.7801  0.1793  0.6283
15844TIP3    H269024   2.362   0.829  14.426 -0.4405 -1.0598 -0.5253
15845TIP3   OH269025   4.950   1.476  14.433  0.1283  0.0381 -0.3352
15845TIP3    H169026   4.995   1.393  14.414  1.1868  0.4454  0.3704
15845TIP3    H269027   4.860   1.450  14.454  0.7185 -1.0429  0.9197
15846TIP3   OH269028   3.746   1.765   2.890 -0.4688 -0.2806  0.2445
15846TIP3    H169029   3.833   1.740   2.860  0.4244  0.6132  2.0056
15846TIP3    H269030   3.727   1.706   2.963 -0.3122  1.0652  1.4002
15847TIP3   OH269031   6.018   6.011   0.600  0.3054 -0.3383 -0.8255
15847TIP3    H169032   5.946   6.074   0.596 -0.1707 -0.8653 -0.6093
15847TIP3    H269033   6.097   6.065   0.612 -0.1426  0.1898 -0.2451
15848TIP3   OH269034   5.187   1.208  12.710 -0.8221 -0.5118 -0.2808
15848TIP3    H169035   5.193   1.160  12.628  1.6828 -0.3878 -0.1994
15848TIP3    H269036   5.277   1.231  12.732 -1.6060  0.9440  1.6295
15849TIP3   OH269037   3.069   1.753   5.507 -0.4214  0.5863 -0.2443
15849TIP3    H169038   2.999   1.709   5.458  0.3245 -0.1641 -0.6587
15849TIP3    H269039   3.131   1.683   5.527  0.0578  1.1883  0.3935
15850TIP3   OH269040   6.061   2.465   0.029 -0.8222 -0.1403  0.7742
15850TIP3    H169041   6.148   2.496   0.002 -1.4363 -0.0534 -1.1626
15850TIP3    H269042   6.077   2.378   0.065  0.0713 -0.1047  0.4949
15851TIP3   OH269043   5.845   3.415  11.213 -0.0294 -0.2216  0.1550
15851TIP3    H169044   5.886   3.479  11.154  1.9652 -1.3173  0.2963
15851TIP3    H269045   5.752   3.416  11.190  0.4233  0.7916 -1.6718
15852TIP3   OH269046   4.537   6.083  12.649  0.1187 -0.3928 -0.4379
15852TIP3    H169047   4.480   6.158  12.631  0.0687 -0.2763  0.1650
15852TIP3    H269048   4.478   6.012  12.672  0.2419  0.2768  2.1912
15853TIP3   OH269049   2.886   1.410   5.936  0.2347  0.1004 -0.1675
15853TIP3    H169050   2.809   1.465   5.952 -1.8026 -2.2990 -1.3594
15853TIP3    H269051   2.887   1.398   5.841  1.3867 -0.8653 -0.0312
15854TIP3   OH269052   1.015   0.194   3.102 -0.0989 -0.3213  1.1226
15854TIP3    H169053   0.968   0.116   3.130 -1.3459  0.0825  0.1802
15854TIP3    H269054   0.993   0.260   3.167 -1.5268  0.1011  0.2314
15855TIP3   OH269055   4.326   2.853   5.880  0.3030  0.2961  0.1046
15855TIP3    H169056   4.295   2.925   5.825 -0.4160 -1.3454 -1.7095
15855TIP3    H269057   4.311   2.883   5.969 -1.3546  1.7968 -0.6362
15856TIP3   OH269058   1.130   1.057  11.801  0.7025 -0.0272 -0.2431
15856TIP3    H169059   1.110   1.098  11.886 -1.6212  1.1139 -1.2926
15856TIP3    H269060   1.214   1.095  11.775  1.7270 -0.8202  1.7917
15857TIP3   OH269061   3.043   6.126   4.345 -0.0165 -0.2023 -0.3917
15857TIP3    H169062   2.997   6.046   4.373 -1.5017 -0.0135 -2.1812
15857TIP3    H269063   2.995   6.154   4.267  1.2665  1.7613 -0.4837
15858TIP3   OH269064   3.192   3.055  11.818 -0.4952 -0.1060  0.0619
15858TIP3    H169065   3.244   3.116  11.766  1.3084 -1.1731  0.5632
15858TIP3    H269066   3.128   3.019  11.757 -0.0230  0.5164 -0.8023
15859TIP3   OH269067   0.239   3.755  14.450 -0.3306  0.4548  0.0853
15859TIP3    H169068   0.308   3.751  14.384 -0.2980 -0.2569  0.1567
15859TIP3    H269069   0.271   3.700  14.521 -1.5500 -0.9246 -0.4266
15860TIP3   OH269070   4.550   6.818   0.410 -0.7822  0.3434  0.2648
15860TIP3    H169071   4.614   6.874   0.452  0.0162  1.4659 -2.3138
15860TIP3    H269072   4.601   6.749   0.368 -1.6941 -1.8914  2.6479
15861TIP3   OH269073   2.494   5.076  12.567 -0.1329  0.1814 -0.4423
15861TIP3    H169074   2.512   5.040  12.653 -0.1252  0.3993 -0.3513
15861TIP3    H269075   2.400   5.096  12.568  0.0822  1.2055 -0.0956
15862TIP3   OH269076   2.400   4.809  16.876  0.0985  0.6124 -0.5299
15862TIP3    H169077   2.309   4.838  16.869  0.1036  0.5846 -0.7080
15862TIP3    H269078   2.430   4.800  16.786  0.6194  1.6769 -0.4635
15863TIP3   OH269079   4.826   6.420   2.758 -0.9064  0.4717  0.0772
15863TIP3    H169080   4.826   6.481   2.684 -0.7524  2.2306  1.4861
15863TIP3    H269081   4.744   6.439   2.804 -1.5510 -1.4034 -0.2503
15864TIP3   OH269082   4.114   1.510  16.235  0.3684  0.0209  0.2197
15864TIP3    H169083   4.077   1.431  16.196  1.5501 -0.4989  0.1299
15864TIP3    H269084   4.155   1.479  16.316  0.5704  0.5875  0.3309
15865TIP3   OH269085   4.583   6.376  11.915  0.1641  0.0875  0.5917
15865TIP3    H169086   4.646   6.322  11.962  1.1038  1.7349  1.2664
15865TIP3    H269087   4.637   6.439  11.867 -0.8730 -0.1584 -0.9234
15866TIP3   OH269088   4.111   3.330   0.781 -0.3533  0.0870  0.2333
15866TIP3    H169089   4.060   3.312   0.702  0.8528  1.3818 -0.8851
15866TIP3    H269090   4.104   3.425   0.792 -0.6652 -0.1093  1.8091
15867TIP3   OH269091   1.327   2.543  16.436 -0.3069 -0.1633  0.2374
15867TIP3    H169092   1.395   2.552  16.503 -2.0035  1.1776  1.8244
15867TIP3    H269093   1.318   2.630  16.399 -0.4160 -0.5856 -0.7535
15868TIP3   OH269094   3.634   5.009   0.294 -1.1438 -0.4180  1.0069
15868TIP3    H169095   3.647   5.064   0.217  1.6829 -0.8516  1.1277
15868TIP3    H269096   3.611   5.070   0.364 -0.8123  0.3114  0.4798
15869TIP3   OH269097   4.871   0.597  16.565 -0.1864 -0.1105  0.9380
15869TIP3    H169098   4.797   0.634  16.613 -1.1640  0.2839 -0.8223
15869TIP3    H269099   4.839   0.513  16.532  0.1749  0.0471  0.1885
15870TIP3   OH269100   1.023   5.520   1.968  0.2003 -0.3349  0.2029
15870TIP3    H169101   1.077   5.592   1.998 -0.3135  0.3165 -0.4136
15870TIP3    H269102   0.955   5.510   2.035 -0.2943  0.3866 -0.1890
15871TIP3   OH269103   4.400   4.702   4.354  0.3783  0.0328  0.6528
15871TIP3    H169104   4.318   4.729   4.312  1.6316  1.1573 -1.1437
15871TIP3    H269105   4.413   4.766   4.424 -1.3915 -1.4687  2.4193
15872TIP3   OH269106   6.521   3.389   6.123  0.1552 -0.1730 -0.0265
15872TIP3    H169107   6.591   3.334   6.157  1.1540 -0.1717 -1.9799
15872TIP3    H269108   6.458   3.326   6.085  0.3441 -0.0712 -0.5174
15873TIP3   OH269109   4.133   4.668   2.668  0.0134  0.2431 -0.4918
15873TIP3    H169110   4.139   4.594   2.608 -0.7376 -0.5855  0.4483
15873TIP3    H269111   4.102   4.741   2.614  0.7773 -0.1135 -1.4222
15874TIP3   OH269112   6.134   4.905   4.602 -0.0414 -0.1151 -0.6403
15874TIP3    H169113   6.144   4.928   4.509  0.7480  1.5733 -0.1685
15874TIP3    H269114   6.220   4.870   4.627  0.4011  1.3054 -0.0759
15875TIP3   OH269115   1.283   1.696   1.583  0.2516 -0.8255  0.3250
15875TIP3    H169116   1.220   1.682   1.512 -0.0660 -0.0403  0.4567
15875TIP3    H269117   1.280   1.615   1.634  0.8437 -1.5990 -0.8364
15876TIP3   OH269118   2.886   4.097   0.413 -0.4950 -0.2876  0.6074
15876TIP3    H169119   2.849   4.184   0.427  1.8781  0.6209  1.3629
15876TIP3    H269120   2.980   4.111   0.409  0.0065 -3.0099  2.1377
15877TIP3   OH269121   1.776   2.009   2.072  0.2829  0.2492  0.4950
15877TIP3    H169122   1.831   1.998   1.994  1.5596  0.1130  1.4000
15877TIP3    H269123   1.733   1.924   2.082  0.6005  0.0625  0.3047
15878TIP3   OH269124   3.294   3.869   4.523 -0.3851 -0.2935  0.2409
15878TIP3    H169125   3.321   3.947   4.572  3.7776 -0.9463 -0.8848
15878TIP3    H269126   3.213   3.895   4.480  0.5063  3.1608  0.5073
15879TIP3   OH269127   0.272   0.461  16.949 -0.4806 -0.7878 -0.1463
15879TIP3    H169128   0.269   0.430  17.040 -0.4843 -1.6790 -0.4508
15879TIP3    H269129   0.209   0.533  16.946 -1.2711 -1.4517  0.2979
15880TIP3   OH269130   6.721   0.335  15.554  0.0398 -0.3205  0.1211
15880TIP3    H169131   6.801   0.387  15.558 -0.2975  0.2227 -0.1321
15880TIP3    H269132   6.708   0.302  15.643  0.9713 -1.0620 -0.0083
15881TIP3   OH269133   0.701   2.604  12.034 -0.8078 -0.0535 -0.0961
15881TIP3    H169134   0.759   2.679  12.021 -0.4738 -0.2779  0.0945
15881TIP3    H269135   0.659   2.620  12.118 -3.6317  1.8386 -1.8150
15882TIP3   OH269136   2.882   1.405  17.114  0.6439 -0.1526 -0.2558
15882TIP3    H169137   2.897   1.365  17.200  1.4660  1.2452  0.2570
15882TIP3    H269138   2.893   1.332  17.052 -0.3307 -1.2509  0.8261
15883TIP3   OH269139   3.140   1.885   4.803  0.2020  0.5803 -1.4680
15883TIP3    H169140   3.202   1.864   4.734  0.3200  0.7437 -1.4133
15883TIP3    H269141   3.129   1.980   4.797  0.1501  0.5840 -1.3166
15884TIP3   OH269142   4.832   4.410   0.782 -0.1246 -0.4751  0.3350
15884TIP3    H169143   4.783   4.471   0.728 -1.5195 -0.4868  1.5739
15884TIP3    H269144   4.848   4.457   0.864  0.5577 -1.0432  0.5382
15885TIP3   OH269145   0.216   3.640  15.181 -0.0521  0.9204 -0.2782
15885TIP3    H169146   0.231   3.624  15.088  1.6940  0.0915  0.1235
15885TIP3    H269147   0.121   3.634  15.191 -0.0884 -1.5439 -1.5819
15886TIP3   OH269148   1.063   5.856   0.610  0.8200 -0.5695 -0.1965
15886TIP3    H169149   1.080   5.774   0.656 -2.8581  0.1414  2.7305
15886TIP3    H269150   0.989   5.836   0.552  0.1572  0.5245  0.2409
15887TIP3   OH269151   4.136   1.535  15.135 -0.3225 -0.0339  0.0916
15887TIP3    H169152   4.078   1.459  15.136  0.5926 -0.7912 -1.6197
15887TIP3    H269153   4.224   1.498  15.147  0.0607  0.8140 -0.0837
15888TIP3   OH269154   5.028   2.658   3.222  0.0844 -0.0110 -0.3024
15888TIP3    H169155   4.975   2.585   3.190 -1.0961  1.4655 -1.8451
15888TIP3    H269156   5.069   2.694   3.144  2.8565 -0.6790  0.7880
15889TIP3   OH269157   5.750   0.280   5.713 -0.7093 -0.1692  0.0139
15889TIP3    H169158   5.665   0.241   5.693  0.5436 -1.9761 -2.0058
15889TIP3    H269159   5.811   0.206   5.712  1.0947  1.2811  0.1065
15890TIP3   OH269160   4.450   5.587  16.416  0.0186 -0.4936 -0.1733
15890TIP3    H169161   4.368   5.596  16.465 -0.2285 -0.5449 -0.5832
15890TIP3    H269162   4.428   5.531  16.342  0.6708 -1.3587  0.2888
15891TIP3   OH269163   3.605   1.066  12.854  0.4358  0.1181 -0.0951
15891TIP3    H169164   3.679   1.078  12.914  0.8338 -2.9391  0.1370
15891TIP3    H269165   3.646   1.041  12.771 -0.2916 -0.2732 -0.3382
15892TIP3   OH269166   0.167   0.124   2.743 -0.1863  0.1367 -0.4303
15892TIP3    H169167   0.104   0.054   2.762  0.0991  0.5728  2.3537
15892TIP3    H269168   0.252   0.080   2.740 -0.0919  0.2517  0.5572
15893TIP3   OH269169   4.557   5.163   4.507 -0.0075 -0.4375 -0.5053
15893TIP3    H169170   4.473   5.209   4.507  1.1257  1.7131  1.3838
15893TIP3    H269171   4.538   5.078   4.466 -3.1641 -0.1423  0.2455
15894TIP3   OH269172   1.187   5.901  11.537  0.2844  0.2952  0.2928
15894TIP3    H169173   1.147   5.985  11.514  0.7405  0.7743  1.2519
15894TIP3    H269174   1.194   5.854  11.453 -0.7347  0.8722 -0.1230
15895TIP3   OH269175   1.149   6.613  13.737 -0.2306  0.0238  0.6273
15895TIP3    H169176   1.080   6.599  13.672 -0.9365 -1.3260  1.6337
15895TIP3    H269177   1.216   6.664  13.691 -1.1832 -0.0192 -0.8361
15896TIP3   OH269178   3.036   2.522   5.811  0.4800 -0.3073 -0.4632
15896TIP3    H169179   3.114   2.531   5.756  1.0142 -0.2580  0.3067
15896TIP3    H269180   3.069   2.509   5.899 -0.3908  0.3919 -0.0211
15897TIP3   OH269181   1.901   1.545  12.140 -0.6061  0.3512 -0.3660
15897TIP3    H169182   1.878   1.610  12.207 -0.6359  1.0168 -1.0168
15897TIP3    H269183   1.978   1.501  12.175 -0.0559  1.3378 -0.3184
15898TIP3   OH269184   4.731   5.358   0.546  1.0639  0.1623 -0.1012
15898TIP3    H169185   4.716   5.437   0.598 -3.5005  1.4905 -3.0998
15898TIP3    H269186   4.655   5.302   0.565  1.2579 -0.9347 -2.3517
15899TIP3   OH269187   0.591   2.143   3.158  0.1266  0.1168  0.2553
15899TIP3    H169188   0.503   2.164   3.189 -0.3377 -0.4536 -0.6455
15899TIP3    H269189   0.599   2.192   3.076  0.9990  0.9007  0.8059
15900TIP3   OH269190   4.569   4.134  12.601  0.1770  0.3141 -0.1767
15900TIP3    H169191   4.487   4.095  12.632  0.6285 -0.0262  0.6125
15900TIP3    H269192   4.632   4.114  12.670  0.9727  0.4032 -0.8725
15901TIP3   OH269193   1.916   0.848  15.635  0.1653  0.4414  0.2443
15901TIP3    H169194   1.907   0.924  15.577  1.6130  0.5896  0.1950
15901TIP3    H269195   1.982   0.794  15.593 -1.1835 -1.0817  0.0574
15902TIP3   OH269196   1.732   2.195  15.473 -0.1846 -0.0742 -0.3469
15902TIP3    H169197   1.752   2.102  15.462  0.5362  0.2991 -2.2709
15902TIP3    H269198   1.811   2.232  15.512 -0.5526 -0.2939  0.6255
15903TIP3   OH269199   0.507   3.775  15.091 -0.0654 -1.0718  0.7270
15903TIP3    H169200   0.527   3.722  15.013 -0.5192 -1.5803  0.9577
15903TIP3    H269201   0.483   3.712  15.158  2.3218 -0.7803  1.9042
15904TIP3   OH269202   1.099   2.567  12.808  0.3125 -0.0739 -0.3516
15904TIP3    H169203   1.173   2.590  12.751 -0.1124 -1.2754 -1.4093
15904TIP3    H269204   1.091   2.472  12.800 -1.1457  0.0054  0.0179
15905TIP3   OH269205   3.741   1.410   0.459  0.4349  0.2791  0.0514
15905TIP3    H169206   3.740   1.403   0.555  0.6393 -0.8871 -0.0145
15905TIP3    H269207   3.670   1.352   0.430  0.9059 -0.0244 -0.5250
15906TIP3   OH269208   4.309   3.386  16.796  0.2405 -0.1071  0.5670
15906TIP3    H169209   4.257   3.426  16.865 -0.5678  0.3759 -0.3035
15906TIP3    H269210   4.351   3.311  16.838  0.3692  0.6309  1.7641
15907TIP3   OH269211   4.492   1.489   2.321  0.0504  0.6276 -0.3180
15907TIP3    H169212   4.542   1.470   2.400 -1.0319  1.7430  0.6392
15907TIP3    H269213   4.455   1.575   2.336 -1.6245  0.0946 -1.3133
15908TIP3   OH269214   1.763   5.497  11.208  0.4548 -0.4105  0.2404
15908TIP3    H169215   1.803   5.529  11.127 -0.4253 -1.0325 -0.4469
15908TIP3    H269216   1.804   5.411  11.222  0.5807 -0.3181  0.4273
15909TIP3   OH269217   5.929   5.615   0.789  0.1538  0.1749 -0.2244
15909TIP3    H169218   5.981   5.537   0.806 -0.5633 -0.1105  0.7407
15909TIP3    H269219   5.982   5.687   0.823 -0.2189 -0.1538  1.1102
15910TIP3   OH269220   5.483   5.975   5.804 -0.0143  0.2445 -0.3595
15910TIP3    H169221   5.428   6.052   5.791  1.8631  1.2612 -2.6211
15910TIP3    H269222   5.541   5.973   5.728  4.3842  0.2897  2.7757
15911TIP3   OH269223   0.459   0.494   2.458  0.2954 -0.3704 -0.0324
15911TIP3    H169224   0.425   0.407   2.438 -1.6576  0.1638  0.8051
15911TIP3    H269225   0.388   0.554   2.433  0.5997  0.7915  1.8011
15912TIP3   OH269226   0.958   5.134  12.001  0.1088 -0.0675 -0.2338
15912TIP3    H169227   1.039   5.139  12.052  0.5954 -0.4624 -0.9659
15912TIP3    H269228   0.941   5.225  11.976 -0.0058  0.0979  0.4253
15913TIP3   OH269229   4.377   6.456   5.612 -0.0932 -1.0860  0.2033
15913TIP3    H169230   4.360   6.412   5.529  1.1351  0.7984 -1.0932
15913TIP3    H269231   4.471   6.446   5.626 -0.3156 -1.5162  1.4499
15914TIP3   OH269232   4.151   0.482   3.037 -0.1060 -0.3106  0.2877
15914TIP3    H169233   4.116   0.556   3.087 -1.4540  0.7968 -2.2460
15914TIP3    H269234   4.088   0.411   3.053 -1.3324  0.4727 -0.9756
15915TIP3   OH269235   2.005   6.577  12.480  0.1876  0.1513 -0.1816
15915TIP3    H169236   2.087   6.618  12.452  0.3492  1.5147  2.1356
15915TIP3    H269237   2.000   6.595  12.574 -1.3348 -2.4597  0.2988
15916TIP3   OH269238   0.589   5.213   4.670 -0.2682  0.0454  0.2438
15916TIP3    H169239   0.514   5.164   4.706 -0.4948 -0.2674 -0.6488
15916TIP3    H269240   0.559   5.304   4.669 -0.5503 -0.0469  0.1161
15917TIP3   OH269241   3.012   0.351  17.280  0.3293  0.3192 -0.1642
15917TIP3    H169242   2.934   0.388  17.319  0.1443 -0.1146 -0.1214
15917TIP3    H269243   3.083   0.372  17.341 -0.1453 -1.3718  0.9887
15918TIP3   OH269244   2.470   1.324  12.252  0.5573  0.4314 -0.3352
15918TIP3    H169245   2.414   1.402  12.246  2.2870  1.8307  0.9322
15918TIP3    H269246   2.413   1.251  12.231 -1.7476  1.8028  1.0263
15919TIP3   OH269247   1.419   6.407   1.200  0.1984  0.2200  0.1831
15919TIP3    H169248   1.473   6.486   1.199  0.8499 -0.1935 -3.2629
15919TIP3    H269249   1.329   6.439   1.204  0.4345  1.2227 -1.8158
15920TIP3   OH269250   0.472   6.344  11.294  0.0155 -0.1417  0.0335
15920TIP3    H169251   0.562   6.376  11.282  0.4863 -0.5422  2.3258
15920TIP3    H269252   0.451   6.300  11.212  1.8716  0.0760 -0.5782
15921TIP3   OH269253   1.371   5.684  12.205 -0.1376  0.2915 -0.1001
15921TIP3    H169254   1.335   5.599  12.233 -1.4335  0.7249 -0.4023
15921TIP3    H269255   1.405   5.723  12.285  0.2124 -0.3884  0.0917
15922TIP3   OH269256   6.530   4.238  13.310 -0.7295  0.2788 -0.1691
15922TIP3    H169257   6.491   4.187  13.381  0.0355 -0.0699 -0.0017
15922TIP3    H269258   6.624   4.220  13.315 -0.7317 -0.2122 -1.6305
15923TIP3   OH269259   3.825   4.474  11.974 -0.1621 -0.1133  0.0316
15923TIP3    H169260   3.793   4.416  11.905  0.5847 -1.0415  0.4632
15923TIP3    H269261   3.784   4.440  12.054 -0.3168  0.4146  0.1777
15924TIP3   OH269262   5.634   3.776   4.195 -0.5437 -0.4732 -0.2012
15924TIP3    H169263   5.603   3.818   4.115  0.5435  1.5730  0.4195
15924TIP3    H269264   5.599   3.829   4.266  0.8541 -0.6037  0.6077
15925TIP3   OH269265   2.805   5.264  14.758  0.6060  0.0284  0.4123
15925TIP3    H169266   2.862   5.219  14.821 -1.5655 -2.2175  0.8259
15925TIP3    H269267   2.769   5.338  14.807  0.7594 -0.3371  1.0881
15926TIP3   OH269268   2.843   0.849  14.622 -0.1989 -0.6916  0.1121
15926TIP3    H169269   2.873   0.934  14.655 -0.0370 -0.4824 -0.5786
15926TIP3    H269270   2.780   0.819  14.688 -0.9031  0.3513 -0.0749
15927TIP3   OH269271   1.958   1.494  16.249 -0.2370  0.1645  0.3101
15927TIP3    H169272   1.923   1.425  16.193 -0.9985  0.0880  0.8636
15927TIP3    H269273   2.019   1.542  16.193  0.0326 -0.7384 -0.1786
15928TIP3   OH269274   1.220   3.480  13.597  0.4094  0.6020  0.4313
15928TIP3    H169275   1.314   3.492  13.611  0.7154  0.5536 -1.3777
15928TIP3    H269276   1.181   3.562  13.625  1.2261  1.3855 -0.6667
15929TIP3   OH269277   4.788   0.875   4.635 -0.1474  0.0067 -0.3959
15929TIP3    H169278   4.804   0.838   4.721  2.2318 -1.1388 -1.2733
15929TIP3    H269279   4.866   0.927   4.616 -0.7962  0.5262 -1.7117
15930TIP3   OH269280   2.173   2.544  14.292 -0.4321 -0.2710 -0.5274
15930TIP3    H169281   2.207   2.568  14.378 -0.1331 -0.6933 -0.5292
15930TIP3    H269282   2.089   2.589  14.287  0.4608  1.3914 -0.8363
15931TIP3   OH269283   4.523   0.137   3.305 -0.2591 -0.0121 -0.1800
15931TIP3    H169284   4.513   0.210   3.366  1.6073  0.3599 -0.2857
15931TIP3    H269285   4.484   0.062   3.350 -1.2423  0.8235  0.3667
15932TIP3   OH269286   5.676   4.691  16.091 -0.1067 -0.0793  0.1352
15932TIP3    H169287   5.652   4.603  16.060  1.6727 -0.3232 -0.6701
15932TIP3    H269288   5.598   4.744  16.078 -1.2211 -1.5728  0.6883
15933TIP3   OH269289   6.105   5.186  14.167  0.0404  0.6244  0.2297
15933TIP3    H169290   6.179   5.246  14.152  0.8471  0.0106  1.6642
15933TIP3    H269291   6.145   5.099  14.171 -1.1490 -0.0560 -2.0078
15934TIP3   OH269292   5.753   1.859   2.059  0.7322  0.2779 -0.5341
15934TIP3    H169293   5.717   1.819   1.980 -1.7281  0.8389  0.2523
15934TIP3    H269294   5.719   1.806   2.131  0.5992  1.4591  0.2926
15935TIP3   OH269295   4.154   4.183  13.535 -0.1495  0.5500  0.9588
15935TIP3    H169296   4.241   4.154  13.510 -0.2844  0.7080  0.2822
15935TIP3    H269297   4.097   4.153  13.464 -0.4750  1.3830  0.8592
15936TIP3   OH269298   3.410   0.094  11.398  0.2681 -0.2362 -0.1494
15936TIP3    H169299   3.491   0.124  11.358  0.6897  0.3857  1.1579
15936TIP3    H269300   3.434   0.071  11.488 -1.1972  0.9096  0.5461
15937TIP3   OH269301   0.762   1.910   0.960  1.0642 -0.5489 -0.1326
15937TIP3    H169302   0.684   1.896   1.012  1.5084 -0.3561  0.5965
15937TIP3    H269303   0.730   1.941   0.875  0.3029 -1.7421 -0.2821
15938TIP3   OH269304   1.101   0.841  17.243  0.1871  0.0186 -0.2824
15938TIP3    H169305   1.032   0.779  17.266 -1.9204  2.7604  1.0649
15938TIP3    H269306   1.093   0.851  17.148 -2.8693  2.0002  0.1019
15939TIP3   OH269307   5.471   4.482  14.625 -0.5379 -0.2651  0.1021
15939TIP3    H169308   5.395   4.485  14.683  0.0772  0.7393  0.8751
15939TIP3    H269309   5.522   4.407  14.655 -1.0990 -0.8001 -0.2676
15940TIP3   OH269310   2.444   1.859  14.833  0.4901 -0.2671  0.5763
15940TIP3    H169311   2.469   1.914  14.907 -0.1749  1.1909 -0.2640
15940TIP3    H269312   2.368   1.810  14.865  0.0835  0.5046  0.7996
15941TIP3   OH269313   1.822   2.674  12.839  0.8544  0.0769  0.5438
15941TIP3    H169314   1.765   2.627  12.777  0.6103 -0.8587  1.4726
15941TIP3    H269315   1.791   2.764  12.836 -0.6188 -0.4121  0.9756
15942TIP3   OH269316   3.420   5.392   3.231 -0.0057  0.0990  0.4608
15942TIP3    H169317   3.333   5.421   3.259 -0.1198 -0.1709  0.3875
15942TIP3    H269318   3.425   5.301   3.260  0.1732  0.0523  0.2801
15943TIP3   OH269319   4.269   6.796  17.094 -0.1991  0.0513  0.0902
15943TIP3    H169320   4.220   6.721  17.062 -0.7889  0.6358 -0.3919
15943TIP3    H269321   4.220   6.872  17.062 -0.9371  0.6531  2.5470
15944TIP3   OH269322   5.061   3.181  12.873  0.4004 -0.2288 -0.1777
15944TIP3    H169323   5.076   3.213  12.784 -0.6660 -1.4978 -0.8308
15944TIP3    H269324   5.046   3.088  12.862  2.6774 -0.8514  1.6083
15945TIP3   OH269325   0.663   2.058   5.074 -0.5387  0.2571  0.0331
15945TIP3    H169326   0.711   2.042   5.155 -0.0250  1.3190 -0.0513
15945TIP3    H269327   0.650   2.153   5.072  0.6782  0.4143 -1.7969
15946TIP3   OH269328   5.551   5.492   0.400  0.0235 -0.0385  0.1077
15946TIP3    H169329   5.605   5.428   0.447  3.1300  1.1419 -1.7006
15946TIP3    H269330   5.529   5.558   0.466  1.1071 -0.3547  0.7896
15947TIP3   OH269331   4.002   6.275   4.816 -0.1151  0.2338  0.2156
15947TIP3    H169332   4.061   6.347   4.837  0.3493  0.4565 -1.7977
15947TIP3    H269333   4.007   6.265   4.721 -0.8782 -1.8425  0.3444
15948TIP3   OH269334   3.523   4.681  16.082  0.2525  0.5571 -0.0993
15948TIP3    H169335   3.567   4.715  16.004  0.1634  1.4454  0.2392
15948TIP3    H269336   3.505   4.758  16.136 -2.1072  0.2761 -0.4240
15949TIP3   OH269337   1.449   3.514   4.926 -0.0253  0.0036  0.1638
15949TIP3    H169338   1.399   3.492   5.004  0.0804  0.4012  0.3410
15949TIP3    H269339   1.454   3.431   4.877 -0.5063 -0.1269  0.3387
15950TIP3   OH269340   2.537   0.944   3.226 -0.4214  0.6434  0.5820
15950TIP3    H169341   2.492   0.974   3.147 -0.9544 -0.9520  0.2515
15950TIP3    H269342   2.630   0.949   3.204 -0.5772 -0.1604 -0.2906
15951TIP3   OH269343   1.670   0.872  14.075  0.3050 -0.2418 -0.5524
15951TIP3    H169344   1.662   0.962  14.107  0.5095 -0.6064  0.5521
15951TIP3    H269345   1.750   0.873  14.023  0.6135  0.0920 -0.0809
15952TIP3   OH269346   3.414   2.573   3.848 -0.2144  0.0066  0.4989
15952TIP3    H169347   3.436   2.610   3.762 -0.6996 -1.1884 -0.1581
15952TIP3    H269348   3.382   2.647   3.899  0.0408  0.7242 -0.3680
15953TIP3   OH269349   6.110   1.723   0.587  0.4929  0.0710  0.1178
15953TIP3    H169350   6.165   1.667   0.532 -1.4408 -0.9658 -0.7739
15953TIP3    H269351   6.098   1.803   0.535 -2.6988 -1.5540 -1.7388
15954TIP3   OH269352   3.862   2.272  16.951 -0.4704 -0.6354 -0.3596
15954TIP3    H169353   3.905   2.338  17.006  1.7297  0.7199 -3.5441
15954TIP3    H269354   3.920   2.196  16.954 -0.7174 -0.8175 -0.2164
15955TIP3   OH269355   3.434   3.697  13.656 -0.3677  0.3093 -0.4140
15955TIP3    H169356   3.433   3.629  13.724 -1.7440  0.8224  0.1165
15955TIP3    H269357   3.467   3.653  13.579 -0.9304 -0.9008  0.0135
15956TIP3   OH269358   3.037   6.763  16.780  0.0448  0.0435  0.0433
15956TIP3    H169359   2.979   6.705  16.830 -0.4173 -0.0140 -0.5572
15956TIP3    H269360   2.982   6.839  16.759 -0.0399 -0.3617 -1.1935
15957TIP3   OH269361   4.199   3.203  13.605 -0.3178  0.2210 -0.5869
15957TIP3    H169362   4.130   3.216  13.670 -0.3384 -0.4356 -0.4775
15957TIP3    H269363   4.219   3.291  13.574 -0.7171  0.4821 -0.1122
15958TIP3   OH269364   1.895   5.486  13.335  0.3804  1.0743 -0.2036
15958TIP3    H169365   1.920   5.572  13.371 -0.8039  2.2863 -2.1960
15958TIP3    H269366   1.800   5.487  13.335  0.3708  0.4644 -1.8730
15959TIP3   OH269367   5.323   2.135   4.618  0.8029 -0.2799  0.7368
15959TIP3    H169368   5.263   2.182   4.560  1.9504  0.2640 -0.0435
15959TIP3    H269369   5.369   2.073   4.560  0.5721 -1.1117  1.4313
15960TIP3   OH269370   2.129   6.201  13.450 -0.6210 -0.2007  0.6121
15960TIP3    H169371   2.145   6.107  13.449  1.4987  0.1188  1.9073
15960TIP3    H269372   2.207   6.239  13.492 -1.4955  2.1128  0.2393
15961TIP3   OH269373   0.902   5.158  12.902  0.6021  1.0397  0.1795
15961TIP3    H169374   0.838   5.224  12.928  1.8460  2.3647 -0.0070
15961TIP3    H269375   0.976   5.209  12.870  1.4328 -0.4742 -0.3460
15962TIP3   OH269376   4.795   4.752   3.744 -0.0298  0.2423 -0.0709
15962TIP3    H169377   4.758   4.743   3.657  0.8387  0.8817 -0.5233
15962TIP3    H269378   4.725   4.727   3.804 -0.5834 -0.3251 -0.9594
15963TIP3   OH269379   5.129   0.684   3.421 -0.2637 -0.1260 -0.3384
15963TIP3    H169380   5.096   0.627   3.491  0.6820 -1.1473 -0.7126
15963TIP3    H269381   5.105   0.772   3.449  1.8993 -0.3192  2.3225
15964TIP3   OH269382   3.548   5.903   4.624 -0.8012  0.0545 -0.2128
15964TIP3    H169383   3.626   5.942   4.663 -0.7816  0.3835 -0.5839
15964TIP3    H269384   3.499   5.867   4.699  0.8123 -2.1658 -0.1622
15965TIP3   OH269385   2.069   3.702  13.780 -0.4883  0.1805  0.2009
15965TIP3    H169386   2.113   3.671  13.859 -0.3217 -0.0810  0.0025
15965TIP3    H269387   2.009   3.631  13.757 -0.6948  0.3494  0.2158
15966TIP3   OH269388   2.165   0.422  12.517 -0.3074 -0.8535  0.3087
15966TIP3    H169389   2.222   0.438  12.441 -0.4766 -0.3152  0.2948
15966TIP3    H269390   2.207   0.350  12.564 -0.0878 -1.0469 -0.1820
15967TIP3   OH269391   0.512   5.035  16.268 -0.0280 -0.0613 -0.5957
15967TIP3    H169392   0.525   4.999  16.356  1.8599  0.3202 -0.6883
15967TIP3    H269393   0.463   5.116  16.283 -3.3507 -2.0470 -0.2980
15968TIP3   OH269394   6.242   2.108   2.216 -0.4518  0.2592 -0.2624
15968TIP3    H169395   6.297   2.107   2.295 -0.7815  2.9121  0.0535
15968TIP3    H269396   6.198   2.023   2.216  1.0167 -0.5238  1.3747
15969TIP3   OH269397   1.041   0.394  11.164 -0.5490 -0.0530 -0.2932
15969TIP3    H169398   1.113   0.379  11.104  1.7006 -1.7880  2.7278
15969TIP3    H269399   0.971   0.338  11.132  0.4078 -0.5092 -1.6080
15970TIP3   OH269400   4.516   0.056  14.618 -0.4522 -0.2116 -0.1126
15970TIP3    H169401   4.450   0.107  14.665  0.6505 -0.1174  1.3530
15970TIP3    H269402   4.516   0.094  14.530 -1.1727  0.8949  0.3425
15971TIP3   OH269403   0.822   6.189  12.858 -0.1774  0.6615  0.2280
15971TIP3    H169404   0.896   6.194  12.919 -0.3225  1.2057  0.3576
15971TIP3    H269405   0.772   6.113  12.887 -0.4645  1.1528  1.0367
15972TIP3   OH269406   6.198   1.438  13.928  0.2315  0.0008 -0.4634
15972TIP3    H169407   6.255   1.443  13.850  0.3926 -0.7578 -0.3982
15972TIP3    H269408   6.111   1.461  13.895  0.0156 -1.7697 -1.1873
15973TIP3   OH269409   3.195   5.458   0.359 -0.2198  0.0174  0.1182
15973TIP3    H169410   3.136   5.391   0.325  0.7729 -1.4284  1.1985
15973TIP3    H269411   3.181   5.456   0.454  1.4165 -0.2099  0.3630
15974TIP3   OH269412   5.810   3.445  15.877 -0.2035  0.4475 -0.4396
15974TIP3    H169413   5.857   3.369  15.909 -2.0093  0.2726  1.9661
15974TIP3    H269414   5.750   3.411  15.810  1.9240  0.4494 -2.4098
15975TIP3   OH269415   3.812   0.446  16.628  0.5073  0.7222  0.6000
15975TIP3    H169416   3.753   0.372  16.644  0.0514  1.3614  1.9536
15975TIP3    H269417   3.793   0.472  16.537  0.7730 -0.8918  0.0715
15976TIP3   OH269418   4.756   0.512  17.135  0.1982 -0.2036  0.7067
15976TIP3    H169419   4.768   0.417  17.135 -1.0853 -0.3654  1.2014
15976TIP3    H269420   4.819   0.544  17.200  1.0762 -0.6478  0.0829
15977TIP3   OH269421   5.611   4.050  12.628  0.0479  0.7718  0.2412
15977TIP3    H169422   5.599   4.144  12.633 -0.1765  0.6549  2.3757
15977TIP3    H269423   5.522   4.014  12.628  0.0645  0.6071 -2.6435
15978TIP3   OH269424   5.571   4.600   0.499  0.3167  0.2990  0.6023
15978TIP3    H169425   5.520   4.520   0.510 -0.1561  0.6228  0.8171
15978TIP3    H269426   5.581   4.610   0.405 -0.0349  0.2360  0.5562
15979TIP3   OH269427   1.444   3.434  10.991 -0.2720  0.8207 -0.0930
15979TIP3    H169428   1.436   3.505  10.927 -0.7862  0.9528  0.1143
15979TIP3    H269429   1.480   3.476  11.069 -2.5982  1.3120  0.7678
15980TIP3   OH269430   1.701   5.688  11.773 -1.1870 -0.0483 -0.4530
15980TIP3    H169431   1.661   5.651  11.694 -2.1189 -2.3560  1.0208
15980TIP3    H269432   1.718   5.780  11.751 -3.0673 -0.1845 -2.7102
15981TIP3   OH269433   6.152   2.059  16.927 -0.0486  0.4994 -0.7512
15981TIP3    H169434   6.143   2.086  17.018  0.9312 -1.6896  0.0356
15981TIP3    H269435   6.183   2.136  16.881  1.2956  1.1034  1.1284
15982TIP3   OH269436   1.200   5.084   3.242  0.3554  0.4689  0.0056
15982TIP3    H169437   1.126   5.120   3.193  0.6292  1.3770  0.2446
15982TIP3    H269438   1.170   4.999   3.272  0.5666 -0.6236 -2.7029
15983TIP3   OH269439   3.763   0.512  14.669 -0.4038 -0.7218 -0.1380
15983TIP3    H169440   3.827   0.530  14.600 -0.7035  1.3110  0.0852
15983TIP3    H269441   3.681   0.494  14.622 -0.6535  0.8541 -0.3206
15984TIP3   OH269442   5.876   4.345   5.432 -0.1722 -0.1237  0.7752
15984TIP3    H169443   5.938   4.372   5.364 -0.9460 -1.2053 -0.3762
15984TIP3    H269444   5.890   4.408   5.503  1.1221  0.6083 -0.1051
15985TIP3   OH269445   0.727   5.517  15.583  0.0794 -0.4809 -0.4486
15985TIP3    H169446   0.776   5.437  15.563  0.7029  0.3793 -2.5459
15985TIP3    H269447   0.749   5.537  15.674  1.3627 -1.6930 -0.4733
15986TIP3   OH269448   2.171   4.966  14.864  0.0766 -0.3179 -0.0514
15986TIP3    H169449   2.263   4.994  14.857  0.0229 -0.1551 -0.1189
15986TIP3    H269450   2.160   4.901  14.795 -1.2340  3.3688 -3.5818
15987TIP3   OH269451   3.769   0.715   2.311 -0.7464  0.2002 -0.3659
15987TIP3    H169452   3.825   0.639   2.322  0.0876  0.9158  0.5018
15987TIP3    H269453   3.725   0.725   2.396  1.2475  2.3010  0.4822
15988TIP3   OH269454   5.633   0.281  15.699 -0.1956  0.1687 -0.3453
15988TIP3    H169455   5.597   0.199  15.666  1.2905 -0.6018 -0.0774
15988TIP3    H269456   5.644   0.266  15.793 -0.0386  0.7163 -0.2748
15989TIP3   OH269457   5.798   0.707  14.598  0.0567  0.0864  0.0480
15989TIP3    H169458   5.822   0.750  14.516 -0.4586 -0.3159 -0.3146
15989TIP3    H269459   5.705   0.688  14.588 -0.2782  1.0395  1.1707
15990TIP3   OH269460   2.719   6.268  15.325 -0.3024  0.8870 -0.0377
15990TIP3    H169461   2.697   6.308  15.241  0.2791  0.3178 -0.4697
15990TIP3    H269462   2.696   6.334  15.390  0.6181  1.9137 -0.7348
15991TIP3   OH269463   5.699   3.685  15.170  0.3501 -0.2132  0.0083
15991TIP3    H169464   5.609   3.701  15.140  0.1975 -1.6330 -0.3338
15991TIP3    H269465   5.748   3.668  15.090  1.5209  3.1417 -0.0557
15992TIP3   OH269466   0.099   4.488   2.657  0.3042  0.7997  0.6505
15992TIP3    H169467   0.136   4.576   2.644 -0.2552  1.3325  2.4045
15992TIP3    H269468   0.009   4.494   2.623  1.4983 -0.2762 -2.9084
15993TIP3   OH269469   4.386   1.635   1.904 -0.6316 -0.2176  0.2191
15993TIP3    H169470   4.425   1.551   1.928 -0.1046 -0.3442 -1.0365
15993TIP3    H269471   4.333   1.615   1.827  0.7384  0.8824 -1.0355
15994TIP3   OH269472   2.852   0.740   3.824 -0.7848  0.4967  0.2859
15994TIP3    H169473   2.944   0.721   3.806 -1.0268 -0.8086  0.3623
15994TIP3    H269474   2.853   0.819   3.877  0.2317  1.1796 -0.7517
15995TIP3   OH269475   4.533   3.754  17.017  0.3570 -0.2875  0.0040
15995TIP3    H169476   4.455   3.735  17.069 -0.7772  1.3350 -1.0938
15995TIP3    H269477   4.589   3.805  17.076 -0.1759  0.0770  0.1985
15996TIP3   OH269478   4.905   2.996   4.635 -0.0225  0.0963 -0.2403
15996TIP3    H169479   4.946   2.926   4.686  1.3363  0.0871 -1.3418
15996TIP3    H269480   4.907   2.965   4.545 -0.4252  1.0769 -0.5944
15997TIP3   OH269481   1.270   4.825  15.157 -0.0492  0.4684  0.6606
15997TIP3    H169482   1.261   4.835  15.251  2.3949  0.7810  0.8920
15997TIP3    H269483   1.355   4.783  15.145 -1.2166 -1.4693 -1.3149
15998TIP3   OH269484   2.351   0.700  12.952 -0.0755 -0.3942 -0.3146
15998TIP3    H169485   2.312   0.705  13.039  0.1690 -1.7489 -0.1198
15998TIP3    H269486   2.280   0.669  12.895 -0.0924 -0.0145 -0.5001
15999TIP3   OH269487   0.163   0.364   3.105  1.0818 -0.3264 -0.4581
15999TIP3    H169488   0.150   0.363   3.010  1.5479 -1.3855 -0.5211
15999TIP3    H269489   0.238   0.422   3.118  0.1638  0.9299 -0.6038
16000TIP3   OH269490   1.528   0.262  13.213  0.5891 -0.2439  0.2539
16000TIP3    H169491   1.543   0.354  13.191  0.2402 -0.4144 -0.7147
16000TIP3    H269492   1.433   0.255  13.221  0.3955 -1.1699 -2.5943
16001TIP3   OH269493   4.936   4.050  11.193 -0.2315  0.1267  0.1301
16001TIP3    H169494   4.938   3.987  11.121 -1.4811 -0.4358  0.5658
16001TIP3    H269495   5.023   4.046  11.232 -0.0176 -0.6537 -0.4232
16002TIP3   OH269496   3.426   1.256  11.254 -0.2507  0.0748 -0.4735
16002TIP3    H169497   3.515   1.290  11.258  0.7470 -2.6513  1.3199
16002TIP3    H269498   3.378   1.306  11.320  1.1623 -1.7491  2.0205
16003TIP3   OH269499   5.299   2.625   0.711  0.3632  0.1654  0.2115
16003TIP3    H169500   5.268   2.661   0.794 -2.6075 -0.7285 -0.4505
16003TIP3    H269501   5.320   2.702   0.658 -1.3106  0.8505  0.5065
16004TIP3   OH269502   0.303   1.588  16.797  0.0826  0.2923 -0.8805
16004TIP3    H169503   0.345   1.627  16.720  2.8902  0.5578  0.7031
16004TIP3    H269504   0.363   1.518  16.824 -1.0815 -0.0803  0.8170
16005TIP3   OH269505   0.488   5.945   1.989  0.3218  0.8518  0.1655
16005TIP3    H169506   0.579   5.945   2.020  0.1824 -1.2363  0.7102
16005TIP3    H269507   0.436   5.960   2.068  0.1320 -0.1266  0.2374
16006TIP3   OH269508   5.721   2.016   3.154 -0.1680 -0.1694 -0.1953
16006TIP3    H169509   5.778   1.957   3.203 -0.5775  1.1260  1.8943
16006TIP3    H269510   5.717   2.095   3.207 -3.3188  0.0383 -0.6264
16007TIP3   OH269511   1.189   3.211  15.493  0.0440 -0.0457  0.1119
16007TIP3    H169512   1.213   3.120  15.509 -0.8151 -0.0403  1.4628
16007TIP3    H269513   1.099   3.207  15.461  1.0915  0.0893 -3.1047
16008TIP3   OH269514   5.379   1.781   0.603  0.0643  0.0928  0.2585
16008TIP3    H169515   5.431   1.857   0.628  1.3363 -1.0334  1.0867
16008TIP3    H269516   5.442   1.709   0.599 -1.2058 -1.0195 -0.0186
16009TIP3   OH269517   1.143   6.131   1.289  0.4540  0.0407  0.1175
16009TIP3    H169518   1.105   6.214   1.319  1.3752  0.4725  0.0836
16009TIP3    H269519   1.082   6.064   1.321  1.4650  0.4723  3.0511
16010TIP3   OH269520   6.016   5.935  15.921 -0.0666  0.1103 -0.0504
16010TIP3    H169521   6.002   5.970  16.009  1.2504  0.8524 -0.1120
16010TIP3    H269522   6.040   5.843  15.935  0.3118  0.2699  0.3886
16011TIP3   OH269523   3.115   3.991  11.110  0.3785  0.5420  0.4020
16011TIP3    H169524   3.027   3.957  11.092 -0.3575  3.0701 -1.1059
16011TIP3    H269525   3.174   3.924  11.076 -0.9803 -0.6141  0.2797
16012TIP3   OH269526   3.459   3.483  10.716 -0.0873 -0.4538  0.1871
16012TIP3    H169527   3.529   3.531  10.671  0.9729 -0.4034  1.8429
16012TIP3    H269528   3.379   3.508  10.671  0.9832 -0.6518 -1.8607
16013TIP3   OH269529   3.167   1.414  11.938 -0.0585 -0.9600 -0.0277
16013TIP3    H169530   3.237   1.477  11.922 -1.1402  0.2367 -0.0915
16013TIP3    H269531   3.102   1.462  11.990 -0.6031 -2.2095  0.4868
16014TIP3   OH269532   3.350   2.536   4.182 -0.5214  0.6380  0.0730
16014TIP3    H169533   3.341   2.448   4.144  0.2499  0.7962 -0.5116
16014TIP3    H269534   3.260   2.566   4.196 -0.8277  0.4647 -1.4173
16015TIP3   OH269535   3.111   1.460  15.072 -0.9007  0.0859  0.2400
16015TIP3    H169536   3.085   1.397  15.140 -2.1356 -1.1678 -1.3600
16015TIP3    H269537   3.193   1.424  15.037 -2.1511 -1.2652 -1.4020
16016TIP3   OH269538   5.427   4.254  17.128 -0.2874  0.4328 -0.6632
16016TIP3    H169539   5.370   4.191  17.084 -1.6846  0.1323  1.4903
16016TIP3    H269540   5.418   4.334  17.076 -3.4611  0.6658  0.1400
16017TIP3   OH269541   0.745   4.978   3.234  0.3864  0.2369  0.3026
16017TIP3    H169542   0.703   4.943   3.156 -1.0654  0.3758  0.9998
16017TIP3    H269543   0.808   5.042   3.201 -0.6466  0.7376 -0.7334
16018TIP3   OH269544   5.401   5.120  16.438  0.0849 -0.3359 -0.0881
16018TIP3    H169545   5.358   5.069  16.507 -0.4368 -0.7245 -0.6999
16018TIP3    H269546   5.380   5.074  16.357 -0.1865  0.7032 -0.6236
16019TIP3   OH269547   5.676   1.913  16.314  0.2737  0.0776  0.1435
16019TIP3    H169548   5.673   1.921  16.219  1.1268 -0.9385  0.0321
16019TIP3    H269549   5.734   1.984  16.342 -0.5025  0.7952 -0.0284
16020TIP3   OH269550   4.011   3.832  11.064 -0.3570  0.1443 -0.1889
16020TIP3    H169551   4.067   3.822  10.987 -0.9103 -0.3985 -0.5236
16020TIP3    H269552   4.024   3.923  11.090  1.1641 -0.1359  0.1210
16021TIP3   OH269553   3.468   1.840  15.521  0.3178  0.1764  0.2762
16021TIP3    H169554   3.416   1.760  15.511 -0.9809  0.9856  0.5285
16021TIP3    H269555   3.404   1.909  15.533  1.4692  1.0990  1.2329
16022TIP3   OH269556   3.370   4.049  14.995  0.1914 -0.0290  0.3872
16022TIP3    H169557   3.311   4.118  15.026 -3.1574 -2.5430 -0.1445
16022TIP3    H269558   3.383   4.068  14.902 -0.0921  0.3302  0.4212
16023TIP3   OH269559   3.186   0.535   6.029 -0.3691 -0.1690 -0.3102
16023TIP3    H169560   3.184   0.624   6.064 -0.1363 -0.0322 -0.6517
16023TIP3    H269561   3.256   0.491   6.078 -1.4115 -0.5768  0.8579
16024TIP3   OH269562   3.497   6.284   6.366  0.0355  0.5082  0.3040
16024TIP3    H169563   3.589   6.259   6.374  0.2277  1.4461  1.2906
16024TIP3    H269564   3.476   6.324   6.451 -1.3703  0.0151  0.1999
16025TIP3   OH269565   0.941   0.362   3.286 -0.3390 -0.0384  0.0867
16025TIP3    H169566   0.857   0.370   3.331 -0.6355 -0.4552 -0.3855
16025TIP3    H269567   1.000   0.420   3.335 -0.5924 -0.6628  1.1626
16026TIP3   OH269568   4.080   5.906   1.055 -0.0075  0.4860 -0.3708
16026TIP3    H169569   4.100   5.825   1.102 -0.7282 -0.6075 -1.9068
16026TIP3    H269570   3.992   5.929   1.084 -0.6785 -0.4978 -1.5792
16027TIP3   OH269571   6.029   4.093   5.196  0.4450 -0.7096  0.0735
16027TIP3    H169572   5.957   4.156   5.195  2.2760  1.4607 -0.0146
16027TIP3    H269573   6.005   4.028   5.130 -1.0338  0.4156 -0.5300
16028TIP3   OH269574   0.281   2.843   5.954  0.1411  0.4062  0.1106
16028TIP3    H169575   0.333   2.780   6.004 -0.7859  0.2120  0.8451
16028TIP3    H269576   0.205   2.861   6.009  0.2830  2.0139 -0.1920
16029TIP3   OH269577   1.501   2.230   0.102 -0.6989  0.1284 -0.6355
16029TIP3    H169578   1.487   2.223   0.196  0.0135  1.5088 -0.4127
16029TIP3    H269579   1.424   2.188   0.063 -0.9487 -0.5326  0.5540
16030TIP3   OH269580   0.670   1.300  11.869  0.5966 -0.4799 -0.3123
16030TIP3    H169581   0.600   1.337  11.815  2.5331 -0.0992 -2.6541
16030TIP3    H269582   0.694   1.371  11.930 -1.3047 -0.7665  0.8054
16031TIP3   OH269583   0.762   0.925  11.675 -0.2522  0.3582 -0.1309
16031TIP3    H169584   0.838   0.917  11.618 -0.2746  1.0372 -0.2586
16031TIP3    H269585   0.695   0.965  11.620 -0.9576 -0.9533 -0.2499
16032TIP3   OH269586   1.900   3.298   5.305 -0.2106 -0.1300 -0.7484
16032TIP3    H169587   1.875   3.345   5.225  0.5865  1.7741  0.0942
16032TIP3    H269588   1.817   3.282   5.350 -0.3948  1.5071 -0.4872
16033TIP3   OH269589   4.865   0.504  12.890  0.0673 -0.0876  0.0542
16033TIP3    H169590   4.898   0.567  12.954  0.2295  1.9175 -1.8977
16033TIP3    H269591   4.817   0.440  12.941  1.0702  0.8776  2.2600
16034TIP3   OH269592   1.465   1.975   0.293  0.6061  0.1831 -0.1002
16034TIP3    H169593   1.425   1.926   0.365  0.0815  1.1702  0.2983
16034TIP3    H269594   1.456   2.067   0.320 -0.1826  0.5970 -1.7314
16035TIP3   OH269595   3.100   2.961  13.124  0.5312 -0.9607  0.0146
16035TIP3    H169596   3.187   2.922  13.131  1.1534  0.3524 -0.1889
16035TIP3    H269597   3.096   2.996  13.035  0.5224  0.6639  0.6392
16036TIP3   OH269598   0.239   4.672   2.341  0.0941 -0.3957 -0.3066
16036TIP3    H169599   0.231   4.739   2.274 -0.8609 -1.4855 -1.3193
16036TIP3    H269600   0.230   4.719   2.424 -1.0138  0.6612 -1.0163
16037TIP3   OH269601   4.623   0.054  15.290 -0.1315 -0.4509  0.4160
16037TIP3    H169602   4.613   0.009  15.374  0.2461 -0.8934  0.2261
16037TIP3    H269603   4.718   0.064  15.280 -0.1519 -0.8842 -0.2155
16038TIP3   OH269604   3.699   3.803   1.499  0.4676 -0.1194  0.1881
16038TIP3    H169605   3.765   3.844   1.556 -0.1428  1.3174 -0.1189
16038TIP3    H269606   3.622   3.792   1.556 -0.1264  1.2716 -0.3475
16039TIP3   OH269607   4.847   3.881  15.486 -0.0929 -0.0646 -0.1844
16039TIP3    H169608   4.795   3.830  15.548 -1.1392 -0.6166 -1.5073
16039TIP3    H269609   4.783   3.925  15.430  0.8253  1.3225 -0.1819
16040TIP3   OH269610   0.246   6.291  16.605  0.0387  0.0901 -0.2944
16040TIP3    H169611   0.211   6.241  16.531 -0.3729  0.7308 -0.5449
16040TIP3    H269612   0.338   6.268  16.609  0.1289  0.2771 -1.1961
16041TIP3   OH269613   4.450   1.889   2.016 -0.4521  0.3188  0.0303
16041TIP3    H169614   4.488   1.876   2.103  0.5941  0.1353 -0.4441
16041TIP3    H269615   4.418   1.803   1.989  1.3255 -0.1282 -0.7278
16042TIP3   OH269616   0.384   3.560   3.640  0.2280 -0.6526  0.3553
16042TIP3    H169617   0.322   3.559   3.713 -0.5399 -0.6559 -0.2972
16042TIP3    H269618   0.339   3.514   3.570  1.5350 -1.9417  0.3400
16043TIP3   OH269619   6.585   0.121   0.586  0.5480  0.3406 -0.6528
16043TIP3    H169620   6.580   0.036   0.542  0.3004 -0.6859  1.3169
16043TIP3    H269621   6.525   0.177   0.536  0.7384 -0.6197 -1.9863
16044TIP3   OH269622   1.784   5.383  17.283 -0.4699 -0.1804 -0.0254
16044TIP3    H169623   1.707   5.409  17.334  1.3790 -2.3886  4.0887
16044TIP3    H269624   1.761   5.298  17.246 -0.1324 -0.7374  1.0218
16045TIP3   OH269625   5.124   1.003   2.290 -0.2194  0.0323 -0.0388
16045TIP3    H169626   5.172   1.064   2.234 -0.6976  0.6187  0.1797
16045TIP3    H269627   5.057   1.057   2.333  0.6367 -0.2361  1.6892
16046TIP3   OH269628   2.601   3.959   0.817 -0.6141 -0.3630  0.2889
16046TIP3    H169629   2.560   4.039   0.850 -0.1816 -0.1814  0.3932
16046TIP3    H269630   2.633   3.914   0.895 -0.5304 -0.4556  0.2028
16047TIP3   OH269631   4.912   4.849  13.541 -0.1963 -0.5039 -0.0021
16047TIP3    H169632   4.889   4.928  13.590 -3.2763 -0.2184 -1.7758
16047TIP3    H269633   4.959   4.882  13.464  0.1161 -0.5560  0.1646
16048TIP3   OH269634   1.734   6.338   5.302  0.0634 -0.2511 -0.2046
16048TIP3    H169635   1.796   6.390   5.251 -1.0431  0.0419 -1.2697
16048TIP3    H269636   1.770   6.249   5.299  0.4401 -0.0840 -0.7847
16049TIP3   OH269637   0.056   1.654  15.733 -0.1132  0.3375  0.0437
16049TIP3    H169638   0.090   1.695  15.654 -0.0446  0.1979  0.0001
16049TIP3    H269639   0.067   1.560  15.717  0.7871  0.3367  0.6152
16050TIP3   OH269640   5.837   3.275  13.283  0.0787  0.9308 -0.4599
16050TIP3    H169641   5.801   3.244  13.200 -0.8171  0.6447  0.0213
16050TIP3    H269642   5.901   3.208  13.308 -0.9628  0.0875 -0.0319
16051TIP3   OH269643   5.805   3.865   0.604  0.4429 -0.0849 -0.5250
16051TIP3    H169644   5.801   3.891   0.696  2.6241 -0.8714 -0.1593
16051TIP3    H269645   5.730   3.808   0.591 -1.7558  2.6475 -0.1290
16052TIP3   OH269646   6.513   3.254   5.229  0.2944  0.3966 -0.6509
16052TIP3    H169647   6.513   3.185   5.296 -1.4425  0.1956 -0.8253
16052TIP3    H269648   6.577   3.225   5.165 -0.7973 -1.3407 -0.9805
16053TIP3   OH269649   4.107   5.860   6.380  0.9249  0.7146  0.1856
16053TIP3    H169650   4.060   5.941   6.357 -1.0398 -0.0981  1.2644
16053TIP3    H269651   4.094   5.802   6.305  1.2856  0.9363 -0.0520
16054TIP3   OH269652   3.307   4.039  14.359 -0.3326 -0.5129  0.1624
16054TIP3    H169653   3.380   3.980  14.338  0.8897  0.2521  2.1167
16054TIP3    H269654   3.278   4.010  14.446 -0.9571  0.5968  0.3256
16055TIP3   OH269655   4.231   3.588  13.729  0.0662 -0.4384  0.4327
16055TIP3    H169656   4.233   3.562  13.637 -0.5755 -1.5107  0.7135
16055TIP3    H269657   4.305   3.543  13.769  0.9712  0.8506  0.2391
16056TIP3   OH269658   0.173   1.462  16.248  0.0001 -0.1307  0.2704
16056TIP3    H169659   0.095   1.466  16.303 -2.1655 -2.8513 -2.4378
16056TIP3    H269660   0.153   1.516  16.172  1.1307 -0.0426  0.0280
16057TIP3   OH269661   0.529   0.173  13.272  0.2627 -0.1517 -0.1147
16057TIP3    H169662   0.558   0.081  13.270 -0.6197 -0.4467  0.6052
16057TIP3    H269663   0.488   0.186  13.187 -0.8583 -0.8357  0.3151
16058TIP3   OH269664   3.179   3.778  13.298 -0.6749 -0.1375 -0.0810
16058TIP3    H169665   3.253   3.726  13.265 -0.0890  0.3011  0.5126
16058TIP3    H269666   3.175   3.854  13.241  0.7848  0.9736  1.2526
16059TIP3   OH269667   5.885   3.674  14.272 -0.2835 -0.1446  0.0934
16059TIP3    H169668   5.811   3.675  14.211  0.1440  1.3439 -0.4300
16059TIP3    H269669   5.876   3.754  14.323  0.3944 -0.4716  0.7436
16060TIP3   OH269670   1.266   4.108  12.306 -0.4379 -0.1923  0.0396
16060TIP3    H169671   1.181   4.066  12.292 -1.8547  3.3843 -3.1339
16060TIP3    H269672   1.249   4.172  12.375 -0.6295  1.1363 -1.2058
16061TIP3   OH269673   4.792   3.011   1.874 -0.1938 -0.0036 -0.6911
16061TIP3    H169674   4.726   3.026   1.807 -1.2455 -0.0386  0.3301
16061TIP3    H269675   4.808   2.916   1.871  1.1464  0.2274 -2.1519
16062TIP3   OH269676   4.360   6.749   5.517  0.1420 -0.1592  0.5592
16062TIP3    H169677   4.267   6.762   5.503  0.6849  1.4065 -1.8358
16062TIP3    H269678   4.373   6.655   5.506 -0.9072 -0.1698 -0.7411
16063TIP3   OH269679   1.267   3.353   2.494  0.0601 -0.0702 -0.3693
16063TIP3    H169680   1.316   3.434   2.510  0.2375 -0.2763  0.1406
16063TIP3    H269681   1.332   3.283   2.504  0.2120 -0.2125 -2.0991
16064TIP3   OH269682   5.109   0.150  14.098  0.4760 -0.1775  0.4180
16064TIP3    H169683   5.064   0.114  14.022 -0.7186 -0.9718  1.4810
16064TIP3    H269684   5.040   0.160  14.164  1.4001  0.9645  1.2347
16065TIP3   OH269685   6.601   1.122   1.636  0.0683  0.5936 -0.4556
16065TIP3    H169686   6.540   1.159   1.572 -0.2962  1.1469  0.1999
16065TIP3    H269687   6.687   1.129   1.594 -0.0645  1.7116 -0.5586
16066TIP3   OH269688   5.095   2.346  11.169 -0.3119  0.0371 -0.1193
16066TIP3    H169689   5.182   2.386  11.166 -0.4068  0.2278 -0.3228
16066TIP3    H269690   5.078   2.320  11.078 -1.3396  1.8480 -0.4564
16067TIP3   OH269691   0.666   1.164  14.563 -0.3911 -0.1514 -0.5333
16067TIP3    H169692   0.582   1.163  14.519 -1.4453 -1.8640  1.4669
16067TIP3    H269693   0.663   1.091  14.625  2.0472  0.5516  0.5005
16068TIP3   OH269694   1.207   4.274   2.995 -0.4795 -0.4740 -0.7043
16068TIP3    H169695   1.283   4.225   3.025 -0.4126  0.0288 -0.0169
16068TIP3    H269696   1.240   4.362   2.978 -1.3305  0.4294  1.9420
16069TIP3   OH269697   6.000   0.782   6.642 -0.0139  0.1527 -0.2201
16069TIP3    H169698   6.004   0.783   6.738 -0.9532 -0.2913 -0.1679
16069TIP3    H269699   6.082   0.742   6.614  0.1722  0.0989  0.4078
16070TIP3   OH269700   5.862   4.084   0.861 -0.5048 -0.1879  0.3793
16070TIP3    H169701   5.845   4.111   0.951 -1.6551 -1.4626  0.5556
16070TIP3    H269702   5.784   4.110   0.812 -0.0059  0.2445 -0.1957
16071TIP3   OH269703   6.798   6.078   2.589 -0.1635 -0.1089 -0.1323
16071TIP3    H169704   6.711   6.118   2.597  0.0882  0.8716 -2.1844
16071TIP3    H269705   6.821   6.053   2.679 -0.6699  3.5628  1.0806
16072TIP3   OH269706   0.992   6.024  14.410  0.2779  0.0595 -0.5680
16072TIP3    H169707   0.998   5.987  14.498 -1.2213  1.6636  0.2553
16072TIP3    H269708   0.913   5.984  14.373 -1.1423  2.0782  0.1913
16073TIP3   OH269709   4.439   5.075   1.214 -0.4390 -0.2448 -0.1613
16073TIP3    H169710   4.360   5.028   1.187 -0.6248  1.1017 -2.1448
16073TIP3    H269711   4.511   5.026   1.174 -0.4229 -0.4166  0.0811
16074TIP3   OH269712   0.590   1.901  14.875 -0.1941  0.1006  0.3719
16074TIP3    H169713   0.665   1.850  14.844  0.0959  0.1525  0.9720
16074TIP3    H269714   0.629   1.976  14.920 -0.6202  0.9392 -0.6355
16075TIP3   OH269715   5.243   3.749   0.533 -0.7392 -0.1973  0.1268
16075TIP3    H169716   5.170   3.708   0.486 -1.4600  0.1183  0.9646
16075TIP3    H269717   5.214   3.755   0.624  0.2857  0.0415  0.4502
16076TIP3   OH269718   2.689   4.458   2.312  0.3946 -0.4282  0.3049
16076TIP3    H169719   2.643   4.473   2.230 -1.8136  2.1436  1.9331
16076TIP3    H269720   2.639   4.390   2.356 -0.0011  0.0944  0.6708
16077TIP3   OH269721   3.901   0.892  16.962 -0.1269 -0.0123  0.1312
16077TIP3    H169722   3.951   0.843  16.897 -0.6398  0.8389 -0.9125
16077TIP3    H269723   3.812   0.858  16.954 -0.4129  0.8350 -0.3618
16078TIP3   OH269724   2.796   4.801  13.311  0.1659 -0.0742 -0.2584
16078TIP3    H169725   2.719   4.758  13.273 -0.4716  0.4655  0.4098
16078TIP3    H269726   2.792   4.779  13.404  0.7172  0.1209 -0.1879
16079TIP3   OH269727   3.921   3.649   4.891  0.1765 -0.6634  1.0031
16079TIP3    H169728   3.829   3.666   4.870  0.5796 -1.4232 -1.5601
16079TIP3    H269729   3.958   3.735   4.909 -0.2824  0.0214 -1.2611
16080TIP3   OH269730   5.150   5.956   5.797 -0.0805 -0.4150  0.4990
16080TIP3    H169731   5.198   6.012   5.736  0.4734 -1.0723  0.3270
16080TIP3    H269732   5.184   5.979   5.883 -0.7298  0.3800  0.5536
16081TIP3   OH269733   2.967   0.045   1.070  0.0336  0.1146 -0.5798
16081TIP3    H169734   2.999   0.090   0.991 -2.0415  2.1897 -0.2969
16081TIP3    H269735   2.875   0.029   1.052 -0.3275  0.1001  1.2078
16082TIP3   OH269736   0.000   0.906   6.915 -0.1495  0.1536 -0.2706
16082TIP3    H169737  -0.021   0.963   6.989 -1.4638  0.3134 -0.7622
16082TIP3    H269738   0.002   0.965   6.840  0.6137 -0.1054 -0.4614
16083TIP3   OH269739   1.590   5.772   5.486  0.1386 -0.3557  0.5469
16083TIP3    H169740   1.556   5.742   5.402  1.8416 -1.1233  0.1171
16083TIP3    H269741   1.552   5.859   5.498  0.4418  0.0504 -1.3607
16084TIP3   OH269742   0.728   2.076  13.434 -0.1472  0.5750 -0.4599
16084TIP3    H169743   0.723   1.987  13.471 -0.2673  0.5576 -0.5169
16084TIP3    H269744   0.655   2.079  13.372 -0.7532  1.0458  0.2567
16085TIP3   OH269745   3.417   0.115  12.906  0.1644 -0.3937 -0.3911
16085TIP3    H169746   3.486   0.070  12.955 -0.3111 -1.4153 -0.6596
16085TIP3    H269747   3.454   0.202  12.888  0.7651 -0.3877  0.8337
16086TIP3   OH269748   2.796   3.109  10.891 -0.2862  0.1222  0.1310
16086TIP3    H169749   2.828   3.198  10.873 -0.3794  0.0212 -0.5457
16086TIP3    H269750   2.812   3.061  10.810 -1.8506 -0.0143 -0.1105
16087TIP3   OH269751   2.759   6.674  12.301 -0.2321 -0.6531 -0.0788
16087TIP3    H169752   2.717   6.629  12.228 -1.5162  0.6619 -0.1730
16087TIP3    H269753   2.691   6.730  12.337  0.7740 -0.2842  1.2905
16088TIP3   OH269754   1.153   1.638  13.823  0.5843  0.3201  0.3363
16088TIP3    H169755   1.235   1.685  13.843  0.6794  0.1534  0.3397
16088TIP3    H269756   1.113   1.688  13.752  0.6078  0.4975  0.4472
16089TIP3   OH269757   3.401   5.317  17.246  0.0590 -1.2824  0.3582
16089TIP3    H169758   3.320   5.297  17.200 -0.3595 -0.9508  0.9380
16089TIP3    H269759   3.374   5.378  17.316  0.7490 -1.4298  0.7549
16090TIP3   OH269760   1.286   3.286   1.024 -0.5404  0.0703 -0.0063
16090TIP3    H169761   1.252   3.214   0.970  0.0507 -0.1080 -0.1410
16090TIP3    H269762   1.266   3.260   1.114  1.4430 -1.2069  0.0839
16091TIP3   OH269763   1.811   2.803   3.833 -0.4746  0.1440  0.2169
16091TIP3    H169764   1.821   2.716   3.871 -0.5954 -0.7883 -1.8732
16091TIP3    H269765   1.901   2.834   3.821 -0.1990 -2.0588 -4.3554
16092TIP3   OH269766   6.090   0.956   1.066 -0.0829 -0.0254  0.5128
16092TIP3    H169767   6.073   1.031   1.009  0.0438  0.1005  0.6421
16092TIP3    H269768   6.038   0.885   1.027  2.3017 -0.7382 -1.4999
16093TIP3   OH269769   1.291   2.340  15.804  0.5619  0.3008  0.1527
16093TIP3    H169770   1.339   2.285  15.866  0.6743 -0.8923 -0.9866
16093TIP3    H269771   1.286   2.425  15.848  1.4644 -0.2590  1.3941
16094TIP3   OH269772   4.097   5.480  16.283 -0.7581 -0.6510 -0.3393
16094TIP3    H169773   4.118   5.571  16.305  0.6566 -0.4562 -2.3727
16094TIP3    H269774   4.040   5.486  16.207 -0.3423 -1.4673 -0.7265
16095TIP3   OH269775   1.467   6.056   4.000  0.0266 -0.7827  0.1528
16095TIP3    H169776   1.401   6.017   4.057  0.8978  0.8136  2.3369
16095TIP3    H269777   1.506   6.126   4.053  0.3334  1.2866 -2.6747
16096TIP3   OH269778   3.715   3.289  16.081  0.1828 -0.0250 -0.1150
16096TIP3    H169779   3.785   3.331  16.032 -0.7000  1.5129 -0.1085
16096TIP3    H269780   3.635   3.322  16.040 -0.5395 -0.9408  0.5465
16097TIP3   OH269781   2.041   4.488  10.975 -0.3266 -0.2980 -0.3510
16097TIP3    H169782   2.112   4.424  10.969  0.3251  0.4221 -0.4077
16097TIP3    H269783   2.081   4.571  10.949 -0.9034  0.3191  0.7030
16098TIP3   OH269784   1.432   3.015  12.388  0.1634  0.2851 -0.1698
16098TIP3    H169785   1.427   2.925  12.420  1.0622  0.8800  1.6580
16098TIP3    H269786   1.480   3.062  12.455  0.3220  1.9949 -1.4559
16099TIP3   OH269787   3.028   0.378  13.274  0.0649  0.0681  0.2512
16099TIP3    H169788   2.983   0.300  13.308 -2.4306  1.1418 -0.4662
16099TIP3    H269789   3.029   0.366  13.179 -1.3957  1.4306  0.0432
16100TIP3   OH269790   6.575   1.274   4.093 -0.6398 -0.3513  0.0065
16100TIP3    H169791   6.669   1.260   4.108 -0.6906 -0.8324 -0.1186
16100TIP3    H269792   6.537   1.275   4.181 -0.1278  2.7191  0.2367
16101TIP3   OH269793   3.818   5.642   4.049 -0.4371 -0.3386  0.3493
16101TIP3    H169794   3.871   5.611   3.976 -0.1974  0.5595  0.1291
16101TIP3    H269795   3.815   5.569   4.110 -2.5918 -1.9571 -1.6179
16102TIP3   OH269796   5.415   3.961  12.944 -0.3425 -0.0664 -0.1471
16102TIP3    H169797   5.399   3.995  12.855  0.5531  0.6103 -0.0503
16102TIP3    H269798   5.468   3.883  12.930 -0.8515 -0.4036 -0.2466
16103TIP3   OH269799   0.594   6.716  13.263 -0.0431  0.0725  0.1907
16103TIP3    H169800   0.561   6.667  13.339 -1.1438 -1.1069 -1.0170
16103TIP3    H269801   0.659   6.659  13.223  0.2370  0.5187 -0.0031
16104TIP3   OH269802   1.074   6.708  14.177  0.7977  0.2729 -0.7577
16104TIP3    H169803   1.137   6.668  14.238 -0.4602 -0.8273 -0.1666
16104TIP3    H269804   0.996   6.724  14.231 -0.0697 -0.0404 -1.9150
16105TIP3   OH269805   0.878   1.078   3.656  0.5813 -0.1014  0.3127
16105TIP3    H169806   0.897   1.102   3.747 -0.2801 -0.0419  0.4820
16105TIP3    H269807   0.854   1.160   3.614  1.9114  0.0290 -0.2194
16106TIP3   OH269808   2.180   6.588  13.544 -0.0219  0.4277 -0.5407
16106TIP3    H169809   2.100   6.578  13.492 -0.2064 -1.4032  0.0764
16106TIP3    H269810   2.150   6.614  13.631  0.2012  1.9044 -0.8838
16107TIP3   OH269811   1.217   4.462  13.668  0.3551  0.0123 -0.4880
16107TIP3    H169812   1.143   4.405  13.647 -0.2846  0.4341  0.5654
16107TIP3    H269813   1.288   4.430  13.614 -0.9814  0.5103 -2.5870
16108TIP3   OH269814   1.781   0.604  16.575  0.1201 -0.3401  0.2980
16108TIP3    H169815   1.686   0.594  16.585 -0.1086 -0.3515 -1.6826
16108TIP3    H269816   1.805   0.538  16.510  0.7873  2.5147 -2.4913
16109TIP3   OH269817   4.043   1.573  13.707 -0.3779 -0.0817 -0.1545
16109TIP3    H169818   4.113   1.508  13.716 -0.7476 -0.5552 -0.6772
16109TIP3    H269819   4.006   1.580  13.795  0.7863  0.7038  0.2876
16110TIP3   OH269820   0.272   0.052   1.663  0.1243  0.3604 -0.0386
16110TIP3    H169821   0.344   0.082   1.719  1.0362  0.1502 -1.0693
16110TIP3    H269822   0.205   0.119   1.673  0.8142  1.0230  0.2580
16111TIP3   OH269823   0.782   1.448  13.326 -0.6292 -0.3395 -0.4272
16111TIP3    H169824   0.687   1.455  13.329 -0.6545 -0.9267  0.3150
16111TIP3    H269825   0.813   1.539  13.317 -1.2174 -0.0277  0.6462
16112TIP3   OH269826   4.996   0.366   0.148 -0.5013 -0.5101 -0.7042
16112TIP3    H169827   4.933   0.296   0.161 -1.7262  0.5008 -1.1316
16112TIP3    H269828   4.960   0.440   0.196  0.1368  0.2131 -1.3240
16113TIP3   OH269829   2.880   0.151  13.373  0.0949  0.1457 -0.1585
16113TIP3    H169830   2.818   0.088  13.337  0.5597 -0.2630 -0.2525
16113TIP3    H269831   2.964   0.106  13.370  0.3194  0.5276  0.3944
16114TIP3   OH269832   5.047   0.472  15.687  0.5066 -0.4581 -0.1834
16114TIP3    H169833   5.082   0.511  15.607  1.1597 -1.7065 -0.5143
16114TIP3    H269834   5.058   0.378  15.675 -0.0332 -0.6951  1.0850
16115TIP3   OH269835   3.270   4.898  14.267  0.2001  0.3538 -0.0413
16115TIP3    H169836   3.305   4.891  14.178 -0.8692 -0.3357 -0.4255
16115TIP3    H269837   3.256   4.992  14.280 -0.6936  0.3712 -1.0351
16116TIP3   OH269838   0.949   6.438  14.322 -0.5556  0.5134  0.2696
16116TIP3    H169839   0.883   6.369  14.312 -0.3869  0.4857 -0.7879
16116TIP3    H269840   0.907   6.505  14.375 -0.8088 -0.3030  1.1072
16117TIP3   OH269841   3.801   2.546   4.932 -0.2964  0.2594  0.3472
16117TIP3    H169842   3.742   2.621   4.918  1.1470  1.0771 -1.4951
16117TIP3    H269843   3.873   2.582   4.985 -0.2708 -0.1693  0.6081
16118TIP3   OH269844   1.631   1.533   2.204 -0.2006  0.0731 -0.2616
16118TIP3    H169845   1.593   1.446   2.193  0.9045 -0.6908  1.7515
16118TIP3    H269846   1.712   1.518   2.254  0.5861  2.1284 -0.8628
16119TIP3   OH269847   2.808   4.258  12.206 -0.3865 -0.2571 -0.0132
16119TIP3    H169848   2.756   4.298  12.135 -0.5587 -0.9222 -0.2634
16119TIP3    H269849   2.875   4.323  12.225 -1.1248  0.4841  0.1005
16120TIP3   OH269850   6.592   2.951  15.411 -0.4501 -0.3129 -0.2716
16120TIP3    H169851   6.640   2.935  15.493 -0.0805 -0.6921 -0.5548
16120TIP3    H269852   6.524   3.013  15.434 -0.6260 -0.7679  0.4270
16121TIP3   OH269853   0.596   3.339  17.201 -0.5954 -0.1960 -0.3961
16121TIP3    H169854   0.633   3.427  17.194  1.5196 -1.1527 -1.9226
16121TIP3    H269855   0.665   3.287  17.244 -1.7952 -1.1303  0.4427
16122TIP3   OH269856   4.638   0.135  13.364 -0.9154 -0.1904 -0.3711
16122TIP3    H169857   4.638   0.078  13.441  1.2933  0.0013 -0.1937
16122TIP3    H269858   4.582   0.090  13.300 -1.4929 -1.1181  0.7829
16123TIP3   OH269859   4.410   0.538   3.679 -0.1956 -0.4185 -0.2855
16123TIP3    H169860   4.353   0.477   3.725 -1.1521  1.4464  1.0428
16123TIP3    H269861   4.352   0.582   3.617  0.8196 -1.9784 -2.4090
16124TIP3   OH269862   3.129   5.267  10.342  0.1336  0.6254  0.7963
16124TIP3    H169863   3.126   5.355  10.379  1.2978  0.7953  0.5093
16124TIP3    H269864   3.125   5.209  10.418 -1.3276  0.9120  0.9413
16125TIP3   OH269865   1.361   1.884  11.107  0.3076 -0.1397  0.2244
16125TIP3    H169866   1.381   1.808  11.163 -1.3410  0.2058  1.3191
16125TIP3    H269867   1.267   1.898  11.118  0.0934  0.4182 -2.0843
16126TIP3   OH269868   1.999   6.023   4.560  0.3744 -0.0004 -0.4345
16126TIP3    H169869   2.080   5.982   4.589  0.1369 -0.6884 -0.7299
16126TIP3    H269870   2.010   6.033   4.465  0.5050  0.7922 -0.3434
16127TIP3   OH269871   3.406   0.399  17.269  0.2414 -0.2553 -0.0659
16127TIP3    H169872   3.494   0.432  17.250  0.3112 -0.1939  0.3642
16127TIP3    H269873   3.387   0.338  17.198 -0.1170  1.1448 -1.1949
16128TIP3   OH269874   5.105   3.307   1.559  0.2116  0.1096  0.2635
16128TIP3    H169875   5.153   3.224   1.548  0.8937  0.2296  2.0942
16128TIP3    H269876   5.056   3.295   1.640  0.8433  1.7465  0.8927
16129TIP3   OH269877   2.892   2.639  13.604  0.0131  0.9468 -0.2007
16129TIP3    H169878   2.885   2.654  13.699  0.2268  0.0066 -0.0279
16129TIP3    H269879   2.984   2.658  13.585  0.5275 -1.0345  0.1968
16130TIP3   OH269880   4.416   5.835  13.319 -0.0645 -0.2009 -0.0583
16130TIP3    H169881   4.375   5.855  13.235 -0.1872 -0.3313 -0.0301
16130TIP3    H269882   4.510   5.831  13.299 -0.0865 -0.1562 -0.1740
16131TIP3   OH269883   1.893   4.285  14.090  0.4707 -0.6787  0.3297
16131TIP3    H169884   1.890   4.338  14.010  0.4997 -1.2056 -0.0199
16131TIP3    H269885   1.866   4.198  14.063  0.1281 -0.7760  0.9727
16132TIP3   OH269886   3.407   4.372   1.679 -0.0789  0.0655 -0.5324
16132TIP3    H169887   3.336   4.307   1.674 -0.5130  0.7336 -3.3499
16132TIP3    H269888   3.437   4.382   1.589  4.0953 -0.7055  0.6940
16133TIP3   OH269889   0.147   4.094  11.946  0.0462  0.7031  0.0804
16133TIP3    H169890   0.113   4.013  11.910  0.9895  2.2326 -4.7003
16133TIP3    H269891   0.075   4.157  11.937 -0.0273  0.8880  1.8577
16134TIP3   OH269892   5.774   3.149  14.221  0.6765  0.1651  0.6463
16134TIP3    H169893   5.787   3.197  14.302  0.8240  1.7766 -0.3115
16134TIP3    H269894   5.854   3.164  14.171  0.2738 -0.1757 -0.1062
16135TIP3   OH269895   4.465   3.195  15.582 -0.2545  0.2099  0.0043
16135TIP3    H169896   4.370   3.199  15.575 -0.2008  0.7385 -0.4703
16135TIP3    H269897   4.497   3.237  15.502  0.3840  1.5470  0.9445
16136TIP3   OH269898   3.179   6.548  11.555  0.0320  1.5807 -0.0421
16136TIP3    H169899   3.122   6.479  11.523 -1.5880  3.0073 -0.3070
16136TIP3    H269900   3.190   6.528  11.648  1.7602 -0.4969 -0.6479
16137TIP3   OH269901   1.402   3.041  15.736  0.3129 -0.0882 -0.5784
16137TIP3    H169902   1.444   3.123  15.761 -0.0161 -0.0176 -0.2715
16137TIP3    H269903   1.465   2.973  15.761  0.4947  0.0562 -0.6437
16138TIP3   OH269904   2.119   2.812  11.643 -0.3663 -0.6261  0.1102
16138TIP3    H169905   2.101   2.740  11.703  0.3024  0.1360  1.2489
16138TIP3    H269906   2.197   2.785  11.595 -0.2409 -0.7459  0.3836
16139TIP3   OH269907   1.579   1.866  10.548  0.2050 -0.1365 -0.0087
16139TIP3    H169908   1.547   1.801  10.487 -0.6216  1.5167 -1.3725
16139TIP3    H269909   1.671   1.843  10.561  0.5560 -0.1899 -2.3349
16140TIP3   OH269910   5.010   6.764  11.316 -0.0793 -0.2415 -0.4051
16140TIP3    H169911   5.057   6.833  11.269 -2.4202  0.4807 -1.8051
16140TIP3    H269912   5.013   6.688  11.259  1.0232 -0.7745  0.3612
16141TIP3   OH269913   5.442   1.888   1.706 -0.4106  0.1259  0.0890
16141TIP3    H169914   5.386   1.867   1.780  0.9759  2.8985  2.0184
16141TIP3    H269915   5.409   1.971   1.673  1.6543  1.1204  0.4100
16142TIP3   OH269916   5.371   5.420  14.307 -0.0861  0.1887  0.1277
16142TIP3    H169917   5.355   5.458  14.221  0.5448  1.0247  0.3789
16142TIP3    H269918   5.369   5.494  14.368  2.4857  0.0660  0.4453
16143TIP3   OH269919   2.181   4.409   3.799 -0.2573 -0.3105 -0.7503
16143TIP3    H169920   2.242   4.481   3.815 -0.8154 -0.1593  0.7522
16143TIP3    H269921   2.235   4.341   3.756  0.7918  0.1056 -0.1153
16144TIP3   OH269922   1.910   3.338  13.262  0.0131 -0.0776  0.2357
16144TIP3    H169923   1.993   3.379  13.241  0.4609 -0.7883  0.5974
16144TIP3    H269924   1.891   3.282  13.187 -0.5007  0.6384 -0.1720
16145TIP3   OH269925   0.038   3.456  14.283 -0.6951 -0.1013 -0.0765
16145TIP3    H169926   0.012   3.497  14.365  0.8439  0.0558  0.3466
16145TIP3    H269927   0.067   3.529  14.228 -0.1191 -0.3781 -0.1448
16146TIP3   OH269928   3.950   1.718  15.046 -0.5173 -0.3461  0.6016
16146TIP3    H169929   3.953   1.745  15.138  1.9013 -0.0428  0.4596
16146TIP3    H269930   4.021   1.654  15.037 -0.4222 -0.0167 -1.1624
16147TIP3   OH269931   4.690   2.159  12.594  0.1522  0.1116  0.3975
16147TIP3    H169932   4.728   2.122  12.514 -0.6965 -0.0749  0.0779
16147TIP3    H269933   4.647   2.085  12.637  0.1869  0.3148  0.7862
16148TIP3   OH269934   4.380   2.256  17.180  0.0457 -0.7117 -0.4661
16148TIP3    H169935   4.462   2.214  17.152 -0.5429 -1.0656 -1.6652
16148TIP3    H269936   4.409   2.332  17.230  1.1145 -0.4635 -1.4476
16149TIP3   OH269937   2.925   0.304   1.226  0.7594 -0.1792  0.7268
16149TIP3    H169938   3.007   0.270   1.260  0.9922 -1.7997 -1.3385
16149TIP3    H269939   2.907   0.251   1.148 -1.5153  1.0786  0.3317
16150TIP3   OH269940   0.281   4.041  15.954  0.2707  0.0754 -0.4962
16150TIP3    H169941   0.343   3.968  15.960  1.2510  0.9026 -0.3860
16150TIP3    H269942   0.294   4.090  16.036 -0.7865  0.0538 -0.3112
16151TIP3   OH269943   3.395   6.511  13.523 -0.1318  0.1255  0.5078
16151TIP3    H169944   3.300   6.501  13.525 -0.0857 -0.3042  0.5538
16151TIP3    H269945   3.420   6.479  13.436  0.2019 -1.7782  1.2942
16152TIP3   OH269946   5.581   4.707  11.488 -0.3236  0.4507 -0.0659
16152TIP3    H169947   5.630   4.728  11.408  2.0682 -0.0031  1.2401
16152TIP3    H269948   5.557   4.793  11.523  1.7097  0.8013  0.5670
16153TIP3   OH269949   2.380   1.724   2.332 -0.6257  0.4516 -0.1263
16153TIP3    H169950   2.377   1.808   2.378 -0.3116  0.2332  0.2933
16153TIP3    H269951   2.424   1.744   2.249 -0.3837  0.6650  0.0514
16154TIP3   OH269952   0.764   1.663  16.615  0.2208  0.2272  0.8015
16154TIP3    H169953   0.800   1.627  16.534  0.3570 -1.6722  1.6891
16154TIP3    H269954   0.789   1.755  16.613  1.4520 -0.1214 -0.6443
16155TIP3   OH269955   3.278   5.084  16.341 -0.2078  0.1629  0.3277
16155TIP3    H169956   3.331   5.034  16.279  1.0224  0.0730  1.4309
16155TIP3    H269957   3.189   5.080  16.306  0.2713 -0.9029 -0.7826
16156TIP3   OH269958   1.038   6.025   2.989 -0.0790 -0.5683  0.8963
16156TIP3    H169959   1.082   6.045   2.907  0.6222 -1.7840  0.9640
16156TIP3    H269960   1.083   6.077   3.055 -1.5237  1.4547  0.3140
16157TIP3   OH269961   4.731   1.171  15.718 -0.2112  0.3912 -0.7982
16157TIP3    H169962   4.788   1.104  15.681 -0.8537 -0.0023 -1.0722
16157TIP3    H269963   4.647   1.128  15.731 -1.1715  1.6006 -2.6746
16158TIP3   OH269964   3.214   2.196  17.260  0.0141  0.1182  0.2167
16158TIP3    H169965   3.285   2.241  17.305 -0.5523 -0.0808  1.3309
16158TIP3    H269966   3.185   2.129  17.322  0.4354 -1.3868 -1.1791
16159TIP3   OH269967   5.842   5.629  12.070 -0.7718 -0.2775  0.1991
16159TIP3    H169968   5.893   5.693  12.021 -0.5466 -0.3933  0.2784
16159TIP3    H269969   5.772   5.679  12.111  0.2083  0.1429  1.3907
16160TIP3   OH269970   2.243   5.942  13.193  0.5821  0.2036 -0.2723
16160TIP3    H169971   2.276   5.883  13.260  1.1704 -0.7872 -1.4039
16160TIP3    H269972   2.147   5.938  13.203  0.5240 -2.2100 -1.3490
16161TIP3   OH269973   0.513   3.519   4.418 -0.0162 -0.1857  0.5667
16161TIP3    H169974   0.571   3.488   4.487  0.4392 -0.8859 -0.1140
16161TIP3    H269975   0.538   3.467   4.341  1.4665  2.5449 -0.9003
16162TIP3   OH269976   2.687   6.745  12.849 -0.0881  0.0768 -0.5238
16162TIP3    H169977   2.725   6.814  12.903 -0.9406  0.7332 -0.7453
16162TIP3    H269978   2.612   6.714  12.900  1.1337 -1.6971  0.2410
16163TIP3   OH269979   3.989   4.440  12.333 -0.3125 -0.2287  0.2748
16163TIP3    H169980   3.935   4.361  12.338  0.1127 -0.4369  1.8553
16163TIP3    H269981   3.940   4.499  12.275 -0.5431 -1.7053 -1.0413
16164TIP3   OH269982   4.989   0.167  12.252 -0.1382 -0.0764  0.0937
16164TIP3    H169983   4.941   0.181  12.334  2.4113  0.8397  1.4630
16164TIP3    H269984   5.081   0.166  12.278  0.7445  0.9463 -2.8627
16165TIP3   OH269985   3.232   2.958  15.409 -0.3522 -0.4564  0.0207
16165TIP3    H169986   3.179   3.006  15.473 -0.6112  0.2633 -0.7304
16165TIP3    H269987   3.321   2.987  15.425 -0.1764 -1.6160  1.2410
16166TIP3   OH269988   3.652   5.149   1.081  0.2739  0.4843  0.9635
16166TIP3    H169989   3.600   5.104   1.148 -0.8809  0.9509  0.4040
16166TIP3    H269990   3.694   5.221   1.127  1.3839 -0.5989  1.6673
16167TIP3   OH269991   6.217   3.673   2.801  0.6249  0.1435 -0.2513
16167TIP3    H169992   6.309   3.648   2.804  0.0306 -2.2837 -1.4107
16167TIP3    H269993   6.201   3.698   2.709  0.0205  0.1439 -0.1512
16168TIP3   OH269994   3.573   6.248  11.608 -0.2469 -0.0295 -0.2232
16168TIP3    H169995   3.667   6.246  11.588 -0.1690  0.9962 -0.0046
16168TIP3    H269996   3.551   6.341  11.607 -1.1555 -0.2363  0.2365
16169TIP3   OH269997   1.719   4.702  11.902  0.1165  0.2196  0.0745
16169TIP3    H169998   1.754   4.790  11.896  0.1212  0.2442  0.4506
16169TIP3    H269999   1.627   4.714  11.924  0.2602  0.1165  0.7347
16170TIP3   OH270000   2.394   1.410   3.724  0.1737  0.2680 -0.0773
16170TIP3    H170001   2.474   1.360   3.711  0.1259 -0.1418  1.1730
16170TIP3    H270002   2.379   1.453   3.640  1.5208  0.0907 -0.4155
16171TIP3   OH270003   5.304   4.610   2.149  0.3349 -0.0297  0.1041
16171TIP3    H170004   5.226   4.665   2.158  0.2190 -0.1595 -0.1088
16171TIP3    H270005   5.370   4.668   2.112 -0.2079 -0.4007 -1.4901
16172TIP3   OH270006   0.350   3.547  14.583 -0.2311  0.0437 -0.0541
16172TIP3    H170007   0.412   3.550  14.510 -1.4948  0.5118 -1.1201
16172TIP3    H270008   0.298   3.469  14.567  0.2174 -0.4720  0.9649
16173TIP3   OH270009   2.673   5.583   3.943 -0.3885  0.6969  0.0995
16173TIP3    H170010   2.680   5.502   3.992 -0.5100  1.0442  0.6893
16173TIP3    H270011   2.624   5.559   3.864 -1.2778  0.3929  0.7290
16174TIP3   OH270012   0.022   2.656  12.343  0.5560  0.0373  0.1950
16174TIP3    H170013   0.009   2.575  12.393  0.0868  0.1909  0.3255
16174TIP3    H270014   0.098   2.697  12.383 -1.1839  1.3064  2.3138
16175TIP3   OH270015   3.624   1.712  11.281  0.1992 -0.2081  0.4402
16175TIP3    H170016   3.703   1.662  11.258  0.5045 -0.0631  1.1880
16175TIP3    H270017   3.654   1.803  11.284  0.0999 -0.2000  1.1631
16176TIP3   OH270018   0.225   5.962   2.308 -0.2352 -0.1453  0.4625
16176TIP3    H170019   0.310   5.997   2.279  0.3054 -1.8436 -0.0582
16176TIP3    H270020   0.165   6.036   2.301  0.8354  0.6306 -0.8083
16177TIP3   OH270021   2.443   2.201   5.826  0.3053  0.1219  0.2661
16177TIP3    H170022   2.385   2.128   5.806 -2.1011  1.9877  0.1656
16177TIP3    H270023   2.403   2.244   5.901  1.7634  1.2353  0.4368
16178TIP3   OH270024   5.600   4.617  14.442  0.7809  0.3089  0.3359
16178TIP3    H170025   5.546   4.564  14.500  0.9815  0.2563  0.4753
16178TIP3    H270026   5.690   4.600  14.471  0.7198  2.8160  2.1921
16179TIP3   OH270027   2.576   4.302  12.681  0.4988  0.2383 -0.3336
16179TIP3    H170028   2.588   4.296  12.586 -0.5905 -0.3502 -0.4433
16179TIP3    H270029   2.558   4.395  12.696 -0.5693  0.1286 -0.8670
16180TIP3   OH270030   5.650   6.397  17.272 -0.2605 -0.3048  0.4939
16180TIP3    H170031   5.662   6.481  17.226 -1.4781 -0.5810 -0.3514
16180TIP3    H270032   5.625   6.336  17.203 -3.7081 -0.3845  1.7115
16181TIP3   OH270033   6.452   2.358   3.213  0.4384  0.1693 -0.3665
16181TIP3    H170034   6.444   2.319   3.300  0.2615  0.2978 -0.3245
16181TIP3    H270035   6.431   2.450   3.226  0.0559  0.1176 -0.6081
16182TIP3   OH270036   2.038   2.074   0.450 -0.1803 -0.1941 -0.1417
16182TIP3    H170037   2.018   1.987   0.484 -2.0813  0.7035  1.1105
16182TIP3    H270038   1.953   2.115   0.438  0.6604  1.1895 -1.5643
16183TIP3   OH270039   4.189   0.691  13.573 -0.0068  0.6510  0.1331
16183TIP3    H170040   4.239   0.725  13.499 -0.3526  2.5305  0.7447
16183TIP3    H270041   4.099   0.720  13.557 -0.6068 -1.2010 -0.0549
16184TIP3   OH270042   3.967   4.308  16.940 -0.6285  0.1016 -0.0366
16184TIP3    H170043   3.936   4.399  16.937  2.1719  1.1202  0.1958
16184TIP3    H270044   4.008   4.300  17.025 -4.3553 -2.6779  1.6437
16185TIP3   OH270045   1.186   6.376   4.156 -0.8116 -0.0807 -0.5961
16185TIP3    H170046   1.256   6.348   4.214 -0.7455  2.5492  0.6729
16185TIP3    H270047   1.224   6.370   4.068  0.5096 -0.0593 -0.0342
16186TIP3   OH270048   2.557   0.661  10.672  0.2890 -0.0433 -0.0038
16186TIP3    H170049   2.483   0.717  10.653  2.0603  2.3222 -0.1673
16186TIP3    H270050   2.571   0.611  10.591 -0.6189  0.0654 -0.2275
16187TIP3   OH270051   3.663   0.300  11.853 -0.2564 -0.2385  0.0473
16187TIP3    H170052   3.667   0.385  11.809  0.8825 -0.5229 -0.4187
16187TIP3    H270053   3.730   0.306  11.921  0.3193 -1.0014 -0.4431
16188TIP3   OH270054   3.008   0.690  16.351 -0.1960 -0.8651  0.0477
16188TIP3    H170055   3.057   0.614  16.381 -0.8438 -0.7848  1.3769
16188TIP3    H270056   3.061   0.765  16.378 -0.2296 -0.8197 -0.0115
16189TIP3   OH270057   4.887   3.009  15.561  0.2258  0.3071  0.2514
16189TIP3    H170058   4.858   2.945  15.495 -1.5209  0.4135  0.8792
16189TIP3    H270059   4.820   3.004  15.629  0.3721  2.4094  0.5708
16190TIP3   OH270060   0.258   5.245   1.387 -0.1292  0.0791 -0.0147
16190TIP3    H170061   0.240   5.204   1.302 -2.3832 -2.6721  1.7434
16190TIP3    H270062   0.189   5.310   1.397  0.8188  1.2427 -0.7425
16191TIP3   OH270063   5.209   2.143  13.163  0.4632  0.1123 -0.6054
16191TIP3    H170064   5.197   2.122  13.071  1.8949  0.4691 -0.8873
16191TIP3    H270065   5.149   2.217  13.179 -1.0367 -1.0277 -0.7955
16192TIP3   OH270066   3.676   1.289   2.339  0.2517 -0.2739 -0.2052
16192TIP3    H170067   3.745   1.223   2.335  2.4206  1.9126 -0.3190
16192TIP3    H270068   3.641   1.282   2.428  1.6862 -0.3700  0.3627
16193TIP3   OH270069   0.450   4.961   1.650  0.6129  0.0412  0.5919
16193TIP3    H170070   0.514   4.917   1.707  1.1095 -0.1474 -0.0953
16193TIP3    H270071   0.472   4.929   1.562 -2.2126 -2.2260  0.6325
16194TIP3   OH270072   1.731   6.053   3.924  0.2486 -0.0106 -0.3536
16194TIP3    H170073   1.639   6.061   3.901  0.6489 -1.7053 -2.6437
16194TIP3    H270074   1.746   6.125   3.987 -1.9561  1.9220 -1.9519
16195TIP3   OH270075   2.825   1.811   1.964 -0.4656  0.0500  0.4502
16195TIP3    H170076   2.841   1.727   1.920  0.8574  0.4056  0.2171
16195TIP3    H270077   2.896   1.818   2.028 -1.0451  0.6088  1.0369
16196TIP3   OH270078   4.082   5.183   4.910 -0.3360 -0.0243  0.5365
16196TIP3    H170079   4.154   5.238   4.941 -0.9647  1.1400 -0.0819
16196TIP3    H270080   4.125   5.107   4.872  0.5075 -1.1128  3.4637
16197TIP3   OH270081   6.609   1.173  15.799  0.6800  0.0723 -0.1245
16197TIP3    H170082   6.645   1.217  15.876  1.7413  0.9075 -1.0873
16197TIP3    H270083   6.523   1.213  15.786 -0.9852 -2.3305  2.5373
16198TIP3   OH270084   4.731   0.048  16.530  0.1467 -0.0773  0.5912
16198TIP3    H170085   4.778  -0.029  16.496 -0.8124 -1.0054  1.3621
16198TIP3    H270086   4.640   0.035  16.503 -0.5747 -0.6424  3.1374
16199TIP3   OH270087   4.656   4.099   4.451 -0.1664  0.3832 -0.0663
16199TIP3    H170088   4.618   4.165   4.510  0.5821  0.1688  0.6669
16199TIP3    H270089   4.659   4.142   4.366  2.5540  2.1833  0.8939
16200TIP3   OH270090   0.951   6.413   3.363  0.4450  0.3662 -0.1819
16200TIP3    H170091   1.029   6.439   3.315 -0.6093 -0.6238 -2.5447
16200TIP3    H270092   0.963   6.320   3.381  1.0149  0.8185  1.8927
16201TIP3   OH270093   4.764   5.543   5.379  0.6569 -0.2071 -0.0855
16201TIP3    H170094   4.673   5.519   5.397  0.9725 -0.9584  0.5445
16201TIP3    H270095   4.798   5.571   5.464  0.3865  2.2441 -0.7421
16202TIP3   OH270096   5.383   1.065  15.398  0.4893 -0.0027  0.0155
16202TIP3    H170097   5.449   1.133  15.415  0.3235  0.7585 -2.1901
16202TIP3    H270098   5.337   1.096  15.321  0.4110 -2.6358 -1.0427
16203TIP3   OH270099   3.277   2.578   5.669  0.4753 -0.5976  0.5568
16203TIP3    H170100   3.300   2.602   5.579 -1.4970  0.9429  0.4282
16203TIP3    H270101   3.345   2.618   5.722  1.3377 -1.0345 -0.2045
16204TIP3   OH270102   6.539   6.629  11.222 -0.0539 -0.0900  0.1007
16204TIP3    H170103   6.472   6.677  11.174  0.4546 -0.0128 -0.5355
16204TIP3    H270104   6.539   6.669  11.309  0.3378  1.0399 -0.4125
16205TIP3   OH270105   0.402   6.797   5.841  0.0202 -0.3406  0.4313
16205TIP3    H170106   0.454   6.857   5.788 -0.4880  1.0579  1.4630
16205TIP3    H270107   0.347   6.751   5.779  0.0012  0.7014 -0.3371
16206TIP3   OH270108   2.020   3.338   3.244 -0.2569  0.1819  0.1003
16206TIP3    H170109   1.954   3.270   3.257 -1.3537  1.4100  1.1224
16206TIP3    H270110   2.074   3.334   3.324  0.9735 -0.8768 -0.7693
16207TIP3   OH270111   0.073   0.786  15.777  0.2106  0.5653  0.3218
16207TIP3    H170112   0.106   0.734  15.850  0.9932 -1.3294 -1.3265
16207TIP3    H270113   0.002   0.734  15.739  0.7356  0.8491 -1.1060
16208TIP3   OH270114   1.415   2.214  16.749  0.1320  0.0039  0.1508
16208TIP3    H170115   1.328   2.251  16.731 -0.4409 -1.5590 -0.3594
16208TIP3    H270116   1.400   2.156  16.824  0.0944 -2.6090 -1.8257
16209TIP3   OH270117   3.852   1.846   0.664 -0.1561  0.2675 -0.8358
16209TIP3    H170118   3.825   1.937   0.652  1.4009  0.5511 -2.2480
16209TIP3    H270119   3.947   1.847   0.655  0.4553 -0.7388  4.0222
16210TIP3   OH270120   4.689   4.286   5.077  0.0977  0.0167 -0.3639
16210TIP3    H170121   4.602   4.251   5.097  0.2100  0.2506  0.5626
16210TIP3    H270122   4.744   4.209   5.068  0.3155 -0.0698  1.5444
16211TIP3   OH270123   2.286   5.111   4.933 -0.0468 -0.2125 -0.0820
16211TIP3    H170124   2.355   5.169   4.963  3.3012 -2.9483 -2.1303
16211TIP3    H270125   2.319   5.023   4.949 -3.2440 -1.6228 -0.7411
16212TIP3   OH270126   0.090   3.198   0.175  0.1145 -0.0440 -0.0839
16212TIP3    H170127   0.156   3.177   0.241 -0.0246 -2.4711 -0.6589
16212TIP3    H270128   0.139   3.207   0.094 -0.0468 -0.0090 -0.1769
16213TIP3   OH270129   4.183   6.513  15.923  0.1938 -0.2484  0.1909
16213TIP3    H170130   4.155   6.444  15.982 -0.1681  0.0983  0.4245
16213TIP3    H270131   4.195   6.469  15.839  0.0725 -0.6135  0.3630
16214TIP3   OH270132   3.709   4.166   4.235  0.3617 -0.0156  0.2519
16214TIP3    H170133   3.771   4.095   4.220  0.5490  0.4331 -1.1985
16214TIP3    H270134   3.661   4.174   4.153 -0.1681  1.0388  0.6526
16215TIP3   OH270135   4.765   4.609  13.468  0.1191  0.1416 -0.0747
16215TIP3    H170136   4.797   4.608  13.378 -0.3358  0.2663 -0.2424
16215TIP3    H270137   4.794   4.693  13.503  0.0308  0.2257 -0.2045
16216TIP3   OH270138   4.070   2.782   3.059 -0.0503 -0.8235 -0.6718
16216TIP3    H170139   3.991   2.746   3.098  0.6870 -2.3490 -0.5426
16216TIP3    H270140   4.133   2.786   3.131 -1.4550  5.1401  0.4599
16217TIP3   OH270141   0.708   3.959   6.202 -0.7293 -0.0666  0.4096
16217TIP3    H170142   0.687   3.890   6.139 -0.1978  1.6739 -1.7438
16217TIP3    H270143   0.803   3.969   6.197 -0.7641  0.6137  0.9486
16218TIP3   OH270144   0.239   6.019  16.120 -0.5087  0.4865  0.0726
16218TIP3    H170145   0.301   5.973  16.063 -1.4997  0.3351 -0.8934
16218TIP3    H270146   0.176   6.059  16.059 -1.6403  0.2316  1.0738
16219TIP3   OH270147   6.738   1.971  16.246  0.7179  0.0335  0.3543
16219TIP3    H170148   6.698   2.034  16.305  0.0329  0.4939 -0.5946
16219TIP3    H270149   6.745   2.017  16.162 -1.6439 -1.7662 -0.8999
16220TIP3   OH270150   0.722   4.423  12.634 -0.6083  0.0014  0.8098
16220TIP3    H170151   0.814   4.432  12.658  0.3867 -3.2555 -1.4604
16220TIP3    H270152   0.723   4.393  12.543 -3.9953  1.6276  0.1207
16221TIP3   OH270153   1.694   6.715  16.364 -0.0284 -0.2923 -0.1777
16221TIP3    H170154   1.777   6.759  16.347 -0.4170 -0.0261 -1.4517
16221TIP3    H270155   1.714   6.649  16.429  0.8087  1.0213  0.9285
16222TIP3   OH270156   0.275   0.133   5.184  0.4818  0.6400  0.2411
16222TIP3    H170157   0.316   0.207   5.229 -0.2357  2.0272 -1.3321
16222TIP3    H270158   0.344   0.097   5.128 -0.2060  2.5887 -1.9415
16223TIP3   OH270159   6.646   2.789   5.082  0.2522 -0.0832 -0.3404
16223TIP3    H170160   6.623   2.879   5.063  1.9288  0.4876  0.2090
16223TIP3    H270161   6.586   2.736   5.030 -0.3759  1.3579 -1.0792
16224TIP3   OH270162   3.530   5.488  12.310 -0.1373  0.2108 -0.0898
16224TIP3    H170163   3.601   5.552  12.303 -0.3084  0.4643  0.4182
16224TIP3    H270164   3.519   5.475  12.404 -0.7751  0.1937 -0.1600
16225TIP3   OH270165   6.194   3.432  13.820  0.2251 -0.3118 -0.4325
16225TIP3    H170166   6.168   3.360  13.762  0.3811 -0.8510  0.1534
16225TIP3    H270167   6.247   3.490  13.765  1.7389 -1.6526 -0.4401
16226TIP3   OH270168   4.468   3.763   6.783  0.5170 -0.2685  0.0507
16226TIP3    H170169   4.448   3.848   6.743 -0.7659  0.3528  1.9623
16226TIP3    H270170   4.398   3.706   6.751  0.7225 -0.3210 -0.3099
16227TIP3   OH270171   5.174   3.930   4.604  0.7168 -0.7616  0.0338
16227TIP3    H170172   5.187   3.949   4.511  0.4883 -2.1978 -0.3032
16227TIP3    H270173   5.089   3.886   4.608  1.3541 -1.9693  0.7343
16228TIP3   OH270174   1.436   4.897   5.017  0.2177 -0.2204 -0.5418
16228TIP3    H170175   1.448   4.959   5.089  0.4672 -0.1626 -0.6306
16228TIP3    H270176   1.511   4.837   5.024 -0.2929 -0.8266 -0.1438
16229TIP3   OH270177   3.415   6.785  12.139  0.0541 -0.0137  0.2947
16229TIP3    H170178   3.324   6.795  12.112  0.1425  0.1877  0.0711
16229TIP3    H270179   3.451   6.874  12.137 -0.3283  0.2272  2.4583
16230TIP3   OH270180   1.620   1.870   4.956  0.2311  0.0059  0.1467
16230TIP3    H170181   1.597   1.949   5.005 -1.1569 -0.9903  1.1325
16230TIP3    H270182   1.579   1.882   4.871 -0.1512  0.2605  0.3662
16231TIP3   OH270183   3.437   4.359  17.163  0.0859  0.0792 -0.3321
16231TIP3    H170184   3.354   4.397  17.134  0.0095  0.5286  0.4494
16231TIP3    H270185   3.503   4.408  17.115 -0.0248  1.0681  0.5028
16232TIP3   OH270186   1.012   3.134   4.942 -0.4412  0.0241 -0.6048
16232TIP3    H170187   1.022   3.041   4.922  0.3347  0.2036 -1.0797
16232TIP3    H270188   1.072   3.150   5.015  0.6880  0.4929 -1.5999
16233TIP3   OH270189   1.672   4.671  12.226  0.4267 -0.4008 -0.5123
16233TIP3    H170190   1.604   4.627  12.276 -0.4311  0.6330 -0.7445
16233TIP3    H270191   1.625   4.733  12.170  1.5842  0.8302 -0.1717
16234TIP3   OH270192   2.005   5.194  11.453  0.8305 -0.0929 -0.3094
16234TIP3    H170193   1.971   5.269  11.405  2.3121 -0.1823 -1.5384
16234TIP3    H270194   2.010   5.223  11.544  0.6125  1.0243 -0.6515
16235TIP3   OH270195   3.924   5.792   2.568  0.5992 -0.6216 -0.3944
16235TIP3    H170196   3.854   5.812   2.629 -1.3255 -0.2756 -2.6812
16235TIP3    H270197   3.987   5.864   2.578  0.0463 -0.2949  0.7629
16236TIP3   OH270198   1.329   4.145  15.128  0.3871 -0.4286  0.1748
16236TIP3    H170199   1.357   4.066  15.081  0.4000 -1.6529  2.1545
16236TIP3    H270200   1.288   4.111  15.208 -0.6936  1.5538  0.4832
16237TIP3   OH270201   0.861   6.758   5.242 -0.3567 -0.2166  0.7539
16237TIP3    H170202   0.800   6.831   5.234  0.7109  0.7014  0.7974
16237TIP3    H270203   0.876   6.748   5.336 -1.3669 -1.2517  0.8265
16238TIP3   OH270204   3.399   3.365  14.734  1.0443 -0.1539 -0.5046
16238TIP3    H170205   3.479   3.416  14.722  2.6100 -1.8681  1.8971
16238TIP3    H270206   3.401   3.300  14.664  0.4663  1.3495 -1.9248
16239TIP3   OH270207   6.794   5.765   4.740 -0.2465  1.0921  0.0948
16239TIP3    H170208   6.795   5.698   4.672  0.8206 -0.3152  1.4635
16239TIP3    H270209   6.713   5.748   4.789 -0.5576  1.5487 -0.2464
16240TIP3   OH270210   1.278   0.325  11.063  0.2269  0.9431 -0.8641
16240TIP3    H170211   1.312   0.262  11.128 -3.0729  0.8510  0.8773
16240TIP3    H270212   1.287   0.280  10.979 -2.3786 -2.1042  0.3816
16241TIP3   OH270213   4.658   3.538   2.929  0.8663 -0.4040 -0.7158
16241TIP3    H170214   4.619   3.451   2.931  1.2783 -0.5777  1.2334
16241TIP3    H270215   4.605   3.588   2.867 -1.1025 -1.2374  0.2659
16242TIP3   OH270216   2.997   5.218  16.378 -0.2004  0.2167 -0.2490
16242TIP3    H170217   3.034   5.258  16.298 -0.9468 -0.9778 -1.2018
16242TIP3    H270218   2.903   5.234  16.371 -0.1167  1.4944  1.2011
16243TIP3   OH270219   3.867   1.827  15.469  0.2761  0.6175  0.0477
16243TIP3    H170220   3.801   1.776  15.423  0.5723  1.8479 -1.7849
16243TIP3    H270221   3.843   1.819  15.561 -0.3170 -1.9051 -0.2771
16244TIP3   OH270222   6.753   0.464   4.495  0.1668 -0.5950 -0.0849
16244TIP3    H170223   6.787   0.454   4.584  2.5626  0.1829 -0.8656
16244TIP3    H270224   6.806   0.404   4.442 -0.0627  0.2153 -1.2600
16245TIP3   OH270225   2.990   1.702  11.353  0.5883 -0.2638  0.3319
16245TIP3    H170226   2.942   1.673  11.431  1.0467  0.4723  0.9023
16245TIP3    H270227   3.061   1.639  11.344  1.5516  0.6219  1.5369
16246TIP3   OH270228   1.103   4.279   3.594  0.0520  0.3446  0.3845
16246TIP3    H170229   1.190   4.302   3.626 -0.1247 -0.6321  1.5841
16246TIP3    H270230   1.068   4.361   3.560  0.8060  1.0853  1.3572
16247TIP3   OH270231   5.491   2.433   0.668 -0.1385 -0.5172 -0.0634
16247TIP3    H170232   5.432   2.508   0.666  0.3499 -0.1276 -2.9913
16247TIP3    H270233   5.579   2.471   0.674 -0.0196 -0.9575  0.9897
16248TIP3   OH270234   5.379   2.172   5.441  0.1905 -0.4059 -0.3677
16248TIP3    H170235   5.298   2.167   5.391 -0.2424  0.4619  0.2274
16248TIP3    H270236   5.410   2.262   5.428  0.7538 -0.5658 -0.1385
16249TIP3   OH270237   3.408   2.190  12.783  0.0995  0.1682  0.5833
16249TIP3    H170238   3.340   2.236  12.831 -1.8186 -0.5054 -1.3908
16249TIP3    H270239   3.471   2.163  12.850 -1.1451  1.5147  2.3420
16250TIP3   OH270240   1.988   1.857  14.147 -0.8309 -0.0565 -0.5711
16250TIP3    H170241   2.041   1.854  14.227 -1.2268  0.6932 -0.2853
16250TIP3    H270242   2.053   1.860  14.076 -0.4466 -2.2710 -0.3742
16251TIP3   OH270243   1.935   0.116  14.370  0.2307  0.2668  0.7332
16251TIP3    H170244   2.017   0.067  14.380  0.2074 -0.6312 -2.8533
16251TIP3    H270245   1.963   0.205  14.350  0.2843  0.4205  1.4558
16252TIP3   OH270246   4.931   2.448  12.375  0.0767 -0.0383 -0.2027
16252TIP3    H170247   4.953   2.376  12.315  0.6136 -0.1090  0.0821
16252TIP3    H270248   4.858   2.492  12.332  0.3627 -0.1783 -0.8452
16253TIP3   OH270249   3.834   1.754  16.879 -0.6863 -0.2535 -0.3012
16253TIP3    H170250   3.785   1.830  16.910  0.4785  0.0398  0.9050
16253TIP3    H270251   3.905   1.792  16.826 -1.2811 -0.6275 -1.3855
16254TIP3   OH270252   5.269   1.787   4.344  0.1742 -0.3402  0.2232
16254TIP3    H170253   5.263   1.877   4.310  1.6983  0.2442  1.4626
16254TIP3    H270254   5.362   1.765   4.338 -0.4067 -2.5091 -1.7027
16255TIP3   OH270255   2.614   4.170   5.506 -0.5523 -0.2597  0.2606
16255TIP3    H170256   2.550   4.187   5.436  0.4532  0.2840 -0.5374
16255TIP3    H270257   2.567   4.192   5.587 -1.9770 -1.5960 -0.1743
16256TIP3   OH270258   3.793   0.843  15.889 -0.2603 -0.0254 -0.2012
16256TIP3    H170259   3.753   0.872  15.971 -0.3961  1.0375 -0.6376
16256TIP3    H270260   3.840   0.763  15.913  1.7820  1.5787  1.4667
16257TIP3   OH270261   5.696   2.073   0.026 -0.2312  0.0488 -0.4839
16257TIP3    H170262   5.697   2.037   0.114 -2.5544  0.1478 -0.3943
16257TIP3    H270263   5.612   2.117   0.018  0.2045  0.5937 -2.5341
16258TIP3   OH270264   0.627   6.431  13.248 -0.6985 -0.1004  0.1422
16258TIP3    H170265   0.656   6.405  13.161 -1.2565 -0.9311  0.2012
16258TIP3    H270266   0.533   6.447  13.239 -0.3915  1.8451  0.1263
16259TIP3   OH270267   6.061   2.200   3.116  0.1796 -0.2948 -0.0303
16259TIP3    H170268   5.990   2.259   3.093 -0.0852 -0.6350 -0.0844
16259TIP3    H270269   6.087   2.227   3.204  1.4434  1.2642 -0.8440
16260TIP3   OH270270   2.213   4.900   4.440 -0.2561  0.4271  0.4682
16260TIP3    H170271   2.269   4.955   4.495  1.5538  0.8064 -1.6785
16260TIP3    H270272   2.230   4.811   4.470  0.4735  0.6512  0.7456
16261TIP3   OH270273   5.237   0.681  12.712 -0.2270 -0.2350 -0.5368
16261TIP3    H170274   5.332   0.695  12.722 -0.1425 -1.5854  0.7290
16261TIP3    H270275   5.199   0.733  12.783 -0.2995 -1.4419  0.3044
16262TIP3   OH270276   1.167   2.064   3.686  0.3671  0.2647 -0.1945
16262TIP3    H170277   1.205   2.026   3.765  0.7951  0.6022 -0.2385
16262TIP3    H270278   1.078   2.027   3.683  0.1866  0.6021  0.6858
16263TIP3   OH270279   5.066   2.736  16.496  0.2370 -0.0356  0.3324
16263TIP3    H170280   5.062   2.785  16.414 -1.1036  0.2203  0.5282
16263TIP3    H270281   5.099   2.650  16.471  2.2311  0.8119 -0.0797
16264TIP3   OH270282   1.306   3.509   4.141  0.1446  0.2074  0.3831
16264TIP3    H170283   1.246   3.512   4.066  0.2641  1.8989  0.3378
16264TIP3    H270284   1.264   3.449   4.203 -0.4963 -0.3491 -0.5728
16265TIP3   OH270285   6.370   5.417  14.262  0.6284 -0.6045 -0.0037
16265TIP3    H170286   6.403   5.435  14.174  1.0251 -0.8381  0.0952
16265TIP3    H270287   6.299   5.479  14.274 -1.2026 -2.3157 -1.5067
16266TIP3   OH270288   5.964   2.660  15.667 -0.4531  0.5011  0.7391
16266TIP3    H170289   5.959   2.579  15.718  1.5140 -0.5512 -0.6780
16266TIP3    H270290   5.995   2.725  15.729 -0.9441 -0.0844  1.6155
16267TIP3   OH270291   1.137   5.229   3.916 -0.2615  0.0331  0.1177
16267TIP3    H170292   1.077   5.287   3.871  0.4143  0.8031  0.1949
16267TIP3    H270293   1.211   5.285   3.941 -0.4298 -0.4639  1.8135
16268TIP3   OH270294   0.558   6.186   5.734 -0.0828 -0.3198 -0.1122
16268TIP3    H170295   0.560   6.150   5.646 -2.3459  0.6335 -0.5876
16268TIP3    H270296   0.469   6.169   5.765  0.9588 -1.4924  2.3652
16269TIP3   OH270297   4.456   3.369  12.787  0.9399  0.3709  0.6982
16269TIP3    H170298   4.508   3.292  12.763 -1.6692 -1.1125 -0.4107
16269TIP3    H270299   4.483   3.436  12.724  1.4376 -0.4003  0.0731
16270TIP3   OH270300   5.475   2.690   2.592 -0.0855 -0.4312  0.2717
16270TIP3    H170301   5.481   2.782   2.563  0.2199 -0.1282  1.2688
16270TIP3    H270302   5.385   2.665   2.574 -0.2604  0.1749  0.2847
16271TIP3   OH270303   1.031   3.323  13.024  0.4454 -0.3644  0.1929
16271TIP3    H170304   1.046   3.417  13.011  0.2552 -0.4179 -0.4092
16271TIP3    H270305   1.003   3.317  13.115 -0.3598  0.2729 -0.0022
16272TIP3   OH270306   4.830   1.448  14.950  0.1447 -0.0733  0.1867
16272TIP3    H170307   4.739   1.476  14.939 -0.3849 -2.0259 -0.5392
16272TIP3    H270308   4.861   1.431  14.861  1.2758  0.7013  0.4192
16273TIP3   OH270309   0.880   2.160   0.707 -0.0844  0.4777  0.0576
16273TIP3    H170310   0.821   2.158   0.783  1.6322 -0.0796  1.4093
16273TIP3    H270311   0.916   2.248   0.706 -2.7511  1.6050 -2.2366
16274TIP3   OH270312   5.499   4.638   2.422  0.1031  0.2066 -0.1349
16274TIP3    H170313   5.511   4.569   2.358  1.3293  1.5037 -1.3401
16274TIP3    H270314   5.575   4.630   2.480 -0.6420 -0.5222  0.7641
16275TIP3   OH270315   3.860   0.130   2.857  0.1046  0.1116 -0.4534
16275TIP3    H170316   3.809   0.124   2.938  0.8477 -0.0190  0.0074
16275TIP3    H270317   3.817   0.068   2.797 -0.1973 -0.0987 -0.0212
16276TIP3   OH270318   1.147   4.651   2.173 -0.4518 -0.5566 -0.1977
16276TIP3    H170319   1.148   4.558   2.193  0.4592 -0.1138  1.9441
16276TIP3    H270320   1.060   4.667   2.137  0.1442 -2.6274 -2.7251
16277TIP3   OH270321   4.464   3.035  11.786  0.0930  0.0008 -0.7334
16277TIP3    H170322   4.512   3.032  11.703 -0.5963 -0.2241 -1.1251
16277TIP3    H270323   4.484   3.122  11.822  0.6516 -0.0229 -0.9769
16278TIP3   OH270324   1.920   6.270  13.677  0.4855 -0.8550 -0.3017
16278TIP3    H170325   1.896   6.361  13.694  1.8117 -0.7586  1.0824
16278TIP3    H270326   1.960   6.272  13.590 -0.8339 -0.3781 -0.9204
16279TIP3   OH270327   0.922   2.244   4.976 -0.2335 -0.1738  0.3256
16279TIP3    H170328   0.857   2.285   4.919 -1.2374 -0.9082  0.9039
16279TIP3    H270329   0.983   2.201   4.917  0.9828  2.3462 -0.2963
16280TIP3   OH270330   2.169   2.933   3.436  0.2418 -0.3032  0.0225
16280TIP3    H170331   2.235   3.002   3.423 -0.9123  0.9381  0.6130
16280TIP3    H270332   2.220   2.852   3.436  1.2637  0.2360 -3.9115
16281TIP3   OH270333   2.259   0.566  16.411  0.5041 -0.2514  0.5043
16281TIP3    H170334   2.338   0.586  16.461  0.9543 -2.3644  0.7106
16281TIP3    H270335   2.189   0.566  16.476  0.2974  1.7264  0.3043
16282TIP3   OH270336   2.604   4.348  10.901 -0.5039 -0.1981 -0.4591
16282TIP3    H170337   2.640   4.434  10.921 -1.0976 -0.2054  0.6689
16282TIP3    H270338   2.678   4.298  10.865  0.3181  0.1582  0.7109
16283TIP3   OH270339   0.522   0.956  12.053  0.3488 -0.2904  0.0468
16283TIP3    H170340   0.597   0.905  12.083  1.2162  0.2354 -1.1672
16283TIP3    H270341   0.553   0.999  11.973 -0.5715  1.6073  0.6849
16284TIP3   OH270342   3.727   6.473   2.156  0.2154 -0.0757 -0.2621
16284TIP3    H170343   3.681   6.533   2.097  0.0076  1.9454  1.8577
16284TIP3    H270344   3.819   6.479   2.131  0.0233  0.1614 -0.9046
16285TIP3   OH270345   5.793   3.150  16.861  0.0062  0.2370  0.2466
16285TIP3    H170346   5.887   3.168  16.853 -0.1943  1.0739 -0.2732
16285TIP3    H270347   5.752   3.209  16.798 -0.9980  1.0122  1.6150
16286TIP3   OH270348   6.380   2.986  12.075 -0.5965  0.6609  0.0820
16286TIP3    H170349   6.403   3.072  12.110 -1.5122  0.2288  1.8358
16286TIP3    H270350   6.372   2.931  12.153 -0.9222 -0.7876 -0.9636
16287TIP3   OH270351   1.146   0.183   2.811 -0.1927  0.2871  0.1108
16287TIP3    H170352   1.144   0.194   2.906  1.0676 -1.9386  0.4381
16287TIP3    H270353   1.237   0.203   2.787 -0.2534 -0.1340 -0.4835
16288TIP3   OH270354   2.556   3.444  16.805 -0.1695 -0.1249 -0.7253
16288TIP3    H170355   2.566   3.350  16.790 -0.1754 -0.5168  1.4773
16288TIP3    H270356   2.499   3.474  16.735 -0.8374 -1.9264 -0.9820
16289TIP3   OH270357   4.399   4.733  11.701  0.0311 -0.3959  0.2470
16289TIP3    H170358   4.475   4.677  11.690 -0.1551 -0.6320  0.1674
16289TIP3    H270359   4.407   4.768  11.790  1.4734  1.4107 -0.5369
16290TIP3   OH270360   6.052   3.750   3.872 -0.1615  0.4204 -0.2276
16290TIP3    H170361   5.975   3.725   3.924  0.3907  1.1533  0.9585
16290TIP3    H270362   6.080   3.668   3.830  0.1338 -0.4681  1.6454
16291TIP3   OH270363   4.292   6.330  17.154 -0.4770  0.6761  0.4264
16291TIP3    H170364   4.341   6.249  17.140  1.3907  1.8322  0.0679
16291TIP3    H270365   4.239   6.314  17.231  0.1717 -0.7584  0.5781
16292TIP3   OH270366   5.897   3.046  12.838 -0.2582 -0.3791  0.5900
16292TIP3    H170367   5.932   3.076  12.755 -0.8277 -0.6910  0.2378
16292TIP3    H270368   5.963   3.072  12.903 -0.4130  1.0108  0.2045
16293TIP3   OH270369   3.464   3.841  11.537 -0.8509 -0.4491 -0.3260
16293TIP3    H170370   3.522   3.771  11.509  1.2706 -0.1971  3.1185
16293TIP3    H270371   3.449   3.824  11.630 -1.3581  2.9369  0.2708
16294TIP3   OH270372   3.550   0.767  11.603  0.0819  0.3119  0.1293
16294TIP3    H170373   3.551   0.839  11.665 -2.6994  2.2664 -2.0060
16294TIP3    H270374   3.608   0.796  11.532  0.3172 -0.3292  0.0544
16295TIP3   OH270375   0.861   4.258   5.496  0.3956  0.2955 -0.0083
16295TIP3    H170376   0.932   4.290   5.440 -0.7409  0.3383 -1.4476
16295TIP3    H270377   0.842   4.171   5.462 -0.6986  0.5546 -0.0707
16296TIP3   OH270378   1.712   1.879  12.038  0.7720  0.1399  0.3725
16296TIP3    H170379   1.628   1.923  12.023  0.6808  0.4277  1.7129
16296TIP3    H270380   1.774   1.928  11.983  0.1925  0.3295 -0.1238
16297TIP3   OH270381   1.466   1.902   6.645 -0.7636  0.7876 -0.5464
16297TIP3    H170382   1.431   1.964   6.580 -0.7307 -1.7515 -3.0861
16297TIP3    H270383   1.521   1.843   6.594 -1.7826 -2.0969  1.5917
16298TIP3   OH270384   4.323   1.469  13.244 -0.0715  0.4684  0.2114
16298TIP3    H170385   4.326   1.376  13.222  1.3815  0.1910  1.4959
16298TIP3    H270386   4.413   1.499  13.234 -0.6480  1.9018 -0.8387
16299TIP3   OH270387   2.850   5.062   0.349  0.7425  0.2311 -0.1804
16299TIP3    H170388   2.780   5.018   0.396  0.4320  2.3391  1.3676
16299TIP3    H270389   2.925   5.003   0.358 -0.0966 -0.7569  0.4316
16300TIP3   OH270390   5.864   3.909   5.031 -1.1420  0.2319 -0.4590
16300TIP3    H170391   5.839   3.845   4.965 -1.3362 -0.0239 -0.1406
16300TIP3    H270392   5.801   3.979   5.022 -0.5215  0.6976 -1.2664
16301TIP3   OH270393   2.901   5.481   2.321  0.2203  0.3082  0.1934
16301TIP3    H170394   2.865   5.432   2.395 -1.5017  0.7436 -0.3495
16301TIP3    H270395   2.986   5.512   2.353  2.1731 -4.4184 -0.0338
16302TIP3   OH270396   1.741   5.465   2.446 -0.3352  0.5803 -0.3149
16302TIP3    H170397   1.776   5.472   2.358  0.1192  0.9520 -0.1071
16302TIP3    H270398   1.764   5.376   2.474  0.8799  0.9787 -0.0046
16303TIP3   OH270399   1.521   2.157  14.601 -0.1134 -0.2743 -0.2395
16303TIP3    H170400   1.594   2.218  14.610 -0.1829 -0.2934  0.5012
16303TIP3    H270401   1.445   2.212  14.580 -0.4575  0.0657  1.7521
16304TIP3   OH270402   1.546   6.490   4.605  0.5085 -0.0772  0.6620
16304TIP3    H170403   1.523   6.522   4.692  0.4902 -0.4660  0.8024
16304TIP3    H270404   1.537   6.395   4.611 -1.2950  0.0136 -0.2855
16305TIP3   OH270405   0.152   1.822   1.677  0.2366  0.8696 -0.3429
16305TIP3    H170406   0.190   1.735   1.662 -0.0355  0.8209 -0.7583
16305TIP3    H270407   0.226   1.882   1.670  0.2675  0.7603 -1.0158
16306TIP3   OH270408   3.736   3.941  11.873  0.1805  0.3452 -0.2496
16306TIP3    H170409   3.701   3.977  11.792 -2.3171 -1.0649  0.1608
16306TIP3    H270410   3.830   3.960  11.869 -0.4467  3.5079 -1.7628
16307TIP3   OH270411   5.845   1.486   3.871  0.3980  0.1504  0.2200
16307TIP3    H170412   5.892   1.440   3.800 -1.0492 -0.6523 -0.2317
16307TIP3    H270413   5.765   1.435   3.884 -0.6327  1.8254  0.5904
16308TIP3   OH270414   2.356   3.868   0.650 -0.3676 -0.0411  0.2389
16308TIP3    H170415   2.278   3.910   0.685 -1.7765 -3.1573  1.0644
16308TIP3    H270416   2.418   3.867   0.723 -0.6758 -0.2288  0.4992
16309TIP3   OH270417   3.603   4.550  17.054 -0.4134  0.2257 -0.0672
16309TIP3    H170418   3.687   4.543  17.099 -1.3789 -2.6690  1.4382
16309TIP3    H270419   3.626   4.565  16.963  1.7436 -0.6027  0.3048
16310TIP3   OH270420   4.170   6.489   4.385  0.0396 -0.1396  0.4613
16310TIP3    H170421   4.199   6.400   4.363  0.9108  0.1516  0.4070
16310TIP3    H270422   4.167   6.535   4.300 -1.0138 -0.2829  0.4078
16311TIP3   OH270423   2.467   3.152   5.350 -0.1105  0.2463  0.1525
16311TIP3    H170424   2.445   3.060   5.367  0.9901  0.2569  1.7360
16311TIP3    H270425   2.489   3.154   5.257  0.6172 -1.2611  0.2693
16312TIP3   OH270426   1.740   6.071  13.636  0.1857  0.1562 -0.0515
16312TIP3    H170427   1.784   6.148  13.673  0.1085  0.5384 -0.7418
16312TIP3    H270428   1.725   6.094  13.544 -1.8413  0.1931  0.2752
16313TIP3   OH270429   5.334   4.207  13.647 -0.4273  0.0730  0.3512
16313TIP3    H170430   5.335   4.298  13.676 -1.3111  1.4159 -3.4204
16313TIP3    H270431   5.426   4.183  13.639 -0.1640  1.1235  0.1031
16314TIP3   OH270432   1.851   3.980  14.060  0.1657  0.2441  0.0518
16314TIP3    H170433   1.846   3.971  13.965 -0.0933  0.0523  0.0842
16314TIP3    H270434   1.923   3.921  14.085 -0.2098 -0.2216  0.0455
16315TIP3   OH270435   4.033   2.633  10.214  0.2843  0.1240 -0.1096
16315TIP3    H170436   3.947   2.666  10.187  1.0252  0.4156 -2.1881
16315TIP3    H270437   4.061   2.692  10.283 -1.0870  0.1721  0.4124
16316TIP3   OH270438   2.039   3.501  14.258  0.1519  0.0454  0.2288
16316TIP3    H170439   1.948   3.472  14.262  0.3341 -0.2544  2.5260
16316TIP3    H270440   2.089   3.431  14.298  1.3462  0.4863 -0.4624
16317TIP3   OH270441   5.405   4.337   0.491  0.0720  0.0041  0.1384
16317TIP3    H170442   5.326   4.334   0.437  0.0156  0.1814  0.2116
16317TIP3    H270443   5.453   4.258   0.466  0.5879  0.6632 -0.9993
16318TIP3   OH270444   3.366   4.799   0.877 -0.0688 -0.1614 -0.1266
16318TIP3    H170445   3.334   4.795   0.787  1.0669  1.3147 -0.6204
16318TIP3    H270446   3.460   4.785   0.869  0.0759  0.2387  0.8009
16319TIP3   OH270447   6.707   1.462   2.715 -0.5416  0.4452  0.0860
16319TIP3    H170448   6.752   1.458   2.630 -1.7934 -0.8655 -0.5189
16319TIP3    H270449   6.767   1.513   2.770  0.7239  0.5174 -1.3059
16320TIP3   OH270450   5.523   1.956  13.398 -0.1250 -0.5195  0.6710
16320TIP3    H170451   5.536   2.046  13.429 -0.1948  0.3210 -1.6697
16320TIP3    H270452   5.429   1.942  13.406 -0.2817  0.0595 -0.1498
16321TIP3   OH270453   1.530   5.645   6.295  0.2606 -0.1606 -0.1048
16321TIP3    H170454   1.477   5.717   6.331  0.1037 -0.5910  0.5357
16321TIP3    H270455   1.502   5.568   6.344  2.4317 -0.1676  1.2082
16322TIP3   OH270456   1.810   0.496  13.826  0.1798 -0.9274  0.7336
16322TIP3    H170457   1.784   0.459  13.911  0.2014 -1.7735  0.3721
16322TIP3    H270458   1.820   0.420  13.769 -1.1856 -0.2638 -0.4145
16323TIP3   OH270459   4.340   2.238  15.260  0.0875  0.5057  0.2629
16323TIP3    H170460   4.417   2.224  15.317 -0.4524  0.7260  1.0567
16323TIP3    H270461   4.311   2.327  15.282 -0.8992  0.1112  0.5825
16324TIP3   OH270462   6.756   4.270  11.366 -0.0921 -0.3323  0.1957
16324TIP3    H170463   6.838   4.248  11.411 -0.2284 -1.2794 -0.0051
16324TIP3    H270464   6.743   4.363  11.383  1.7120  0.1245 -0.8849
16325TIP3   OH270465   5.522   3.572  15.545 -0.2453 -0.1832  0.3341
16325TIP3    H170466   5.614   3.598  15.543 -0.8223  2.1016  1.5203
16325TIP3    H270467   5.476   3.642  15.499 -1.4464 -1.0892  0.1252
16326TIP3   OH270468   0.371   4.497  15.629  0.0481  0.0782 -0.6478
16326TIP3    H170469   0.289   4.448  15.625 -0.3849  0.8450 -1.1177
16326TIP3    H270470   0.415   4.477  15.546  0.6406 -0.8380 -0.1348
16327TIP3   OH270471   4.387   5.421  15.640  0.1018 -0.2959  0.0763
16327TIP3    H170472   4.447   5.420  15.565  0.6869 -2.2963  0.5304
16327TIP3    H270473   4.413   5.498  15.691  1.5309 -0.4796 -0.3530
16328TIP3   OH270474   2.003   6.388  14.360  0.0042 -0.3614  0.1022
16328TIP3    H170475   1.923   6.335  14.370 -0.0895  0.1392  2.1551
16328TIP3    H270476   1.999   6.450  14.432  1.3510  0.8686 -0.8709
16329TIP3   OH270477   0.679   2.960   0.016  0.2121 -0.5177  0.4166
16329TIP3    H170478   0.723   2.880  -0.013  0.8509 -0.5438  1.4199
16329TIP3    H270479   0.733   3.031  -0.018  0.7641 -0.5427  1.2424
16330TIP3   OH270480   3.971   5.250  12.747  0.1707 -0.1439  0.0738
16330TIP3    H170481   3.980   5.339  12.713 -0.7978 -0.6945 -1.7238
16330TIP3    H270482   3.973   5.259  12.842  1.4051  1.6387 -0.1172
16331TIP3   OH270483   4.175   4.620  13.402 -0.8057  0.2845  0.4683
16331TIP3    H170484   4.268   4.605  13.419 -0.3171  2.0008 -0.6375
16331TIP3    H270485   4.169   4.634  13.307 -2.0824  0.9324  0.6303
16332TIP3   OH270486   2.173   0.100  16.502 -0.2756  0.1821 -0.2805
16332TIP3    H170487   2.110   0.044  16.548  1.3787 -1.1704  0.4071
16332TIP3    H270488   2.182   0.177  16.558 -1.0785  0.2415 -0.2267
16333TIP3   OH270489   3.755   6.221   3.964 -0.7308 -0.4616 -0.3938
16333TIP3    H170490   3.735   6.270   3.884  1.1609 -0.5151 -0.9300
16333TIP3    H270491   3.776   6.133   3.934 -0.1692 -0.5242  0.1738
16334TIP3   OH270492   4.469   1.672   2.583 -0.0791  0.3025  0.7638
16334TIP3    H170493   4.406   1.611   2.622 -0.2619 -1.8897 -2.7230
16334TIP3    H270494   4.554   1.630   2.596  0.0824  0.5746  0.5989
16335TIP3   OH270495   5.958   1.823  11.100  0.5143 -0.1219  0.1418
16335TIP3    H170496   5.930   1.801  11.012  0.7126 -0.8621  0.2614
16335TIP3    H270497   5.997   1.910  11.092  0.0109  0.0560 -0.3877
16336TIP3   OH270498   6.278   1.054   3.958  0.8873 -0.2283 -0.4891
16336TIP3    H170499   6.275   1.071   4.052  0.9584 -0.2377 -0.4857
16336TIP3    H270500   6.190   1.077   3.927  1.1983  0.8264 -0.6069
16337TIP3   OH270501   1.538   2.849   0.656 -0.5125 -0.0112  0.5262
16337TIP3    H170502   1.555   2.880   0.567 -1.3006  1.6917  0.9390
16337TIP3    H270503   1.513   2.928   0.704 -1.5171 -1.1412  1.9118
16338TIP3   OH270504   0.813   3.693  12.803  0.3638  0.2568 -0.4329
16338TIP3    H170505   0.848   3.613  12.764  0.9539 -0.9065  2.3557
16338TIP3    H270506   0.724   3.671  12.829  0.0827  0.9149 -0.8250
16339TIP3   OH270507   1.491   0.106   2.125 -0.1516  0.5217 -0.1407
16339TIP3    H170508   1.431   0.033   2.111  1.1305 -0.3289 -1.3341
16339TIP3    H270509   1.456   0.178   2.072  0.1884 -0.1478 -1.2826
16340TIP3   OH270510   1.276   4.698   5.889  0.2115 -0.2307 -0.5841
16340TIP3    H170511   1.230   4.674   5.970  0.1746  0.4665 -0.4002
16340TIP3    H270512   1.314   4.784   5.907 -1.2945  0.7347 -1.9320
16341TIP3   OH270513   3.040   2.601  14.581  0.2587  0.1797 -0.2904
16341TIP3    H170514   3.018   2.690  14.607 -1.3904 -0.3737  0.2526
16341TIP3    H270515   3.064   2.557  14.663 -0.3337 -0.2751 -0.3642
16342TIP3   OH270516   3.402   3.923  13.821  0.1554 -0.6398 -0.3974
16342TIP3    H170517   3.473   3.924  13.885  0.3448 -0.3136 -0.6121
16342TIP3    H270518   3.420   3.847  13.766  0.8990  0.0190 -1.0790
16343TIP3   OH270519   2.438   4.535  13.770 -0.4640  0.4413  0.2225
16343TIP3    H170520   2.438   4.520  13.865 -1.6628  3.5633  0.7772
16343TIP3    H270521   2.355   4.499  13.740  0.0841 -0.8960  0.2756
16344TIP3   OH270522   3.406   2.575   0.064  0.0945 -0.3083 -0.0183
16344TIP3    H170523   3.366   2.656   0.096  0.4047 -0.2072  0.1182
16344TIP3    H270524   3.359   2.556  -0.017  0.1103  0.0869 -0.1267
16345TIP3   OH270525   5.434   6.806  11.073  0.1118 -0.2960  0.1917
16345TIP3    H170526   5.351   6.764  11.052  0.0788 -0.8097  1.2953
16345TIP3    H270527   5.498   6.735  11.072  0.3404 -0.0932  0.4512
16346TIP3   OH270528   1.608   6.792   6.025  0.1024  0.0604 -0.3097
16346TIP3    H170529   1.552   6.727   6.067 -0.3796  0.5531 -0.2001
16346TIP3    H270530   1.566   6.808   5.940 -0.6426  1.4073  0.3106
16347TIP3   OH270531   4.744   5.536   0.757 -1.0166  0.2141  0.3668
16347TIP3    H170532   4.678   5.595   0.720 -0.6553  1.0953  1.0984
16347TIP3    H270533   4.698   5.489   0.827 -1.7141 -1.4884 -1.2122
16348TIP3   OH270534   0.610   6.022   6.714 -0.6077 -0.6647 -0.0374
16348TIP3    H170535   0.672   6.069   6.771  1.0278 -1.8179 -0.8245
16348TIP3    H270536   0.525   6.061   6.734  0.6166  2.2703 -0.2747
16349TIP3   OH270537   4.111   0.734  17.210 -0.2631  0.0441  0.3062
16349TIP3    H170538   4.086   0.652  17.167 -1.6674  1.2284 -1.2069
16349TIP3    H270539   4.181   0.769  17.156  1.6721 -1.0674  2.0326
16350TIP3   OH270540   1.592   6.613   1.263  0.4037 -0.4969  1.0697
16350TIP3    H170541   1.660   6.594   1.198  1.7957 -2.1595  2.9588
16350TIP3    H270542   1.572   6.706   1.250  1.9726 -0.3521 -0.5103
16351TIP3   OH270543   2.796   6.266   4.737  0.1854 -0.0525  0.0178
16351TIP3    H170544   2.706   6.287   4.761  0.4785  0.9296  0.2940
16351TIP3    H270545   2.849   6.333   4.781  1.0587 -0.7003 -0.0353
16352TIP3   OH270546   0.433   2.401  11.699 -0.5247 -0.2252 -0.3504
16352TIP3    H170547   0.459   2.468  11.763 -0.8943 -0.9439  0.5642
16352TIP3    H270548   0.508   2.396  11.639 -0.0711  0.2921  0.1546
16353TIP3   OH270549   5.746   0.240  17.120  0.2551 -0.2141  0.0108
16353TIP3    H170550   5.815   0.194  17.072  0.0479  1.5005 -2.0005
16353TIP3    H270551   5.672   0.180  17.119  1.0538 -1.2125  0.3685
16354TIP3   OH270552   5.684   2.625   1.344  0.3086 -0.0306  0.7351
16354TIP3    H170553   5.762   2.593   1.389  1.0219 -0.8055 -0.9967
16354TIP3    H270554   5.714   2.644   1.255 -1.4042 -0.0435  0.1373
16355TIP3   OH270555   3.812   5.547   2.463 -0.1019 -0.0811  0.2209
16355TIP3    H170556   3.888   5.491   2.452  0.0716  0.4539 -1.3652
16355TIP3    H270557   3.847   5.636   2.465 -0.5913  0.1126  0.4777
16356TIP3   OH270558   1.904   3.679   0.848  0.3926  0.2282  0.1263
16356TIP3    H170559   1.940   3.607   0.900 -1.2635  0.6075  1.8695
16356TIP3    H270560   1.961   3.753   0.869  0.9777 -0.1181 -0.2201
16357TIP3   OH270561   3.448   6.424  16.906 -0.1299 -0.7558 -0.1813
16357TIP3    H170562   3.366   6.375  16.893  0.7542 -2.3022 -0.1403
16357TIP3    H270563   3.489   6.381  16.982  0.5022  0.2971  0.0700
16358TIP3   OH270564   6.470   4.020  11.279 -0.3332 -0.5489 -0.0853
16358TIP3    H170565   6.411   4.068  11.336 -0.5201  0.0351 -0.7581
16358TIP3    H270566   6.510   4.086  11.223  1.8709 -0.7928  1.1292
16359TIP3   OH270567   5.030   4.648  11.655 -0.1081  0.1884  0.4778
16359TIP3    H170568   5.044   4.699  11.576  0.8318  0.0524  0.5478
16359TIP3    H270569   5.075   4.565  11.639 -0.1082  0.0702  1.0603
16360TIP3   OH270570   5.558   1.704   2.577 -0.4418 -0.2729 -0.4921
16360TIP3    H170571   5.580   1.615   2.605  0.3398  0.3467  0.9626
16360TIP3    H270572   5.463   1.709   2.589 -0.4499 -0.8168 -0.2672
16361TIP3   OH270573   0.619   2.269  15.850 -0.5417  0.0566 -0.5795
16361TIP3    H170574   0.698   2.314  15.821 -0.0605 -1.4310 -1.6132
16361TIP3    H270575   0.638   2.241  15.940  0.4161 -0.9815 -1.0950
16362TIP3   OH270576   0.818   0.446  15.536 -0.1371  0.3818  0.5135
16362TIP3    H170577   0.777   0.361  15.551 -1.7643  0.8724 -0.8940
16362TIP3    H270578   0.841   0.446  15.443  0.0190  1.4020  0.5400
16363TIP3   OH270579   4.927   4.990   1.395 -0.4367  0.1264  0.7186
16363TIP3    H170580   4.943   4.933   1.320 -0.8512  0.4756  0.3593
16363TIP3    H270581   4.890   4.932   1.462  0.6888 -0.3409  0.9464
16364TIP3   OH270582   2.172   2.129   0.871 -0.0092  0.2142  0.0942
16364TIP3    H170583   2.161   2.149   0.964  0.6204 -0.6064  0.3528
16364TIP3    H270584   2.225   2.201   0.837  0.2652  0.2109  0.5062
16365TIP3   OH270585   6.563   2.398  13.388  0.1625 -0.2502  0.5115
16365TIP3    H170586   6.632   2.463  13.402 -0.1568 -0.0136  0.9779
16365TIP3    H270587   6.485   2.439  13.424 -0.1117 -0.7507  0.4739
16366TIP3   OH270588   1.017   5.475  17.226 -0.5553  0.5189  0.0709
16366TIP3    H170589   0.952   5.465  17.296  0.4676 -0.5960  0.8898
16366TIP3    H270590   1.101   5.462  17.270  0.1231  0.2764 -1.2813
16367TIP3   OH270591   0.019   3.975  10.629 -0.0785 -0.0114  0.3750
16367TIP3    H170592   0.018   3.896  10.575  0.7232 -0.8866  1.6176
16367TIP3    H270593   0.110   3.986  10.654  0.1512  2.4452 -1.4054
16368TIP3   OH270594   3.788   0.214  13.143  0.2670 -0.0655 -0.5832
16368TIP3    H170595   3.704   0.247  13.110  0.0090 -1.2816 -1.1562
16368TIP3    H270596   3.772   0.121  13.160  1.9959 -0.7345 -2.4011
16369TIP3   OH270597   1.385   0.619  12.723  0.0899  0.0676 -0.7527
16369TIP3    H170598   1.357   0.711  12.727 -1.3604 -0.4271  2.5846
16369TIP3    H270599   1.329   0.581  12.655 -0.6994  1.2311 -0.7892
16370TIP3   OH270600   3.650   3.136  14.751  0.2354  0.1989 -0.8411
16370TIP3    H170601   3.735   3.107  14.784  0.1424 -0.8854 -1.5266
16370TIP3    H270602   3.671   3.208  14.691  0.4988  1.2979  0.5669
16371TIP3   OH270603   6.634   3.231  13.610  0.1415 -0.6350 -0.0289
16371TIP3    H170604   6.679   3.178  13.545  1.3700 -0.8722  1.0042
16371TIP3    H270605   6.569   3.281  13.559  0.3651 -1.5885 -1.2764
16372TIP3   OH270606   4.178   4.331   3.451  0.2867 -0.5357  0.0155
16372TIP3    H170607   4.245   4.393   3.422  0.3150 -1.1367 -1.2613
16372TIP3    H270608   4.134   4.305   3.370 -2.6020  1.1008  1.0039
16373TIP3   OH270609   4.954   5.248   1.041  0.7663  0.0042 -0.1253
16373TIP3    H170610   4.929   5.225   0.951  1.8556  2.9533 -1.2557
16373TIP3    H270611   4.871   5.272   1.083  0.3359 -0.7123 -0.5536
16374TIP3   OH270612   4.182   1.876   2.556 -0.2877 -0.6640 -1.1175
16374TIP3    H170613   4.151   1.800   2.507  0.5320 -1.9539  0.3123
16374TIP3    H270614   4.120   1.886   2.628 -0.8506  0.5266 -1.7575
16375TIP3   OH270615   0.651   1.888   2.777  0.0451  0.2882 -0.0576
16375TIP3    H170616   0.711   1.943   2.726 -0.2593 -0.6733 -1.4776
16375TIP3    H270617   0.698   1.870   2.859  0.3229  2.2782  0.2426
16376TIP3   OH270618   5.189   3.858  15.091  0.1584 -0.4149  0.2148
16376TIP3    H170619   5.129   3.801  15.041  0.5784 -1.0240  0.4082
16376TIP3    H270620   5.133   3.929  15.122 -0.4276 -0.8742  0.2200
16377TIP3   OH270621   1.017   2.352  11.459  0.5605 -0.0575  0.2147
16377TIP3    H170622   1.082   2.320  11.396  1.1244  0.8531  0.3314
16377TIP3    H270623   0.990   2.274  11.507 -1.6825 -1.2332 -2.7739
16378TIP3   OH270624   0.567   2.940  13.645  0.5755 -0.2445  0.4725
16378TIP3    H170625   0.620   2.860  13.645 -0.5544 -1.0439  3.3082
16378TIP3    H270626   0.629   3.010  13.667  1.1216 -0.6545  0.2572
16379TIP3   OH270627   2.016   2.815  15.141  0.1243  0.4378 -0.3234
16379TIP3    H170628   2.043   2.725  15.159 -1.3252  0.1607  0.5777
16379TIP3    H270629   2.062   2.867  15.207  0.1535  0.2264 -0.1768
16380TIP3   OH270630   4.051   6.056  17.197 -0.1833  0.5037 -0.0897
16380TIP3    H170631   4.061   6.151  17.190 -0.8032  0.5732 -0.0669
16380TIP3    H270632   4.138   6.021  17.176  0.9077  1.2005  3.0804
16381TIP3   OH270633   5.441   3.589   4.917  0.1732 -0.4035 -0.6307
16381TIP3    H170634   5.505   3.585   4.846  0.0640 -1.1519 -0.6893
16381TIP3    H270635   5.479   3.651   4.979  0.8291 -0.6309 -0.7964
16382TIP3   OH270636   0.689   5.093   0.149 -0.1386  0.1089  0.4546
16382TIP3    H170637   0.755   5.113   0.215 -0.7938  3.5255  0.1611
16382TIP3    H270638   0.608   5.129   0.184 -1.0202 -0.3351 -1.0741
16383TIP3   OH270639   3.902   1.522   5.443 -0.0524 -0.1269  0.1258
16383TIP3    H170640   3.987   1.564   5.431 -0.3434  1.2012  2.4875
16383TIP3    H270641   3.852   1.545   5.365  1.3200  0.1387 -0.6837
16384TIP3   OH270642   3.344   2.107   3.237  0.6745  0.2038 -0.0252
16384TIP3    H170643   3.419   2.102   3.296 -1.0663  2.5470  2.4831
16384TIP3    H270644   3.327   2.201   3.228 -0.7436 -0.2345 -2.1350
16385TIP3   OH270645   3.230   0.582  17.109  0.0814 -0.1542 -0.4769
16385TIP3    H170646   3.246   0.536  17.192 -0.4577  0.8141  0.1700
16385TIP3    H270647   3.303   0.643  17.101 -0.7192  0.9095  0.1155
16386TIP3   OH270648   6.271   2.591  16.996  0.1643 -0.8286  0.0193
16386TIP3    H170649   6.244   2.682  17.004  0.0349 -0.5397 -3.1932
16386TIP3    H270650   6.190   2.540  17.009 -0.1099 -0.4176 -0.0870
16387TIP3   OH270651   5.644   6.130   1.371 -0.3375  0.4037 -0.2643
16387TIP3    H170652   5.676   6.151   1.283 -0.3037  0.7031 -0.1798
16387TIP3    H270653   5.549   6.118   1.359 -0.6780  2.6022  0.0498
16388TIP3   OH270654   3.898   0.249  13.956  0.4276  0.4365 -0.5151
16388TIP3    H170655   3.939   0.208  13.879  5.1776  5.0772 -0.7605
16388TIP3    H270656   3.939   0.205  14.031 -2.2996 -2.2881 -0.5049
16389TIP3   OH270657   6.406   2.504  11.961 -0.0521 -0.0176 -0.1259
16389TIP3    H170658   6.357   2.468  11.887 -0.2029  1.1922 -0.6238
16389TIP3    H270659   6.452   2.580  11.925 -0.1796  0.6272  1.0327
16390TIP3   OH270660   0.280   4.290   1.250  0.4148 -0.4867 -0.0523
16390TIP3    H170661   0.326   4.357   1.300 -1.2117 -0.1944  1.0488
16390TIP3    H270662   0.205   4.267   1.303  0.3419 -2.3898 -0.9478
16391TIP3   OH270663   5.694   5.938  17.163  0.0551  0.6087  0.5017
16391TIP3    H170664   5.771   5.922  17.217  0.2757  0.3402  0.1081
16391TIP3    H270665   5.700   5.874  17.093  0.1376  1.4166 -0.2410
16392TIP3   OH270666   5.624   0.450  14.146 -0.2362 -0.4648  0.2386
16392TIP3    H170667   5.608   0.374  14.202  1.5914 -0.0253  1.4129
16392TIP3    H270668   5.683   0.505  14.197 -1.4747  1.7303 -0.6198
16393TIP3   OH270669   3.555   1.228   0.399 -0.1104 -0.4705 -0.5193
16393TIP3    H170670   3.504   1.220   0.479  1.3595  0.4598  0.5187
16393TIP3    H270671   3.491   1.216   0.329 -1.6200 -0.0524  0.7667
16394TIP3   OH270672   0.647   4.756   2.271 -0.3678 -0.1468 -0.3652
16394TIP3    H170673   0.625   4.837   2.224  0.8396 -0.7652 -2.0331
16394TIP3    H270674   0.564   4.708   2.276 -1.0319  1.0503  0.4012
16395TIP3   OH270675   3.949   3.255   5.893  0.0537  0.1591 -0.2501
16395TIP3    H170676   3.907   3.263   5.808 -1.2411  2.2253  0.5620
16395TIP3    H270677   3.884   3.210   5.948  0.9669 -1.3639 -0.3813
16396TIP3   OH270678   6.806   6.756   2.842  0.0288 -0.1089 -0.0161
16396TIP3    H170679   6.792   6.667   2.809 -0.9735  0.1261 -0.2291
16396TIP3    H270680   6.793   6.748   2.937  0.1849 -0.2354 -0.0043
16397TIP3   OH270681   5.810   1.768   4.249  0.0167  0.3946  0.2983
16397TIP3    H170682   5.882   1.803   4.196 -0.0872 -2.0402 -1.5554
16397TIP3    H270683   5.780   1.842   4.301  2.8797  1.8256 -0.0111
16398TIP3   OH270684   0.373   3.311  16.766 -0.1233  0.2932  0.1609
16398TIP3    H170685   0.456   3.358  16.777  0.2849 -0.5253  0.6347
16398TIP3    H270686   0.330   3.319  16.851  0.0508 -0.3700  0.3171
16399TIP3   OH270687   4.822   3.307  17.083 -0.1962 -0.1925  0.6149
16399TIP3    H170688   4.907   3.340  17.053 -0.7615  1.2218  0.5283
16399TIP3    H270689   4.836   3.284  17.175  0.4605 -0.6262  0.4083
16400TIP3   OH270690   1.696   0.800  10.970  0.7714  0.4154 -0.0112
16400TIP3    H170691   1.669   0.841  10.887  0.5517  0.6705  0.1875
16400TIP3    H270692   1.776   0.753  10.948  0.5839  0.2866 -0.4259
16401TIP3   OH270693   1.942   0.207   4.392  0.0903  0.1566  0.1815
16401TIP3    H170694   1.946   0.282   4.450  0.7774  0.8441 -0.7279
16401TIP3    H270695   1.960   0.132   4.448 -0.9089  0.6352  1.1501
16402TIP3   OH270696   0.205   6.801  11.016 -0.8444 -0.2609  0.1239
16402TIP3    H170697   0.279   6.835  10.965 -1.6035 -1.5204 -1.8871
16402TIP3    H270698   0.227   6.820  11.107  1.7444 -0.2210 -0.4815
16403TIP3   OH270699   1.671   5.202  14.257  0.0009 -0.7131 -0.5303
16403TIP3    H170700   1.612   5.161  14.321  1.2042 -0.3404  0.8267
16403TIP3    H270701   1.698   5.130  14.200 -0.3058 -1.2300 -0.0302
16404TIP3   OH270702   0.974   4.926   3.446 -0.4807  0.4983 -0.0304
16404TIP3    H170703   0.932   4.891   3.525 -0.5354  0.4744 -0.0704
16404TIP3    H270704   1.009   5.011   3.473 -0.4473  0.4634  0.0363
16405TIP3   OH270705   2.115   2.384  15.829 -0.8069 -0.6379 -0.3602
16405TIP3    H170706   2.186   2.350  15.774  0.5466 -0.1826  1.0509
16405TIP3    H270707   2.139   2.358  15.918 -0.7754  2.2032  0.5240
16406TIP3   OH270708   6.770   2.274  16.511 -0.2156 -0.2382 -0.2933
16406TIP3    H170709   6.803   2.359  16.540 -0.8887 -0.2678  0.5998
16406TIP3    H270710   6.721   2.293  16.431  0.2457  0.1091 -0.4927
16407TIP3   OH270711   5.538   0.666   0.161 -0.2777 -0.0919 -0.0809
16407TIP3    H170712   5.622   0.710   0.174 -0.8640  0.6393  1.2088
16407TIP3    H270713   5.486   0.728   0.110  0.3864 -1.0729 -2.0454
16408TIP3   OH270714   3.130   1.666  13.602  0.0195 -0.1980 -0.2476
16408TIP3    H170715   3.212   1.666  13.553 -0.4328 -0.4208 -1.0146
16408TIP3    H270716   3.082   1.590  13.567 -0.6223  0.0930  0.0052
16409TIP3   OH270717   2.322   2.569   1.273  0.3146 -0.0761 -0.1927
16409TIP3    H170718   2.382   2.600   1.341 -0.9112 -1.8382  1.7522
16409TIP3    H270719   2.364   2.490   1.238 -0.6414 -1.0818  0.8889
16410TIP3   OH270720   1.712   3.923   2.040  0.2660 -0.4883  1.0812
16410TIP3    H170721   1.757   3.900   1.959 -0.7222  1.5886 -0.0843
16410TIP3    H270722   1.631   3.872   2.039 -0.3238  0.4529  0.1539
16411TIP3   OH270723   2.079   6.222   2.919 -0.1237 -0.4801 -0.5038
16411TIP3    H170724   2.065   6.128   2.907  0.8958 -0.4269 -2.3136
16411TIP3    H270725   2.035   6.262   2.844  0.9885  0.3682 -0.7005
16412TIP3   OH270726   2.222   6.337  10.180 -0.7344  0.4766 -0.1000
16412TIP3    H170727   2.144   6.284  10.161  0.0024 -0.8018  0.3764
16412TIP3    H270728   2.187   6.424  10.199 -1.8792  0.5139 -2.1565
16413TIP3   OH270729   2.780   1.342   6.237  0.3942 -0.8297  0.2297
16413TIP3    H170730   2.846   1.370   6.174 -1.2470 -0.7843 -1.5020
16413TIP3    H270731   2.764   1.420   6.290 -1.6451  0.5747 -2.3544
16414TIP3   OH270732   5.729   1.048  13.684 -0.3696  0.1544 -0.2217
16414TIP3    H170733   5.658   1.081  13.740 -0.2294  0.5251 -0.2651
16414TIP3    H270734   5.738   0.956  13.709  0.2404  0.5197  0.9386
16415TIP3   OH270735   5.293   1.802   5.504  0.3640 -0.5141 -0.0706
16415TIP3    H170736   5.220   1.754   5.466 -0.9678  0.0062  1.7643
16415TIP3    H270737   5.339   1.840   5.429 -2.3270  0.6907 -1.1481
16416TIP3   OH270738   2.744   5.030   4.588  0.2545  0.0730 -0.3111
16416TIP3    H170739   2.811   5.034   4.519  0.6200  1.0690  0.0983
16416TIP3    H270740   2.772   5.095   4.652 -1.6208  1.2004 -0.6062
16417TIP3   OH270741   3.784   0.265   4.046 -0.2702  0.4940  0.0990
16417TIP3    H170742   3.758   0.175   4.028  3.0072 -1.2326  3.3836
16417TIP3    H270743   3.709   0.302   4.093 -0.2496 -1.7277  1.9848
16418TIP3   OH270744   1.844   2.800   5.770 -0.5658  0.3038  0.0049
16418TIP3    H170745   1.755   2.775   5.794  0.2561 -1.6912  1.1655
16418TIP3    H270746   1.845   2.797   5.675 -1.7926  0.5766 -0.0301
16419TIP3   OH270747   6.145   2.135  15.907  0.2690 -0.4528 -0.6688
16419TIP3    H170748   6.051   2.116  15.906  0.3967 -1.0218 -2.0252
16419TIP3    H270749   6.186   2.051  15.927  0.5581 -0.5083 -1.4912
16420TIP3   OH270750   1.158   1.719   3.288 -0.4739  0.1244 -0.1175
16420TIP3    H170751   1.154   1.654   3.358  1.6643 -0.3284 -0.3795
16420TIP3    H270752   1.162   1.667   3.208 -1.2957  0.6179 -0.4779
16421TIP3   OH270753   0.303   4.786   4.870  0.5708  0.8255 -0.0160
16421TIP3    H170754   0.222   4.836   4.856 -0.7998 -1.3153 -0.0138
16421TIP3    H270755   0.309   4.729   4.794 -0.2126 -2.0321  1.9778
16422TIP3   OH270756   3.225   0.044   3.230  0.3991  0.2273  0.2717
16422TIP3    H170757   3.157  -0.008   3.272 -0.0351  0.0205 -0.6718
16422TIP3    H270758   3.182   0.126   3.207 -0.2456 -0.8479 -2.5728
16423TIP3   OH270759   5.947   4.247   1.752 -0.1496  0.1047 -0.4941
16423TIP3    H170760   6.029   4.265   1.707 -0.0451  0.0205 -0.3372
16423TIP3    H270761   5.970   4.249   1.845  0.1766 -2.2829 -0.4818
16424TIP3   OH270762   2.656   0.823  13.157  0.0771  0.1346  0.0049
16424TIP3    H170763   2.671   0.884  13.084  0.1899 -1.0094 -0.9476
16424TIP3    H270764   2.573   0.851  13.195  0.4426  1.2785 -0.0224
16425TIP3   OH270765   6.498   3.923   3.034 -0.1697  0.2043 -0.4978
16425TIP3    H170766   6.406   3.927   3.007 -0.1468 -0.8453 -0.7450
16425TIP3    H270767   6.532   4.011   3.015 -0.8829  0.3176 -1.2836
16426TIP3   OH270768   6.470   4.727  16.846 -0.2714 -0.0344 -0.2087
16426TIP3    H170769   6.529   4.658  16.815 -0.3522  0.2769 -1.0744
16426TIP3    H270770   6.507   4.756  16.929  1.6789  1.2241 -1.4668
16427TIP3   OH270771   1.545   4.227  16.978 -0.3499  0.0769  0.1874
16427TIP3    H170772   1.496   4.296  16.934  1.5680  1.5890  0.3302
16427TIP3    H270773   1.563   4.163  16.909 -0.1827  0.8401 -0.4944
16428TIP3   OH270774   6.462   5.515   4.531 -0.2002 -0.3047 -0.4105
16428TIP3    H170775   6.408   5.454   4.583  0.0110  0.7587  1.0734
16428TIP3    H270776   6.417   5.599   4.540 -0.0152 -0.0577 -1.7612
16429TIP3   OH270777   3.028   3.378   3.799 -0.3285 -0.1912  0.1065
16429TIP3    H170778   3.119   3.374   3.767  0.1999 -0.7144  1.6019
16429TIP3    H270779   3.008   3.471   3.802 -0.2180 -0.1049 -1.2233
16430TIP3   OH270780   4.972   2.830  14.683  0.3666 -0.1955 -0.3102
16430TIP3    H170781   4.954   2.924  14.676 -1.1264 -0.5016 -0.8845
16430TIP3    H270782   5.039   2.814  14.617  1.4478  0.6584  0.5609
16431TIP3   OH270783   6.080   6.399   5.973 -0.2742 -0.5562  0.2835
16431TIP3    H170784   6.081   6.303   5.970  2.0324 -0.6102  1.4472
16431TIP3    H270785   6.032   6.420   6.053  1.8153 -0.8435  1.6478
16432TIP3   OH270786   1.493   6.808  12.221  0.4518 -0.0170  1.1323
16432TIP3    H170787   1.578   6.832  12.185 -0.6199  1.9756 -0.1654
16432TIP3    H270788   1.437   6.797  12.144 -0.9826  0.8103  2.0317
16433TIP3   OH270789   0.755   5.144  17.108  0.1772 -0.0853 -0.2349
16433TIP3    H170790   0.742   5.110  17.196  1.4528  1.8307  0.7415
16433TIP3    H270791   0.671   5.183  17.084  0.0796  0.1456  0.4844
16434TIP3   OH270792   4.923   3.874  16.650 -0.5891 -0.7761 -0.4487
16434TIP3    H170793   4.841   3.836  16.621 -2.3784  1.0057  2.0379
16434TIP3    H270794   4.922   3.964  16.616  0.7544 -0.9995 -1.1335
16435TIP3   OH270795   3.377   0.215   1.364  0.3339 -0.5956 -0.8954
16435TIP3    H170796   3.473   0.213   1.368  0.2709 -1.0343  0.7075
16435TIP3    H270797   3.357   0.271   1.288  1.8516 -0.8434 -1.4917
16436TIP3   OH270798   5.476   5.367   0.892  0.0413  0.0742  0.4778
16436TIP3    H170799   5.510   5.437   0.948 -0.0408 -0.1244  0.7823
16436TIP3    H270800   5.388   5.396   0.867  0.1949  0.3005  0.2086
16437TIP3   OH270801   3.234   2.468   1.255 -0.1580 -0.4709  0.5804
16437TIP3    H170802   3.293   2.536   1.224 -1.3285  0.3139  0.0661
16437TIP3    H270803   3.263   2.450   1.345  0.2250  0.6209  0.6750
16438TIP3   OH270804   5.961   3.536  14.664 -0.9235  0.0307  0.2355
16438TIP3    H170805   5.901   3.569  14.597  0.4208 -1.3189 -1.6831
16438TIP3    H270806   5.904   3.507  14.735 -2.4182  0.7300 -0.6568
16439TIP3   OH270807   0.259   5.740  13.348 -0.3083  0.3712 -0.3015
16439TIP3    H170808   0.274   5.664  13.405 -0.4784 -0.6071 -1.5397
16439TIP3    H270809   0.336   5.742  13.291 -0.4268  0.9788 -0.4332
16440TIP3   OH270810   6.247   2.543  14.786  0.2207  0.3731 -0.2940
16440TIP3    H170811   6.278   2.634  14.784  0.3683  0.2948 -2.3256
16440TIP3    H270812   6.294   2.500  14.714 -0.3816 -1.1521  0.1967
16441TIP3   OH270813   6.154   0.875  12.899  0.1887 -0.4310  0.6880
16441TIP3    H170814   6.126   0.936  12.967 -0.0083 -1.1223  1.2394
16441TIP3    H270815   6.162   0.928  12.820 -1.3811  0.0355  0.8245
16442TIP3   OH270816   4.538   4.385  13.557 -0.1671  0.0444 -0.3133
16442TIP3    H170817   4.505   4.317  13.616 -0.4517  0.2304 -0.2555
16442TIP3    H270818   4.552   4.340  13.474 -0.6305 -0.0249 -0.3552
16443TIP3   OH270819   3.102   3.603  14.975  0.0482  0.3038 -0.0360
16443TIP3    H170820   3.021   3.627  15.020 -0.0418 -0.8276  0.4140
16443TIP3    H270821   3.163   3.674  14.997  0.1557 -0.4634  2.2690
16444TIP3   OH270822   6.666   5.828  12.013  0.0098  1.0469  0.0521
16444TIP3    H170823   6.639   5.741  12.043  0.5574  0.3044 -1.5359
16444TIP3    H270824   6.760   5.820  11.998 -0.0946  1.6443 -0.9898
16445TIP3   OH270825   0.721   3.221  12.466 -0.0942 -0.1360 -0.4720
16445TIP3    H170826   0.724   3.167  12.387 -2.4465 -1.8890  0.5891
16445TIP3    H270827   0.636   3.265  12.464 -0.1258 -0.0811  0.9911
16446TIP3   OH270828   0.593   6.693  16.830 -0.8695  0.6939  0.8128
16446TIP3    H170829   0.658   6.713  16.897 -0.9188  0.4208  0.9422
16446TIP3    H270830   0.567   6.779  16.796  0.8907  0.7342 -0.5206
16447TIP3   OH270831   0.613   4.846  15.974  0.0033 -0.0618 -0.0186
16447TIP3    H170832   0.666   4.912  16.019 -0.3507 -0.3235  0.7867
16447TIP3    H270833   0.673   4.805  15.912  0.0605  1.4854 -1.0101
16448TIP3   OH270834   2.023   3.123   5.470  0.4998 -0.4045  0.1655
16448TIP3    H170835   2.002   3.175   5.548  0.1096  0.5927 -0.6063
16448TIP3    H270836   1.962   3.153   5.403  2.1782  0.1823 -1.1438
16449TIP3   OH270837   2.806   5.814   1.901  0.3309  0.1659  0.5031
16449TIP3    H170838   2.813   5.773   1.987 -0.1394  0.3696  0.6398
16449TIP3    H270839   2.734   5.767   1.858  0.2361  0.3935  0.4098
16450TIP3   OH270840   1.673   5.219  12.742 -0.1913 -0.7686 -0.4283
16450TIP3    H170841   1.699   5.197  12.832  0.8033  0.4964 -0.3799
16450TIP3    H270842   1.578   5.227  12.745 -0.1915 -1.0763  0.4377
16451TIP3   OH270843   3.638   5.741   1.454 -0.2730 -0.2357  0.0250
16451TIP3    H170844   3.568   5.735   1.519  0.2598 -0.6863  0.5603
16451TIP3    H270845   3.592   5.740   1.369 -0.8803 -1.0350  0.3574
16452TIP3   OH270846   2.611   0.513   5.119 -0.0099 -0.2558 -0.1643
16452TIP3    H170847   2.593   0.419   5.111  0.1006 -0.1380 -1.9890
16452TIP3    H270848   2.598   0.548   5.031  0.3416  1.3817  0.4086
16453TIP3   OH270849   5.538   6.276  15.920  0.4275 -0.0277 -0.3764
16453TIP3    H170850   5.471   6.215  15.888  1.6840 -1.5149 -0.2333
16453TIP3    H270851   5.604   6.278  15.851  2.3521 -1.9922  1.3055
16454TIP3   OH270852   1.941   1.120  13.094 -0.0529  0.5670  0.4535
16454TIP3    H170853   1.977   1.051  13.038 -1.7780 -0.9921  1.2227
16454TIP3    H270854   2.018   1.166  13.127  1.1024 -0.4978 -0.7069
16455TIP3   OH270855   4.641   4.573  15.643  0.5580 -0.1174 -0.4937
16455TIP3    H170856   4.727   4.602  15.674 -0.4264 -0.1138  2.4350
16455TIP3    H270857   4.633   4.483  15.675 -0.3422 -0.2663 -1.1205
16456TIP3   OH270858   2.609   2.131  17.220 -0.3012  0.3679 -0.2351
16456TIP3    H170859   2.598   2.139  17.315  1.3488 -1.1120  0.1141
16456TIP3    H270860   2.698   2.162  17.204  0.0398 -1.0141 -1.0662
16457TIP3   OH270861   2.629   0.876   1.481 -0.2680  0.2167  0.2642
16457TIP3    H170862   2.680   0.847   1.557 -1.3930  1.5792  1.5769
16457TIP3    H270863   2.693   0.882   1.410  1.0738  0.2502  1.4533
16458TIP3   OH270864   5.759   3.573  12.632  0.4327 -0.3182  0.4983
16458TIP3    H170865   5.707   3.569  12.552  2.8834 -2.0551 -1.1113
16458TIP3    H270866   5.758   3.665  12.657 -1.6296  0.0019 -0.6823
16459TIP3   OH270867   5.180   2.821  15.084 -0.2967 -0.6378  0.0237
16459TIP3    H170868   5.224   2.786  15.006 -0.7824  1.1619 -1.0900
16459TIP3    H270869   5.232   2.788  15.157  2.1876  0.3791 -1.2079
16460TIP3   OH270870   0.389   5.698   0.283 -0.3724  0.3554 -0.0026
16460TIP3    H170871   0.402   5.722   0.375 -1.9053  0.2198  0.2528
16460TIP3    H270872   0.295   5.702   0.270 -0.2775 -1.0057 -1.2048
16461TIP3   OH270873   4.799   2.850   0.551 -0.0784 -0.2363  0.2393
16461TIP3    H170874   4.845   2.888   0.476 -0.8116  1.2847  0.5500
16461TIP3    H270875   4.795   2.920   0.615  0.5049 -1.5148  1.7224
16462TIP3   OH270876   1.381   0.101  11.631 -0.0568  0.0060 -0.1975
16462TIP3    H170877   1.447   0.101  11.701 -1.0380  3.6340  0.8139
16462TIP3    H270878   1.423   0.148  11.559 -0.2659 -0.8039 -0.8496
16463TIP3   OH270879   6.513   5.577   3.505 -0.3719  0.2809  0.2275
16463TIP3    H170880   6.506   5.577   3.410  0.9225  0.4740  0.1156
16463TIP3    H270881   6.451   5.645   3.534  0.7675  1.7204 -0.6289
16464TIP3   OH270882   0.231   2.659  17.290 -0.3206  0.4549 -0.4664
16464TIP3    H170883   0.273   2.576  17.267  0.8217  0.6023  1.0024
16464TIP3    H270884   0.290   2.726  17.255  0.0738  0.6617  0.6023
16465TIP3   OH270885   1.857   1.130   1.968 -0.4765  0.4517 -0.5757
16465TIP3    H170886   1.913   1.094   2.036  0.7119  1.1107 -1.1940
16465TIP3    H270887   1.904   1.113   1.886 -2.0653 -0.6751 -1.2802
16466TIP3   OH270888   1.514   6.647  16.004  0.1941  0.3582 -0.2411
16466TIP3    H170889   1.526   6.628  15.911  0.0570 -1.5796  0.1150
16466TIP3    H270890   1.595   6.614  16.045 -0.8293 -1.1669  0.6177
16467TIP3   OH270891   4.018   4.271  15.987 -0.0611  0.6629  0.2261
16467TIP3    H170892   3.999   4.178  15.981 -0.1251  0.7643 -1.8137
16467TIP3    H270893   4.112   4.276  16.007 -0.1149  0.1547  0.5811
16468TIP3   OH270894   0.932   1.716  15.599 -0.2338 -0.6193  0.2145
16468TIP3    H170895   0.938   1.805  15.634  1.6952 -0.8618  0.5255
16468TIP3    H270896   0.899   1.729  15.509  1.0124  0.5015 -0.1011
16469TIP3   OH270897   3.021   0.688   4.170 -0.3178  0.1217 -0.3587
16469TIP3    H170898   3.097   0.692   4.112  0.1075  2.0019  0.2802
16469TIP3    H270899   2.997   0.779   4.184 -0.6109 -0.2897  2.1212
16470TIP3   OH270900   5.906   1.274   3.117 -0.1352  0.0555  0.0486
16470TIP3    H170901   5.927   1.367   3.117 -0.9078  0.2442 -1.5565
16470TIP3    H270902   5.981   1.232   3.075 -0.5651  0.1378 -0.7950
16471TIP3   OH270903   4.691   1.847  12.285  0.7113 -0.0990 -0.1307
16471TIP3    H170904   4.732   1.926  12.321  0.8336  0.0368 -0.5543
16471TIP3    H270905   4.654   1.802  12.360  0.5165  0.4395  0.0975
16472TIP3   OH270906   6.463   1.923  14.137  0.4259 -0.5040 -0.2087
16472TIP3    H170907   6.403   1.858  14.102 -1.6229  1.2872 -0.1294
16472TIP3    H270908   6.542   1.914  14.083 -1.6217  0.2751 -3.5074
16473TIP3   OH270909   5.947   1.494  11.036  0.0383 -0.1350 -0.4315
16473TIP3    H170910   5.949   1.561  10.968  0.7077 -0.7512 -1.0157
16473TIP3    H270911   5.957   1.411  10.989 -1.3799 -0.6950  0.2240
16474TIP3   OH270912   1.788   5.417   4.182  0.2749 -0.1319 -0.2212
16474TIP3    H170913   1.782   5.355   4.110  0.2396  2.6141 -2.6481
16474TIP3    H270914   1.754   5.369   4.258 -3.2748 -1.9078 -2.7937
16475TIP3   OH270915   4.300   3.455  15.496  0.3429 -0.4976  0.1209
16475TIP3    H170916   4.276   3.547  15.507 -1.5993 -1.0510  0.6924
16475TIP3    H270917   4.329   3.449  15.405 -2.0795  0.1500 -0.7242
16476TIP3   OH270918   5.258   3.427  12.410  0.1342 -0.1704  0.1834
16476TIP3    H170919   5.333   3.486  12.414 -1.2697  1.6698 -0.1589
16476TIP3    H270920   5.291   3.349  12.366  2.2030  0.0436  1.2919
16477TIP3   OH270921   0.712   6.289  14.688  0.0740  0.5103 -0.6307
16477TIP3    H170922   0.626   6.245  14.685  0.0506  0.3669  1.6730
16477TIP3    H270923   0.695   6.372  14.731  1.1205  0.4078 -0.0080
16478TIP3   OH270924   0.573   1.422   2.280 -0.3207 -0.3763  0.1798
16478TIP3    H170925   0.528   1.486   2.224 -1.0460 -0.8939  0.1670
16478TIP3    H270926   0.506   1.392   2.341  0.0877 -0.9169  0.3671
16479TIP3   OH270927   3.214   2.844  12.416  0.1967 -0.3341 -0.8507
16479TIP3    H170928   3.222   2.770  12.356 -0.5264 -1.3533  0.2964
16479TIP3    H270929   3.207   2.921  12.358 -0.3800 -1.2834 -2.0684
16480TIP3   OH270930   5.733   3.482  14.819  0.5241 -0.0158  0.4628
16480TIP3    H170931   5.675   3.556  14.804  1.1524  0.1429 -1.4304
16480TIP3    H270932   5.695   3.435  14.892 -0.4525  1.6089  1.0156
16481TIP3   OH270933   4.223   0.279   1.504  0.1176  0.0563  0.2023
16481TIP3    H170934   4.270   0.273   1.587 -0.2249 -0.3800  0.3703
16481TIP3    H270935   4.234   0.192   1.464  1.1571  0.5873 -0.6887
16482TIP3   OH270936   2.813   4.131   5.686 -0.8963  0.0895  0.4171
16482TIP3    H170937   2.773   4.100   5.768 -0.4670 -2.9107 -0.4310
16482TIP3    H270938   2.739   4.141   5.626 -0.8314 -1.5486  0.0374
16483TIP3   OH270939   3.346   4.445  16.137 -0.1686 -0.2857  0.2999
16483TIP3    H170940   3.380   4.530  16.109  1.6338 -1.7758 -2.3040
16483TIP3    H270941   3.417   4.407  16.188 -1.0472 -0.1637  1.6332
16484TIP3   OH270942   5.536   2.891  17.257 -0.0061 -0.2399  0.5363
16484TIP3    H170943   5.587   2.958  17.212 -0.2566 -0.6328 -0.3392
16484TIP3    H270944   5.462   2.939  17.296 -0.8298 -0.1650 -1.0755
16485TIP3   OH270945   0.953   2.385   0.302  0.2583  0.3252  0.0016
16485TIP3    H170946   0.967   2.382   0.207 -1.5001 -0.0554 -0.2723
16485TIP3    H270947   0.900   2.308   0.321 -2.8779  2.5048  0.6297
16486TIP3   OH270948   4.629   4.971   6.621  0.5734 -0.5012  0.3772
16486TIP3    H170949   4.549   4.995   6.575  0.5552  1.8938  1.6171
16486TIP3    H270950   4.617   4.878   6.643 -1.3391 -0.4638 -0.4421
16487TIP3   OH270951   0.129   0.900   4.383  0.7791 -0.1838  0.0849
16487TIP3    H170952   0.096   0.811   4.399 -1.2327  0.6590  0.7601
16487TIP3    H270953   0.150   0.934   4.470  1.2845  0.1163 -0.1495
16488TIP3   OH270954   4.631   5.600   3.888  0.4145  0.1719 -0.1124
16488TIP3    H170955   4.635   5.694   3.871 -0.1417 -0.0410 -1.5098
16488TIP3    H270956   4.719   5.568   3.864  0.6900  0.3720  0.6228
16489TIP3   OH270957   3.538   6.330  11.289 -0.2033  0.0519  0.4251
16489TIP3    H170958   3.490   6.247  11.301 -0.3448  0.1318  0.4192
16489TIP3    H270959   3.521   6.378  11.370  2.7568 -1.3554  1.9349
16490TIP3   OH270960   4.899   6.273   3.464 -0.6456  0.7779 -0.0898
16490TIP3    H170961   4.945   6.190   3.453  0.2340  0.7497  3.4282
16490TIP3    H270962   4.907   6.316   3.378  3.0292 -0.6844 -0.5626
16491TIP3   OH270963   3.053   2.545  15.224 -0.5242 -0.4181 -0.0868
16491TIP3    H170964   3.067   2.470  15.282  1.1950 -0.1883 -0.1797
16491TIP3    H270965   3.135   2.553  15.174 -0.5036  1.7783  0.2364
16492TIP3   OH270966   6.312   4.258   5.147 -0.6609 -0.0574  0.5965
16492TIP3    H170967   6.365   4.179   5.156 -0.2355  0.1957  0.3098
16492TIP3    H270968   6.295   4.285   5.237 -1.0716 -0.6461  0.7036
16493TIP3   OH270969   2.706   1.241  11.721 -0.2937 -0.1424  0.1157
16493TIP3    H170970   2.771   1.224  11.788  1.4289  2.0191 -0.9233
16493TIP3    H270971   2.757   1.266  11.644 -2.3077  0.9583 -0.9183
16494TIP3   OH270972   2.817   3.788   1.723  0.1433  0.1132  0.0135
16494TIP3    H170973   2.852   3.769   1.810  0.7774 -0.2682 -0.3199
16494TIP3    H270974   2.762   3.712   1.701  1.0936 -0.4331 -0.4941
16495TIP3   OH270975   6.756   4.725   0.949 -0.3834 -0.0636 -0.0253
16495TIP3    H170976   6.743   4.710   0.855 -0.7330  1.9045 -0.3070
16495TIP3    H270977   6.675   4.694   0.989 -0.8703  0.5223 -0.5366
16496TIP3   OH270978   5.651   1.279  14.459 -0.4004  0.0865  0.5095
16496TIP3    H170979   5.570   1.234  14.435 -0.1282 -0.3171  0.3183
16496TIP3    H270980   5.688   1.225  14.529  1.1096 -1.3462 -1.3150
16497TIP3   OH270981   3.033   5.182   6.064 -0.1447 -0.1428  0.5966
16497TIP3    H170982   2.981   5.102   6.052  0.7860 -1.2111  3.3933
16497TIP3    H270983   2.996   5.223   6.142  0.0083  1.6866 -0.2716
16498TIP3   OH270984   1.627   3.272   4.393 -0.4587  1.0911 -0.3582
16498TIP3    H170985   1.624   3.318   4.477 -1.0552  0.5446 -0.0778
16498TIP3    H270986   1.556   3.310   4.342 -1.1584  0.2710 -0.0105
16499TIP3   OH270987   4.584   0.687  13.541  0.2606 -0.1210 -1.3020
16499TIP3    H170988   4.677   0.667  13.545 -0.0181 -1.2532  0.3549
16499TIP3    H270989   4.576   0.754  13.474  2.0843 -1.0135 -2.4513
16500TIP3   OH270990   2.882   4.950  17.179  0.3351 -0.8257  0.3908
16500TIP3    H170991   2.966   4.988  17.155  0.5480 -1.5401 -0.0072
16500TIP3    H270992   2.904   4.871  17.227 -0.0988  0.0304  2.0387
16501TIP3   OH270993   0.931   5.418  12.594 -0.0686 -0.2469 -0.4153
16501TIP3    H170994   0.897   5.468  12.669 -1.6882  1.0813 -1.9623
16501TIP3    H270995   1.002   5.366  12.630  0.3097  1.6332  1.7094
16502TIP3   OH270996   2.288   5.108   2.244 -0.5880  0.0583 -0.2781
16502TIP3    H170997   2.358   5.044   2.247 -1.2418 -0.6711 -0.5118
16502TIP3    H270998   2.222   5.070   2.186 -1.0824  0.8341 -0.2409
16503TIP3   OH270999   2.320   0.872   4.185 -0.1229 -0.0725 -0.3318
16503TIP3    H171000   2.271   0.950   4.160  1.6003  1.7131  1.6430
16503TIP3    H271001   2.286   0.848   4.271  0.6986 -0.3376 -0.0734
16504TIP3   OH271002   0.827   6.745   2.461 -0.0549 -0.0031 -0.3550
16504TIP3    H171003   0.900   6.800   2.491  1.3434 -2.2596  0.4640
16504TIP3    H271004   0.789   6.709   2.541 -0.6920 -0.5576 -0.9028
16505TIP3   OH271005   1.373   4.531  12.048  0.0422  0.0973  0.7723
16505TIP3    H171006   1.447   4.571  12.004  0.7056 -1.1288  0.7429
16505TIP3    H271007   1.409   4.452  12.089 -1.0248  0.0497  1.6444
16506TIP3   OH271008   4.019   3.395  15.358  0.6355 -0.2161 -0.7062
16506TIP3    H171009   4.037   3.423  15.268  1.9951  0.1440 -0.3309
16506TIP3    H271010   4.071   3.454  15.413 -1.7653  0.9309  0.4536
16507TIP3   OH271011   4.236   2.315   3.368  0.0936 -0.2449 -0.4164
16507TIP3    H171012   4.171   2.317   3.438  1.0161  3.8332  0.4083
16507TIP3    H271013   4.184   2.325   3.288 -0.6143 -1.1730 -0.0963
16508TIP3   OH271014   0.324   2.355  10.712  0.3895  0.4352 -0.2849
16508TIP3    H171015   0.411   2.379  10.681  1.4732 -2.4959  0.2833
16508TIP3    H271016   0.314   2.402  10.794  1.0684  1.4920 -0.8009
16509TIP3   OH271017   2.177   1.504   5.490  0.4205  0.4389  0.2595
16509TIP3    H171018   2.185   1.510   5.395  0.4850  1.6613  0.3383
16509TIP3    H271019   2.112   1.570   5.513  2.0542  1.7313  1.2812
16510TIP3   OH271020   0.825   5.224  14.507  0.0889  0.0768  0.0773
16510TIP3    H171021   0.841   5.235  14.413 -1.9893  0.6889 -0.2184
16510TIP3    H271022   0.906   5.255  14.548  0.3585  1.4489 -1.4259
16511TIP3   OH271023   3.663   3.352   0.240  0.2124  0.2311 -0.2714
16511TIP3    H171024   3.574   3.388   0.247  0.0949  0.2574 -1.8728
16511TIP3    H271025   3.720   3.429   0.238  0.4157  0.1932  2.3811
16512TIP3   OH271026   4.008   5.958   3.477 -0.0175  0.0492 -0.4685
16512TIP3    H171027   3.939   5.994   3.421 -1.1622  1.1685  1.6017
16512TIP3    H271028   4.085   6.011   3.457 -0.6504  1.0216 -0.3454
16513TIP3   OH271029   2.259   4.922   3.800  0.3800 -0.1679 -0.4787
16513TIP3    H171030   2.282   4.990   3.737 -0.3576 -0.1328 -0.7183
16513TIP3    H271031   2.255   4.841   3.748 -0.8278 -0.0381 -0.6018
16514TIP3   OH271032   5.932   2.526  14.814 -0.2736  0.2806  0.4894
16514TIP3    H171033   5.911   2.469  14.741  1.2392 -1.4798  1.4067
16514TIP3    H271034   6.023   2.553  14.799  0.2606 -0.6092  2.0320
16515TIP3   OH271035   6.783   0.678   0.552 -0.4431 -0.2064 -0.4450
16515TIP3    H171036   6.715   0.722   0.603 -0.7127 -1.0516 -0.0832
16515TIP3    H271037   6.738   0.647   0.474 -0.4855 -0.8085 -0.1822
16516TIP3   OH271038   0.838   5.901  13.135 -0.5498  0.5403  0.4646
16516TIP3    H171039   0.775   5.940  13.074 -0.4937  1.3038  0.8923
16516TIP3    H271040   0.786   5.875  13.211 -0.3400  1.2560  0.8568
16517TIP3   OH271041   2.253   1.412  16.741 -0.1408 -0.0836  0.2965
16517TIP3    H171042   2.319   1.381  16.803  0.6699  0.5702 -0.2261
16517TIP3    H271043   2.245   1.505  16.758  1.3674  0.4549 -1.7106
16518TIP3   OH271044   3.408   3.308   3.403 -0.2253  0.3255 -0.3920
16518TIP3    H171045   3.450   3.390   3.431  0.4329 -0.7668  1.8970
16518TIP3    H271046   3.481   3.247   3.390 -0.7818 -0.1863 -1.1138
16519TIP3   OH271047   0.002   4.537  15.519  0.4007 -0.1411 -0.3431
16519TIP3    H171048  -0.070   4.480  15.492  0.7817 -0.7784 -0.0170
16519TIP3    H271049   0.054   4.484  15.580  0.8006  0.5236 -0.0990
16520TIP3   OH271050   1.722   5.206   4.365  0.4734  0.8178  0.3453
16520TIP3    H171051   1.676   5.231   4.445 -0.5991  0.6192 -0.1986
16520TIP3    H271052   1.798   5.157   4.395  0.6294  1.6096  1.2815
16521TIP3   OH271053   5.758   2.873   6.772 -0.8843  0.2567  0.3107
16521TIP3    H171054   5.674   2.835   6.749 -1.0359  1.8868 -2.0238
16521TIP3    H271055   5.821   2.826   6.717 -0.3340 -0.5146  1.5790
16522TIP3   OH271056   2.851   3.915  11.084  0.6165  0.2191 -0.2582
16522TIP3    H171057   2.811   3.862  11.153  2.2018 -2.5496 -1.3750
16522TIP3    H271058   2.780   3.930  11.021 -0.1554  0.5106  0.6685
16523TIP3   OH271059   2.683   2.494  10.668 -0.0696  0.3351 -0.4676
16523TIP3    H171060   2.587   2.483  10.665 -0.3373  1.8866  1.3290
16523TIP3    H271061   2.706   2.525  10.580 -1.1719 -0.4291 -1.0368
16524TIP3   OH271062   5.865   0.945   4.581 -0.3680 -0.0233  0.4084
16524TIP3    H171063   5.958   0.966   4.572  0.0998 -2.0664  0.0726
16524TIP3    H271064   5.841   0.976   4.667  0.2365  1.9168 -0.1068
16525TIP3   OH271065   0.290   3.461   1.522 -0.1659 -0.1227 -0.5084
16525TIP3    H171066   0.372   3.411   1.523 -0.3292 -0.3739  1.0722
16525TIP3    H271067   0.236   3.420   1.588 -0.3806  2.0334  0.7000
16526TIP3   OH271068   0.084   1.597   2.879 -0.2254 -0.7060  0.0854
16526TIP3    H171069   0.164   1.550   2.855 -0.0926 -0.3363 -0.1876
16526TIP3    H271070   0.100   1.628   2.968  0.0378 -0.3970 -0.0718
16527TIP3   OH271071   4.766   4.415   0.449  0.3195 -0.8686 -0.3335
16527TIP3    H171072   4.723   4.483   0.397  1.2291 -1.0498 -1.3579
16527TIP3    H271073   4.697   4.380   0.505 -0.2954  0.4895 -0.2149
16528TIP3   OH271074   5.419   3.804  15.473  0.0340 -0.3292  0.3784
16528TIP3    H171075   5.331   3.825  15.504 -0.3210  0.0028 -0.8166
16528TIP3    H271076   5.476   3.868  15.515 -0.6021  0.9043 -0.6286
16529TIP3   OH271077   4.819   3.817  11.548 -0.0438  0.3576  0.2142
16529TIP3    H171078   4.837   3.728  11.577 -2.9369  0.0301  1.1812
16529TIP3    H271079   4.904   3.852  11.524  1.4192 -1.9856  1.7779
16530TIP3   OH271080   4.652   6.313  15.235  0.0026  0.3152  0.0655
16530TIP3    H171081   4.675   6.221  15.218 -0.1224  0.5486 -1.4166
16530TIP3    H271082   4.720   6.363  15.191 -0.3236  0.9565  0.2815
16531TIP3   OH271083   3.616   3.035  15.626 -0.2707  0.1400  0.2047
16531TIP3    H171084   3.705   3.071  15.624  0.1830 -0.9934 -0.8663
16531TIP3    H271085   3.573   3.074  15.550 -1.1304  1.7647  1.5179
16532TIP3   OH271086   6.734   2.696  17.264 -0.2209  0.0739 -0.3203
16532TIP3    H171087   6.780   2.780  17.261  1.6149 -0.8078  1.9457
16532TIP3    H271088   6.724   2.671  17.172  2.1736  1.1925 -0.9091
16533TIP3   OH271089   0.511   2.308   2.947  0.2753  0.4179 -0.3311
16533TIP3    H171090   0.474   2.386   2.989  0.6918  0.5738 -0.2505
16533TIP3    H271091   0.478   2.312   2.857  2.4712  2.1601 -1.1045
16534TIP3   OH271092   1.948   1.532   0.094  0.2149 -0.0482  0.3838
16534TIP3    H171093   2.001   1.611   0.090 -0.5409  0.4815  0.7821
16534TIP3    H271094   1.979   1.485   0.171 -0.1968  0.4871  0.8853
16535TIP3   OH271095   2.941   0.999   3.336  0.4318 -0.2845  0.1137
16535TIP3    H171096   3.021   1.026   3.381  0.8837 -0.2215 -0.7192
16535TIP3    H271097   2.885   0.964   3.406  1.5358 -1.1590  0.5821
16536TIP3   OH271098   3.138   2.452   4.601 -0.0182  0.0898 -0.1805
16536TIP3    H171099   3.115   2.364   4.631  0.3062  0.0607 -0.0123
16536TIP3    H271100   3.232   2.448   4.586 -0.3899 -0.3002 -2.5864
16537TIP3   OH271101   5.682   0.046  16.879  0.0101 -0.4015 -0.3027
16537TIP3    H171102   5.687  -0.006  16.799  2.1331  0.3375 -0.7113
16537TIP3    H271103   5.772   0.076  16.893 -0.5858  0.5751  1.6326
16538TIP3   OH271104   6.285   2.626  15.351 -0.3733 -0.9138 -0.6223
16538TIP3    H171105   6.370   2.650  15.314  0.2523 -0.7060  0.9158
16538TIP3    H271106   6.221   2.666  15.292  0.6201  1.9162  0.1209
16539TIP3   OH271107   1.904   5.382   1.122 -0.0998  0.4665 -0.8379
16539TIP3    H171108   1.857   5.300   1.135 -1.0634  0.9229 -1.3728
16539TIP3    H271109   1.884   5.407   1.031  1.1345  0.6978 -1.0662
16540TIP3   OH271110   4.066   1.505   2.598  0.7613 -0.1739 -0.2205
16540TIP3    H171111   4.127   1.454   2.545  0.8614 -1.3867  1.0107
16540TIP3    H271112   4.032   1.442   2.662  1.9489  1.6196  2.2724
16541TIP3   OH271113   4.227   3.738  16.980  0.2829 -0.9031 -0.0515
16541TIP3    H171114   4.136   3.757  16.957  0.0549 -1.1791  0.6098
16541TIP3    H271115   4.278   3.777  16.909 -0.2748  0.4793  0.2852
16542TIP3   OH271116   5.482   1.770   0.293  0.3685  0.2222 -0.0610
16542TIP3    H171117   5.387   1.768   0.302  0.4646 -1.2053  0.8447
16542TIP3    H271118   5.504   1.862   0.284 -1.2368  0.4791 -1.8045
16543TIP3   OH271119   1.080   5.884  12.064  0.4537  0.2751 -0.4339
16543TIP3    H171120   1.139   5.808  12.065  0.7442  0.5114  0.4378
16543TIP3    H271121   1.123   5.945  12.003  0.6937  0.1194 -0.4223
16544TIP3   OH271122   0.500   0.321   4.481  0.1686 -0.2601 -0.2181
16544TIP3    H171123   0.570   0.346   4.541 -1.2311 -2.2010  2.3605
16544TIP3    H271124   0.530   0.350   4.395  3.1677  0.8179  1.1216
16545TIP3   OH271125   2.704   3.994   2.380  0.0847  0.3079 -0.5358
16545TIP3    H171126   2.631   4.030   2.330  0.2287  1.5505  0.1260
16545TIP3    H271127   2.716   4.055   2.453  0.8135 -0.6958  0.1991
16546TIP3   OH271128   4.315   0.891  11.508 -0.7907 -0.7071  0.5319
16546TIP3    H171129   4.285   0.809  11.548 -2.1022  0.5684  2.2379
16546TIP3    H271130   4.254   0.906  11.436 -0.2424 -1.4751 -0.0999
16547TIP3   OH271131   6.563   3.255  16.453 -0.0356 -0.0288 -0.2134
16547TIP3    H171132   6.570   3.334  16.507 -2.8119  0.3033 -0.2281
16547TIP3    H271133   6.513   3.194  16.506 -2.0929  0.0099 -2.0158
16548TIP3   OH271134   1.589   3.696   2.293 -0.4072  0.4473  0.0289
16548TIP3    H171135   1.613   3.616   2.248  1.1222  1.8226 -1.6655
16548TIP3    H271136   1.550   3.751   2.225 -0.3337  1.6003  0.9035
16549TIP3   OH271137   2.480   4.522  16.670  0.2140 -0.3514  0.0575
16549TIP3    H171138   2.408   4.519  16.733  0.1653  1.7376  0.1255
16549TIP3    H271139   2.541   4.587  16.706  0.7204  0.0463 -1.4792
16550TIP3   OH271140   0.944   4.091   0.984 -0.3753  0.0893 -0.4104
16550TIP3    H171141   0.955   4.145   0.906  0.2429  1.2950  0.4831
16550TIP3    H271142   1.003   4.017   0.971  1.1263  1.2424 -0.2659
16551TIP3   OH271143   2.645   5.223  16.186 -0.0196 -0.1445 -0.3005
16551TIP3    H171144   2.674   5.310  16.212 -0.7894  0.2948 -0.8906
16551TIP3    H271145   2.583   5.239  16.115 -0.9526 -1.1187  0.2842
16552TIP3   OH271146   4.129   2.482  16.166 -0.3042 -0.1372  0.5473
16552TIP3    H171147   4.162   2.402  16.124  1.2505  0.6174  0.2830
16552TIP3    H271148   4.042   2.495  16.130  0.9341  0.3924 -2.3405
16553TIP3   OH271149   1.737   4.814  14.358  0.2803 -0.3134  0.4496
16553TIP3    H171150   1.679   4.880  14.396 -0.1414 -1.3053  1.5742
16553TIP3    H271151   1.679   4.748  14.321  0.6868 -0.5938  0.3025
16554TIP3   OH271152   1.028   2.684  14.357 -0.3914  0.3959 -0.2903
16554TIP3    H171153   1.075   2.701  14.275  2.5286  0.3318  1.3388
16554TIP3    H271154   0.966   2.614  14.335  1.0952 -0.3634 -2.1646
16555TIP3   OH271155   5.762   3.680  15.667  0.4355  0.0803  0.0890
16555TIP3    H171156   5.789   3.626  15.741 -0.5230 -0.3362  0.1414
16555TIP3    H271157   5.739   3.764  15.706  0.5589  0.0729  0.1780
16556TIP3   OH271158   6.287   5.752   0.603  0.3904 -0.3752 -0.0187
16556TIP3    H171159   6.294   5.659   0.584  3.3211 -0.4936  1.3011
16556TIP3    H271160   6.350   5.793   0.543 -1.8551  0.9679 -1.5662
16557TIP3   OH271161   3.235   0.131   1.661  0.4039  0.4656 -0.7307
16557TIP3    H171162   3.156   0.097   1.619  0.1138  0.9190 -0.5587
16557TIP3    H271163   3.276   0.187   1.596 -0.3837  1.6730 -0.1925
16558TIP3   OH271164   2.063   6.318  15.479 -0.2712  0.0363 -0.6146
16558TIP3    H171165   2.095   6.402  15.513  0.4787 -0.9112  1.0703
16558TIP3    H271166   1.968   6.326  15.480 -0.2562  0.2708  1.1677
16559TIP3   OH271167   5.192   3.235   2.963 -0.0421 -0.2539 -0.5071
16559TIP3    H171168   5.102   3.229   2.997  0.6663  0.7409  1.5985
16559TIP3    H271169   5.243   3.268   3.036  1.5013  2.2951 -2.6463
16560TIP3   OH271170   3.931   0.873   2.127 -0.1228  0.1303  0.5355
16560TIP3    H171171   3.922   0.794   2.181 -0.5553  0.8172  1.4864
16560TIP3    H271172   4.025   0.879   2.108 -0.2795 -1.3980 -0.7457
16561TIP3   OH271173   4.805   2.437   2.132 -0.2736 -0.0939 -0.7603
16561TIP3    H171174   4.783   2.434   2.039 -0.8178 -1.6466 -0.6013
16561TIP3    H271175   4.721   2.441   2.177 -0.0231  0.2714 -0.3210
16562TIP3   OH271176   6.261   4.140  11.414 -0.2183 -0.2272 -0.5845
16562TIP3    H171177   6.235   4.203  11.347 -0.1188  0.4064 -0.0234
16562TIP3    H271178   6.219   4.170  11.494 -0.2893 -0.9565 -0.3434
16563TIP3   OH271179   5.068   2.181   5.874 -0.3487 -0.0981 -0.6266
16563TIP3    H171180   5.104   2.126   5.943 -0.7822  0.1977 -0.1558
16563TIP3    H271181   5.089   2.136   5.792 -2.4088 -1.9696 -0.1670
16564TIP3   OH271182   2.176   6.332   4.075  0.0628 -0.5853  0.1266
16564TIP3    H171183   2.210   6.242   4.073 -1.3336 -1.1147 -0.6118
16564TIP3    H271184   2.100   6.327   4.134 -1.5657 -0.4779 -1.8878
16565TIP3   OH271185   4.009   1.506  15.442  0.0646 -0.8055  0.2094
16565TIP3    H171186   3.968   1.443  15.382 -0.0527  0.2873 -0.8836
16565TIP3    H271187   3.941   1.526  15.506 -1.5288  1.7321 -2.1466
16566TIP3   OH271188   1.245   2.353   4.755 -0.0899  0.2918 -0.0137
16566TIP3    H171189   1.315   2.357   4.689  1.9586 -1.2106  1.9619
16566TIP3    H271190   1.253   2.436   4.803 -0.0645  0.3880 -0.1833
16567TIP3   OH271191   6.110   1.002   6.172 -0.0835 -0.2821  0.0055
16567TIP3    H171192   6.095   0.908   6.182  0.6899 -0.4986 -0.8577
16567TIP3    H271193   6.165   1.025   6.247  0.7883 -0.7707 -0.4750
16568TIP3   OH271194   1.910   1.565   3.004  0.2720 -0.0771 -0.3412
16568TIP3    H171195   1.893   1.505   2.931 -1.3799 -0.7793  0.6011
16568TIP3    H271196   1.858   1.530   3.077  1.9156  0.5854  1.1955
16569TIP3   OH271197   4.676   5.347  16.850  0.1047  0.2443 -0.2849
16569TIP3    H171198   4.659   5.440  16.837 -0.6805  0.1232 -0.1400
16569TIP3    H271199   4.590   5.306  16.844  0.2331 -0.2831  1.2232
16570TIP3   OH271200   1.302   3.888   3.047 -0.2856  0.4742 -0.3773
16570TIP3    H171201   1.215   3.848   3.050 -0.3248  0.6035  0.1905
16570TIP3    H271202   1.355   3.835   3.106  0.2747 -0.1975 -1.4658
16571TIP3   OH271203   2.075   2.329  12.744 -0.2214  0.1456 -0.0291
16571TIP3    H171204   2.112   2.275  12.675 -1.7166  0.5308 -1.1716
16571TIP3    H271205   2.149   2.352  12.800  0.8461 -0.9620 -0.9733
16572TIP3   OH271206   4.218   0.466   4.645  0.4351 -0.4173 -0.0424
16572TIP3    H171207   4.185   0.512   4.567  1.4651 -1.3467 -1.0464
16572TIP3    H271208   4.278   0.528   4.686  0.0244  0.0108 -0.0789
16573TIP3   OH271209   0.344   3.083   1.229 -0.1718  0.5462  0.1303
16573TIP3    H171210   0.318   3.098   1.138 -1.0173  0.0243  0.2802
16573TIP3    H271211   0.439   3.097   1.229 -0.0605 -0.0863 -0.9725
16574TIP3   OH271212   0.151   2.412  16.132  0.1948 -0.2958  0.1875
16574TIP3    H171213   0.137   2.454  16.047  0.5908 -1.1020 -0.2874
16574TIP3    H271214   0.246   2.401  16.138  0.1095 -0.9900  0.3670
16575TIP3   OH271215   0.300   2.897  11.942 -0.5271  0.6191 -0.1782
16575TIP3    H171216   0.244   2.819  11.943  0.1461  0.1404  0.8746
16575TIP3    H271217   0.289   2.935  12.029  2.2311 -0.5244  0.7035
16576TIP3   OH271218   1.660   3.817   3.910  0.0849 -0.3914 -0.2607
16576TIP3    H171219   1.697   3.730   3.893  1.1577 -0.4671  2.1427
16576TIP3    H271220   1.712   3.851   3.983 -2.1580  1.0903  0.7223
16577TIP3   OH271221   3.504   6.169  15.433  0.1045  0.1152  0.2684
16577TIP3    H171222   3.553   6.236  15.386  0.0775  0.6874  1.0601
16577TIP3    H271223   3.415   6.175  15.398  0.3251 -0.1738 -0.3592
16578TIP3   OH271224   5.644   2.641  10.485  0.0537 -0.2280  0.5463
16578TIP3    H171225   5.653   2.699  10.561 -1.7636 -2.9529  2.9380
16578TIP3    H271226   5.707   2.571  10.500  1.0113  0.1658 -1.4566
16579TIP3   OH271227   1.008   0.393  13.954  0.0769  0.4355 -0.3476
16579TIP3    H171228   0.991   0.318  13.897  0.5871 -0.8544  1.1431
16579TIP3    H271229   1.100   0.414  13.939 -0.1612  1.0167 -1.0364
16580TIP3   OH271230   0.672   1.194   6.680 -0.0465 -0.0741 -0.2362
16580TIP3    H171231   0.607   1.169   6.745 -0.7773 -1.3326 -1.4317
16580TIP3    H271232   0.677   1.289   6.687  3.0023 -0.4145  4.5915
16581TIP3   OH271233   0.561   1.246   2.708  0.3095  0.5443  0.0038
16581TIP3    H171234   0.475   1.211   2.732 -0.6085  1.6453 -1.4885
16581TIP3    H271235   0.566   1.329   2.755  0.9319  0.0738  0.7638
16582TIP3   OH271236   5.172   2.300   3.933 -0.8554 -0.3311  0.1266
16582TIP3    H171237   5.090   2.259   3.904 -0.2855 -1.1380 -0.3803
16582TIP3    H271238   5.219   2.319   3.851 -1.1479  1.4252  0.3554
16583TIP3   OH271239   4.805   2.819   4.010  0.3324 -0.3676 -0.1468
16583TIP3    H171240   4.830   2.822   4.102 -1.4612 -3.6082  0.5292
16583TIP3    H271241   4.714   2.850   4.009 -0.7125 -3.2085 -0.2888
16584TIP3   OH271242   6.102   5.167   1.621  0.5079  0.5467  0.6285
16584TIP3    H171243   6.097   5.223   1.699  0.3024  1.5783 -0.1066
16584TIP3    H271244   6.011   5.144   1.603  0.5429  0.4092  0.6337
16585TIP3   OH271245   6.018   5.547   4.960 -0.0238 -0.2297 -0.6382
16585TIP3    H171246   5.963   5.473   4.935  1.2415 -1.6592  0.6895
16585TIP3    H271247   5.981   5.579   5.042  0.6502 -0.7117 -0.1397
16586TIP3   OH271248   1.977   5.791   1.849  0.1632  0.0053 -0.2373
16586TIP3    H171249   1.991   5.743   1.768  1.5048  1.9826 -1.2166
16586TIP3    H271250   1.951   5.879   1.821  0.7816  0.7500  1.4559
16587TIP3   OH271251   2.065   0.105   1.581  0.1848  0.0586 -0.7251
16587TIP3    H171252   2.086   0.197   1.568 -2.8848  1.2946  2.3753
16587TIP3    H271253   1.983   0.092   1.532 -0.1046 -0.6623 -0.0667
16588TIP3   OH271254   1.534   5.532   1.543  0.1857  0.1389 -0.4238
16588TIP3    H171255   1.606   5.537   1.481  2.8241  1.9733  2.6452
16588TIP3    H271256   1.545   5.448   1.587  0.1705  0.1918 -0.3172
16589TIP3   OH271257   4.233   0.632   1.056 -0.3543 -0.0531  0.2190
16589TIP3    H171258   4.259   0.564   0.994  0.0400 -1.7029  2.1562
16589TIP3    H271259   4.314   0.681   1.073 -0.1837 -0.4137  0.4385
16590TIP3   OH271260   5.284   5.172  14.461 -0.4017 -0.3827  0.2206
16590TIP3    H171261   5.251   5.223  14.387 -0.8041  0.0694  0.7112
16590TIP3    H271262   5.369   5.139  14.431  0.5638  1.7921  0.4159
16591TIP3   OH271263   4.428   3.073  15.217  0.1189 -0.4056 -0.5409
16591TIP3    H171264   4.518   3.042  15.223  0.0350 -0.4157  0.8844
16591TIP3    H271265   4.391   3.057  15.304 -1.0224  0.3203 -0.8741
16592TIP3   OH271266   3.181   4.252  12.489 -0.2297  0.1490  0.2439
16592TIP3    H171267   3.110   4.195  12.461 -0.5472  1.1533 -0.9974
16592TIP3    H271268   3.192   4.232  12.582 -0.7200 -1.5191 -0.0400
16593TIP3   OH271269   1.659   6.292   0.950 -0.5450  0.0776 -0.2351
16593TIP3    H171270   1.705   6.310   1.032  1.4818 -1.8124 -0.8892
16593TIP3    H271271   1.637   6.199   0.956 -0.8041  0.0431 -1.6435
16594TIP3   OH271272   3.131   1.526   1.881  0.5928  0.4392  0.1360
16594TIP3    H171273   3.043   1.562   1.887  0.3963  0.0192 -0.2104
16594TIP3    H271274   3.122   1.448   1.827  1.1082  0.1703  0.4271
16595TIP3   OH271275   4.125   5.129   4.057  0.2671 -0.8840  0.2935
16595TIP3    H171276   4.045   5.129   4.004  1.5686 -2.2527 -1.7402
16595TIP3    H271277   4.136   5.221   4.082 -1.0879 -0.4160 -0.7256
16596TIP3   OH271278   1.567   1.273  12.795  0.2055  0.4945 -0.1568
16596TIP3    H171279   1.551   1.302  12.705 -0.8214 -0.4883 -0.3070
16596TIP3    H271280   1.493   1.309  12.844  0.2362  0.1866  0.1104
16597TIP3   OH271281   6.024   1.369   0.506 -0.2903  0.4691 -0.6904
16597TIP3    H171282   6.004   1.450   0.460  0.1959  2.3840  2.3371
16597TIP3    H271283   5.939   1.324   0.514 -0.9255  1.6558 -0.6428
16598TIP3   OH271284   1.758   2.935  12.768 -0.2914 -0.5439 -0.7613
16598TIP3    H171285   1.704   2.898  12.698 -0.2703 -0.8806 -0.5960
16598TIP3    H271286   1.704   3.004  12.806 -0.9836 -1.5439  0.0596
16599TIP3   OH271287   0.732   6.279  14.394 -0.3918  0.0566  0.1305
16599TIP3    H171288   0.779   6.291  14.477  2.7499 -1.8394 -1.2565
16599TIP3    H271289   0.662   6.218  14.415  0.5965 -0.7074  1.3143
16600TIP3   OH271290   3.905   5.291  15.857 -0.2285  0.6510 -0.3866
16600TIP3    H171291   3.913   5.226  15.926 -2.0713 -0.1350 -0.8964
16600TIP3    H271292   3.943   5.249  15.780 -0.7739  0.4611 -0.5472
16601TIP3   OH271293   5.743   5.089  15.439  0.1577  0.3526  0.1543
16601TIP3    H171294   5.730   5.183  15.451 -0.3287  0.1574  1.1727
16601TIP3    H271295   5.752   5.054  15.527  1.1232 -0.4565 -0.2498
16602TIP3   OH271296   2.428   1.841  15.979  0.1576 -0.0239  0.2744
16602TIP3    H171297   2.407   1.934  15.983 -0.9730 -0.1690 -1.7516
16602TIP3    H271298   2.433   1.822  15.886 -0.1457 -2.1076  0.6686
16603TIP3   OH271299   0.873   1.276  13.913 -0.0163  0.4973  0.1259
16603TIP3    H171300   0.957   1.288  13.869  0.8427 -0.1030  1.5623
16603TIP3    H271301   0.810   1.325  13.859  1.0197 -0.0929 -1.6487
16604TIP3   OH271302   4.902   6.665  16.477  0.0995 -0.2586  0.1925
16604TIP3    H171303   4.908   6.572  16.454  0.9701 -0.1760  0.0713
16604TIP3    H271304   4.987   6.701  16.452 -0.8637  0.9402 -1.3857
16605TIP3   OH271305   4.541   3.112  14.029  0.3475  0.4025 -0.1714
16605TIP3    H171306   4.558   3.205  14.017  1.3864  0.3386  0.7592
16605TIP3    H271307   4.626   3.070  14.022 -0.1102 -0.4864 -0.5770
16606TIP3   OH271308   4.711   0.437  13.782  0.2269  0.1912 -0.0641
16606TIP3    H171309   4.698   0.526  13.817 -0.8263  0.3989 -0.9473
16606TIP3    H271310   4.623   0.405  13.766  0.6416 -0.5453 -0.9181
16607TIP3   OH271311   1.660   3.036   1.452 -0.5612  0.2599 -0.2388
16607TIP3    H171312   1.687   3.005   1.538 -0.8998  1.3263  0.2620
16607TIP3    H271313   1.724   2.999   1.391 -1.5421 -2.2632  0.2073
16608TIP3   OH271314   6.687   4.479   3.271  0.0044 -0.3223 -0.0901
16608TIP3    H171315   6.597   4.507   3.290  0.4113  0.6320  0.4900
16608TIP3    H271316   6.716   4.538   3.201  0.1988 -0.5893 -0.2322
16609TIP3   OH271317   5.675   6.023  12.363  0.0212 -0.1955 -0.2996
16609TIP3    H171318   5.680   6.006  12.269  1.1167 -1.8583  0.0289
16609TIP3    H271319   5.644   5.941  12.401  1.0115 -0.0257  0.9261
16610TIP3   OH271320   1.748   1.100   4.377 -0.3109 -0.0907 -0.0884
16610TIP3    H171321   1.715   1.099   4.467  0.3777  1.2578  0.1941
16610TIP3    H271322   1.804   1.178   4.373  0.6675 -0.8321 -1.3191
16611TIP3   OH271323   0.699   4.532  11.233 -0.0444  0.2106 -0.4521
16611TIP3    H171324   0.676   4.445  11.267  0.7678  1.0752  2.3789
16611TIP3    H271325   0.773   4.515  11.174  0.2593 -0.9764  0.2558
16612TIP3   OH271326   1.509   2.022  16.117  0.2675  0.1744 -0.0682
16612TIP3    H171327   1.418   2.007  16.091  0.9305 -2.7989 -0.8356
16612TIP3    H271328   1.526   2.113  16.091 -2.1038  0.3688 -1.0757
16613TIP3   OH271329   0.405   6.099  12.903 -0.0241  0.7454 -0.0239
16613TIP3    H171330   0.423   6.148  12.823 -0.3494 -0.0043 -0.5529
16613TIP3    H271331   0.360   6.162  12.960 -0.0054  1.2031 -0.5124
16614TIP3   OH271332   5.436   1.377  17.045 -0.1117  0.0403  0.5416
16614TIP3    H171333   5.442   1.352  16.953 -1.1346  2.0535 -0.1220
16614TIP3    H271334   5.413   1.297  17.091  0.5065 -1.0087 -0.9472
16615TIP3   OH271335   5.134   3.859  16.419 -0.4051  0.4557  0.4819
16615TIP3    H171336   5.085   3.807  16.483 -0.9804  0.9474  0.4362
16615TIP3    H271337   5.137   3.804  16.341 -1.7110  0.8379  0.1674
16616TIP3   OH271338   1.976   6.523   1.723 -0.2294  0.3895 -0.0911
16616TIP3    H171339   2.012   6.476   1.798 -0.5617 -1.3687 -1.0107
16616TIP3    H271340   1.940   6.454   1.666 -4.1280  1.9426  0.3136
16617TIP3   OH271341   6.571   6.011  17.185  0.2426  0.0928  0.3270
16617TIP3    H171342   6.635   6.014  17.114  1.2814  0.1726  1.2463
16617TIP3    H271343   6.622   6.033  17.263 -0.9782  0.4807  1.0270
16618TIP3   OH271344   1.046   5.022   4.126  0.2550  0.9753  0.1393
16618TIP3    H171345   1.079   5.078   4.056 -0.7815  1.0013 -0.3485
16618TIP3    H271346   1.123   4.997   4.176  1.1189  0.4048 -1.4282
16619TIP3   OH271347   4.455   4.176  17.092 -0.0562  0.2135 -0.1191
16619TIP3    H171348   4.536   4.209  17.130  0.3850 -1.3709  0.3811
16619TIP3    H271349   4.439   4.093  17.138 -1.5807  0.1587 -0.7021
16620TIP3   OH271350   0.462   6.241   4.879  0.2345 -0.2322  0.3838
16620TIP3    H171351   0.367   6.236   4.885  0.1865  0.3408  0.0693
16620TIP3    H271352   0.484   6.187   4.803  0.1260  0.0222  0.1726
16621TIP3   OH271353   6.564   2.688   2.658  0.1792 -0.1393  0.5809
16621TIP3    H171354   6.531   2.738   2.584 -1.4635 -1.0247  0.6980
16621TIP3    H271355   6.607   2.612   2.619  0.3449  0.0020  0.4912
16622TIP3   OH271356   6.400   1.488   1.281  0.3912 -0.1492 -0.4137
16622TIP3    H171357   6.394   1.420   1.214  0.9449  1.0488 -1.6766
16622TIP3    H271358   6.316   1.533   1.278 -0.1101 -0.9856  0.6687
16623TIP3   OH271359   2.058   0.922  12.936 -0.2878 -0.0589  0.1232
16623TIP3    H171360   2.025   0.851  12.882 -1.9428  0.3212  0.6136
16623TIP3    H271361   2.132   0.883  12.983 -1.6107 -1.6822  0.9257
16624TIP3   OH271362   0.274   2.525  10.924  0.6099  0.2753  0.1594
16624TIP3    H171363   0.322   2.510  11.006  0.1474  1.5478  0.6833
16624TIP3    H271364   0.207   2.588  10.948 -0.5671 -0.5769 -0.8466
16625TIP3   OH271365   4.295   6.116   2.080 -0.3561  0.0988  0.0589
16625TIP3    H171366   4.245   6.074   2.010  0.0689  0.0729 -0.2294
16625TIP3    H271367   4.380   6.072   2.079  0.1748  1.1259 -0.3972
16626TIP3   OH271368   1.632   0.434  13.467  0.2241 -0.3364  0.2128
16626TIP3    H171369   1.636   0.503  13.401  0.5072  0.4948  1.0890
16626TIP3    H271370   1.540   0.429  13.491  0.1024 -0.7190 -0.3190
16627TIP3   OH271371   1.840   3.701  13.048 -0.1022 -0.4782 -0.1100
16627TIP3    H171372   1.816   3.783  13.090  1.2883 -0.4110  0.5996
16627TIP3    H271373   1.762   3.647  13.053 -1.3525  1.1602 -1.4967
16628TIP3   OH271374   3.168   0.612   0.840  0.0146  0.8217 -0.3018
16628TIP3    H171375   3.263   0.613   0.829  0.0592  2.2770  0.1115
16628TIP3    H271376   3.136   0.554   0.771  1.2112  0.1532 -0.3060
16629TIP3   OH271377   1.143   3.074   3.796 -0.2859 -0.0338  0.1901
16629TIP3    H171378   1.144   3.110   3.884 -0.2464 -0.2773  0.2877
16629TIP3    H271379   1.174   3.146   3.741  0.5238 -0.1601  0.4780
16630TIP3   OH271380   0.640   6.352  15.627 -0.6367  0.7113  0.4548
16630TIP3    H171381   0.665   6.360  15.719  0.7917  0.7789  0.0713
16630TIP3    H271382   0.599   6.266  15.621 -1.2479  0.9354  1.2662
16631TIP3   OH271383   5.655   1.714  16.502  0.1641 -0.0244 -0.2208
16631TIP3    H171384   5.657   1.793  16.447  0.9981  1.5541  2.0149
16631TIP3    H271385   5.641   1.642  16.440 -0.5027  1.8558 -2.3157
16632TIP3   OH271386   1.437   6.101   0.739 -0.7185  0.3077 -0.3477
16632TIP3    H171387   1.403   6.190   0.735  3.7760  2.1471 -0.4743
16632TIP3    H271388   1.498   6.102   0.812  1.9810 -1.6846 -2.4970
16633TIP3   OH271389   2.537   2.170   0.482 -0.6555  0.1200 -0.2852
16633TIP3    H171390   2.549   2.140   0.392 -0.2831 -3.3550  0.8333
16633TIP3    H271391   2.447   2.145   0.503 -0.6179  0.5878  0.4246
16634TIP3   OH271392   1.186   3.304  12.790  0.0846 -0.1032  0.4994
16634TIP3    H171393   1.147   3.340  12.870 -0.1187  0.1036  0.3089
16634TIP3    H271394   1.280   3.319  12.801 -0.1598  2.4751 -0.5352
16635TIP3   OH271395   4.535   4.872  13.772 -0.6884  0.0180 -0.5453
16635TIP3    H171396   4.525   4.833  13.859 -1.8748 -0.2462 -0.7890
16635TIP3    H271397   4.510   4.802  13.711  1.2432 -0.1729 -1.1593
16636TIP3   OH271398   6.650   4.922   4.169  0.0576 -0.5176  0.1740
16636TIP3    H171399   6.744   4.930   4.148  0.6204 -2.1111  2.0000
16636TIP3    H271400   6.643   4.838   4.214 -2.1256  0.0250  0.8582
16637TIP3   OH271401   1.125   6.084   4.366 -0.0912 -0.6124 -0.8091
16637TIP3    H171402   1.182   6.097   4.442 -0.5149 -1.6747 -0.3066
16637TIP3    H271403   1.069   6.162   4.366  0.9429  0.1538 -0.9624
16638TIP3   OH271404   6.111   0.172  12.160  0.2265 -0.1950 -0.5627
16638TIP3    H171405   6.070   0.110  12.219  0.0185 -1.2208 -1.7543
16638TIP3    H271406   6.038   0.211  12.111  0.1617  2.5178  1.5811
16639TIP3   OH271407   2.670   0.163   2.329  0.0595  0.0103 -0.0251
16639TIP3    H171408   2.732   0.226   2.364 -1.7226  0.1668  3.0444
16639TIP3    H271409   2.603   0.216   2.285  0.4100  0.0418 -0.5191
16640TIP3   OH271410   5.896   4.898   2.916 -0.5096  0.1039  0.0301
16640TIP3    H171411   5.844   4.825   2.881 -0.6950  0.4497 -0.4273
16640TIP3    H271412   5.974   4.857   2.951  0.0587 -0.1793 -1.5110
16641TIP3   OH271413   1.227   4.708   3.597  0.3535 -0.2381  0.1843
16641TIP3    H171414   1.150   4.674   3.642 -0.0182 -0.6023 -0.7160
16641TIP3    H271415   1.237   4.797   3.630 -1.4680  0.4116 -0.9467
16642TIP3   OH271416   1.222   0.375   6.300 -0.5675 -0.4928  0.2436
16642TIP3    H171417   1.272   0.293   6.308 -1.1513 -0.9790 -1.0214
16642TIP3    H271418   1.289   0.444   6.307  0.3087 -1.1373 -1.5418
16643TIP3   OH271419   4.579   3.254   2.888  0.2528 -0.2241 -0.2450
16643TIP3    H171420   4.573   3.204   2.807  2.3675  0.1121 -0.6349
16643TIP3    H271421   4.615   3.193   2.952  0.1142 -0.0215  0.0285
16644TIP3   OH271422   2.645   2.381   3.657  0.4783  0.2648  0.7553
16644TIP3    H171423   2.697   2.341   3.586 -0.6857 -1.0937  0.6441
16644TIP3    H271424   2.572   2.321   3.669 -0.5540  1.6724  1.5723
16645TIP3   OH271425   2.241   3.850  15.972 -0.2316  0.0563 -0.2417
16645TIP3    H171426   2.302   3.817  16.037  1.4638  0.2941 -1.6733
16645TIP3    H271427   2.228   3.777  15.912 -0.1903  0.4810 -0.7747
16646TIP3   OH271428   1.031   0.120  14.639  0.2087  0.1083 -0.3682
16646TIP3    H171429   1.012   0.122  14.545  0.3271  1.5366 -0.3763
16646TIP3    H271430   0.956   0.075  14.678 -0.9970  1.6281 -0.8955
16647TIP3   OH271431   2.262   2.544  13.989  0.1638 -0.6817 -0.3378
16647TIP3    H171432   2.240   2.482  14.059 -0.9189  0.3916  0.3002
16647TIP3    H271433   2.297   2.620  14.035 -3.3404  1.2507 -0.6709
16648TIP3   OH271434   6.327   5.093   1.471 -0.2217 -0.0673  0.4392
16648TIP3    H171435   6.398   5.136   1.517 -0.4588  0.1595  0.5964
16648TIP3    H271436   6.248   5.138   1.502 -0.5830 -1.3945  1.5026
16649TIP3   OH271437   5.283   3.184  14.949  0.3920  0.3567 -0.2411
16649TIP3    H171438   5.279   3.140  14.864  0.6984  1.6407 -0.9308
16649TIP3    H271439   5.339   3.260  14.934  1.6169 -0.1690  1.4671
16650TIP3   OH271440   3.547   5.023  16.788 -0.4091  0.5135 -0.0615
16650TIP3    H171441   3.614   5.089  16.776  0.1345  0.0747  0.4965
16650TIP3    H271442   3.494   5.026  16.708  1.4564 -0.5008 -1.3646
16651TIP3   OH271443   2.118   1.852  15.256 -0.1726  0.1591  0.3217
16651TIP3    H171444   2.040   1.807  15.225  0.5141 -1.0128  0.2826
16651TIP3    H271445   2.100   1.872  15.348 -0.8423  0.6312  0.0932
16652TIP3   OH271446   3.071   4.161   2.382 -0.5798 -0.4479 -0.8028
16652TIP3    H171447   3.027   4.223   2.440  0.0895  0.7727 -1.5540
16652TIP3    H271448   3.070   4.205   2.296  1.3609 -0.7398 -1.0004
16653TIP3   OH271449   3.848   0.785   5.891  0.2460 -0.1913 -0.2231
16653TIP3    H171450   3.869   0.791   5.984  1.0346  0.1569 -0.4241
16653TIP3    H271451   3.933   0.775   5.847 -0.0064  1.1036 -1.0228
16654TIP3   OH271452   4.093   3.021  17.205  0.2099  0.6763 -0.4995
16654TIP3    H171453   4.048   2.940  17.181  0.8380  0.6563 -1.6117
16654TIP3    H271454   4.039   3.059  17.275  0.1135 -0.8791  0.2821
16655TIP3   OH271455   2.352   5.047  13.771  0.2368 -0.2722 -0.3787
16655TIP3    H171456   2.436   5.004  13.787  0.3606 -0.0908 -0.5429
16655TIP3    H271457   2.315   5.000  13.696  0.7020  0.3843 -1.0185
16656TIP3   OH271458   3.680   3.177  16.407 -0.2867  0.4881  0.5261
16656TIP3    H171459   3.639   3.201  16.323  0.2158 -0.0627  0.1183
16656TIP3    H271460   3.607   3.158  16.465 -0.6473  1.0796  0.2720
16657TIP3   OH271461   4.156   5.683  14.358 -0.4748 -0.2554 -0.3888
16657TIP3    H171462   4.142   5.775  14.334  1.5782 -0.0028 -0.6946
16657TIP3    H271463   4.214   5.687  14.434 -1.9005 -1.2537  0.7740
16658TIP3   OH271464   2.248   5.244   0.826 -0.8640  0.1699 -0.2538
16658TIP3    H171465   2.247   5.259   0.921 -1.5972 -0.0173 -0.2287
16658TIP3    H271466   2.312   5.174   0.814 -1.7749 -0.7774  0.2630
16659TIP3   OH271467   6.460   2.152  17.292  0.6073  0.1770  0.2177
16659TIP3    H171468   6.518   2.221  17.324  0.7495  1.1711 -2.0766
16659TIP3    H271469   6.407   2.195  17.224 -1.5614 -1.1632  1.0254
16660TIP3   OH271470   1.452   2.959  16.893 -0.2148  0.4501 -0.2327
16660TIP3    H171471   1.406   2.894  16.841 -1.9116  0.5476  1.1019
16660TIP3    H271472   1.445   3.040  16.843 -1.6015  0.4812 -0.0154
16661TIP3   OH271473   2.966   4.572   3.485 -0.4563 -0.0618 -0.7174
16661TIP3    H171474   2.893   4.573   3.424  1.3733  1.4220 -2.9864
16661TIP3    H271475   2.944   4.638   3.550 -2.0932 -1.1376 -0.1606
16662TIP3   OH271476   1.593   5.002  13.715  0.9094  0.7007 -0.1575
16662TIP3    H171477   1.666   4.941  13.714  0.8817  0.6814 -1.4111
16662TIP3    H271478   1.620   5.072  13.775  0.4781 -1.0871  2.1903
16663TIP3   OH271479   3.382   2.392   3.197  0.4323  0.0061  0.3742
16663TIP3    H171480   3.379   2.456   3.268  0.8267 -1.3458  1.6405
16663TIP3    H271481   3.474   2.365   3.193  0.1986 -0.7684  0.1209
16664TIP3   OH271482   4.511   5.636   0.634 -0.2116 -0.7624  0.5377
16664TIP3    H171483   4.431   5.587   0.656 -0.3855  0.0717  1.8314
16664TIP3    H271484   4.487   5.728   0.647  0.9284 -0.5010  0.8501
16665TIP3   OH271485   3.190   3.102   0.261  0.3693 -0.0456  0.3202
16665TIP3    H171486   3.232   3.167   0.204  0.2104  0.2726  0.5662
16665TIP3    H271487   3.099   3.100   0.232  1.0066 -2.4027 -1.7605
16666TIP3   OH271488   3.121   3.876   1.207  0.3343 -0.1057  0.1480
16666TIP3    H171489   3.175   3.902   1.132 -2.1289  2.6195 -0.7760
16666TIP3    H271490   3.093   3.787   1.187 -0.1439  0.5262 -2.1359
16667TIP3   OH271491   1.924   4.539  12.018 -0.2734  0.1036 -0.0630
16667TIP3    H171492   1.874   4.607  11.974 -1.1247 -1.3470 -1.3815
16667TIP3    H271493   1.860   4.496  12.075  0.0158 -0.2367  0.0062
16668TIP3   OH271494   4.815   1.374   2.258 -0.1595  0.6270  0.0576
16668TIP3    H171495   4.902   1.410   2.242 -0.4338  1.7022  0.9294
16668TIP3    H271496   4.755   1.445   2.238 -0.7451  0.4552  1.1351
16669TIP3   OH271497   5.351   4.603   4.833 -0.2096  0.4302 -0.1478
16669TIP3    H171498   5.383   4.581   4.920  0.0643 -0.4654 -0.4749
16669TIP3    H271499   5.265   4.562   4.827 -0.3964  0.8144 -0.1628
16670TIP3   OH271500   4.268   4.375   3.707  0.4034 -0.1121  0.4516
16670TIP3    H171501   4.219   4.375   3.624  1.1975 -0.4108 -0.0232
16670TIP3    H271502   4.246   4.291   3.748  1.0031 -0.5144 -0.0497
16671TIP3   OH271503   1.968   6.233  10.130  0.6573  0.5449 -0.2070
16671TIP3    H171504   1.883   6.195  10.107  0.6085  0.0484  0.7718
16671TIP3    H271505   1.947   6.316  10.172  0.5931 -0.1953  1.2427
16672TIP3   OH271506   2.028   5.038  13.924 -0.7951 -0.4159  0.2202
16672TIP3    H171507   2.056   5.088  13.847 -2.5689 -0.6997 -0.6342
16672TIP3    H271508   1.991   5.105  13.982 -1.5732 -0.4802 -0.1837
16673TIP3   OH271509   1.097   5.645  11.593 -0.2281  0.2128  0.2025
16673TIP3    H171510   1.130   5.734  11.580  1.3262  0.1393  3.3109
16673TIP3    H271511   1.066   5.643  11.683 -2.2989 -1.8107 -0.4756
16674TIP3   OH271512   0.310   0.201  12.745  0.1097  0.1150  0.2107
16674TIP3    H171513   0.333   0.275  12.689  1.2517  0.6891  1.4325
16674TIP3    H271514   0.283   0.132  12.684  1.7004  0.6017 -1.0706
16675TIP3   OH271515   0.781   1.358  10.577  0.4918  0.3266  0.2134
16675TIP3    H171516   0.836   1.280  10.582  1.9479  1.2795 -0.6194
16675TIP3    H271517   0.841   1.431  10.595 -0.3144  1.4483 -1.4842
16676TIP3   OH271518   1.183   3.702   2.004  0.0496  0.3142  0.4604
16676TIP3    H171519   1.141   3.785   1.981  0.7849  0.6406  0.3109
16676TIP3    H271520   1.142   3.678   2.088 -0.9953  0.2392 -0.0576
16677TIP3   OH271521   3.818   2.257  15.215  0.0528  0.5161 -0.0079
16677TIP3    H171522   3.891   2.265  15.277  0.7831 -2.1381 -0.4378
16677TIP3    H271523   3.772   2.179  15.245 -0.4838  0.0978 -1.9050
16678TIP3   OH271524   5.674   0.497   3.833  0.5347  0.0897 -0.2088
16678TIP3    H171525   5.768   0.487   3.819  0.4952 -0.6095  0.0108
16678TIP3    H271526   5.635   0.481   3.747  0.4171 -2.4568  0.2880
16679TIP3   OH271527   3.306   2.135  12.069  0.1540 -0.5270 -0.7006
16679TIP3    H171528   3.267   2.222  12.058  1.7246 -0.0909 -3.4326
16679TIP3    H271529   3.364   2.144  12.145  3.0054  1.9372 -2.9766
16680TIP3   OH271530   1.829   6.274   0.516  0.6449 -0.1604  0.1515
16680TIP3    H171531   1.744   6.286   0.474  1.1052  1.3177 -0.4359
16680TIP3    H271532   1.822   6.322   0.599  1.0463  0.4038 -0.1307
16681TIP3   OH271533   5.098   1.738  11.469  0.3664 -0.3033  0.3856
16681TIP3    H171534   5.133   1.653  11.443  1.4360  0.2167  0.1141
16681TIP3    H271535   5.115   1.743  11.563 -0.1983 -0.6150  0.5114
16682TIP3   OH271536   4.310   5.821  16.674 -0.0285 -0.1907 -0.2024
16682TIP3    H171537   4.378   5.823  16.742  1.5971 -2.5433 -1.6420
16682TIP3    H271538   4.248   5.754  16.705  0.5332 -1.0176 -0.8335
16683TIP3   OH271539   4.933   0.260  15.076  0.7796 -0.0904 -0.5683
16683TIP3    H171540   4.908   0.269  14.984  2.8588 -0.8108 -1.2416
16683TIP3    H271541   4.908   0.170  15.098  1.1881 -0.2410 -0.7205
16684TIP3   OH271542   3.150   6.021   3.000  0.0908  0.3515 -0.5525
16684TIP3    H171543   3.191   6.101   3.033  2.9097 -1.8963  1.5736
16684TIP3    H271544   3.059   6.028   3.026  0.8202  1.7835  1.7424
16685TIP3   OH271545   2.951   5.974  13.328 -0.3434  0.9526 -0.1281
16685TIP3    H171546   2.928   5.964  13.420 -0.0249  2.6434  0.1543
16685TIP3    H271547   3.023   5.912  13.314 -1.0944 -0.0583  0.4885
16686TIP3   OH271548   3.122   4.914   1.820 -0.1109 -0.0335  0.3895
16686TIP3    H171549   3.157   5.002   1.809 -0.0645 -0.1393 -0.3097
16686TIP3    H271550   3.193   4.856   1.792  0.3052 -0.3277  2.0081
16687TIP3   OH271551   0.668   0.360   1.627 -0.5333 -0.0596  0.1744
16687TIP3    H171552   0.610   0.303   1.676 -0.1959  1.0426  1.9370
16687TIP3    H271553   0.756   0.325   1.643 -0.4028  0.4272  0.5441
16688TIP3   OH271554   5.472   3.979  13.454  0.3097 -0.0955 -0.1474
16688TIP3    H171555   5.428   4.057  13.421  1.8975  0.1794 -1.6555
16688TIP3    H271556   5.517   4.008  13.533  2.1588  0.9049 -1.5454
16689TIP3   OH271557   2.379   2.913   2.149 -0.3094  0.5985 -0.2071
16689TIP3    H171558   2.331   2.891   2.228  1.1808  0.7996  0.7641
16689TIP3    H271559   2.463   2.869   2.159  0.4631  1.8826 -0.9701
16690TIP3   OH271560   3.811   1.101   0.619  0.5341 -0.2348  0.1294
16690TIP3    H171561   3.906   1.096   0.621  0.4634 -1.6152  0.5062
16690TIP3    H271562   3.782   1.015   0.648 -0.8291 -0.0495 -0.6532
16691TIP3   OH271563   6.219   0.347   0.635  0.4813 -0.2690  0.0118
16691TIP3    H171564   6.182   0.307   0.714  0.7630  1.1704  0.8850
16691TIP3    H271565   6.147   0.395   0.596  0.8744  0.7930  0.5693
16692TIP3   OH271566   5.783   3.517  12.895  0.6117  0.1530 -0.2443
16692TIP3    H171567   5.767   3.540  12.803  1.7322 -1.0816 -0.7608
16692TIP3    H271568   5.857   3.572  12.921  1.9068 -1.2987 -0.8356
16693TIP3   OH271569   6.287   4.445  14.515 -0.1515  0.0675  0.2979
16693TIP3    H171570   6.263   4.533  14.542 -0.4536  0.3893 -0.9738
16693TIP3    H271571   6.373   4.455  14.474  0.4889 -0.4739  1.4991
16694TIP3   OH271572   1.920   2.845   2.572  0.0699 -0.1200  0.5436
16694TIP3    H171573   1.995   2.903   2.564 -1.7032  2.5628  2.5228
16694TIP3    H271574   1.908   2.834   2.667  0.8293 -4.4203  0.2587
16695TIP3   OH271575   5.568   5.093   4.492  0.2297 -0.2670  0.1116
16695TIP3    H171576   5.609   5.007   4.497  1.5551  0.1870 -2.0162
16695TIP3    H271577   5.482   5.077   4.454  0.4072 -0.6910 -0.1108
16696TIP3   OH271578   1.322   3.309   6.046 -0.6294 -0.0707  0.2971
16696TIP3    H171579   1.252   3.374   6.058 -1.5181 -1.1410  1.1485
16696TIP3    H271580   1.348   3.318   5.955 -0.3576  1.8460  0.5434
16697TIP3   OH271581   0.242   5.884   4.373 -0.0786 -0.4189 -0.4008
16697TIP3    H171582   0.198   5.805   4.406 -0.7643 -0.7074 -1.9606
16697TIP3    H271583   0.255   5.866   4.280 -2.2018  2.1953 -1.2462
16698TIP3   OH271584   2.679   1.998  10.935  0.3374 -0.1424 -0.0735
16698TIP3    H171585   2.747   2.026  10.874 -0.1385  2.9955  0.7592
16698TIP3    H271586   2.698   2.047  11.016 -2.0946 -0.2741  0.6058
16699TIP3   OH271587   5.014   1.042  14.865 -0.0215  0.0093  0.3106
16699TIP3    H171588   4.998   1.135  14.850 -0.3091  0.2355  1.9672
16699TIP3    H271589   5.065   1.038  14.946 -0.1237 -1.2728  0.3324
16700TIP3   OH271590   4.297   3.161   4.648  0.1425  0.0963 -0.0150
16700TIP3    H171591   4.361   3.127   4.586  0.2325 -1.7243  1.0408
16700TIP3    H271592   4.214   3.161   4.599  0.7898  1.7860 -1.1509
16701TIP3   OH271593   5.835   0.553   6.564  0.2088 -0.2358 -0.1698
16701TIP3    H171594   5.879   0.636   6.583  0.2575 -0.2638 -0.1616
16701TIP3    H271595   5.753   0.558   6.614  0.4385 -0.4021  0.2242
16702TIP3   OH271596   3.136   3.056   2.773  0.1518  0.0559 -0.0500
16702TIP3    H171597   3.102   3.032   2.686 -2.5073 -0.5436  1.1067
16702TIP3    H271598   3.213   3.109   2.754  1.4483 -2.5889 -2.7591
16703TIP3   OH271599   3.827   1.241  11.036  0.5040  0.3099 -0.0500
16703TIP3    H171600   3.763   1.211  10.972  2.0360  0.0836 -1.4921
16703TIP3    H271601   3.777   1.299  11.094 -1.0216  0.0444 -1.0680
16704TIP3   OH271602   5.306   0.289   5.780  0.0258 -0.5415  0.1732
16704TIP3    H171603   5.224   0.268   5.734  1.0957 -1.6050 -1.3080
16704TIP3    H271604   5.287   0.371   5.826 -1.9284 -0.8632 -0.0019
16705TIP3   OH271605   4.159   2.723   1.644  0.5429 -0.2670 -0.0638
16705TIP3    H171606   4.118   2.687   1.723  0.9016  1.7304  1.0885
16705TIP3    H271607   4.085   2.749   1.589  0.2887 -1.3431 -0.2396
16706TIP3   OH271608   6.257   5.502  15.293  0.5980  0.2105 -0.1249
16706TIP3    H171609   6.191   5.491  15.361 -0.9114  2.1874 -1.2059
16706TIP3    H271610   6.222   5.456  15.217 -0.1512  2.2387 -1.0579
16707TIP3   OH271611   3.406   1.999   2.524  0.0913  0.2153  0.4227
16707TIP3    H171612   3.494   2.004   2.489  0.1522  0.6688  0.6274
16707TIP3    H271613   3.407   1.922   2.581  0.6824  0.8624  1.3037
16708TIP3   OH271614   0.020   4.218   4.525 -0.6976 -0.5013  0.4393
16708TIP3    H171615  -0.022   4.298   4.495 -0.5204 -0.4277  0.3855
16708TIP3    H271616  -0.049   4.151   4.520 -0.0628 -1.0363 -2.4756
16709TIP3   OH271617   1.576   1.560  14.422 -0.3294  0.3520 -0.1944
16709TIP3    H171618   1.668   1.584  14.421  0.1452 -1.3987 -1.1708
16709TIP3    H271619   1.548   1.574  14.512  1.3582 -0.7767  0.5172
16710TIP3   OH271620   4.745   0.366  15.316  0.5177 -0.4128  0.7265
16710TIP3    H171621   4.823   0.414  15.289 -0.2419  0.7088  0.4741
16710TIP3    H271622   4.778   0.285  15.356  1.7720 -0.2612  0.0007
16711TIP3   OH271623   0.318   0.618   4.160 -0.3575 -0.1015  0.3717
16711TIP3    H171624   0.349   0.542   4.209 -2.1141 -0.0654  1.5638
16711TIP3    H271625   0.391   0.680   4.163 -0.3123 -0.2502  2.5888
16712TIP3   OH271626   2.324   3.947   2.864  0.2063  0.7616 -0.1371
16712TIP3    H171627   2.336   3.910   2.776  1.2743  0.1089  0.2855
16712TIP3    H271628   2.281   4.031   2.848 -0.6298  0.1501 -1.2103
16713TIP3   OH271629   4.759   1.673   2.824 -0.0276  0.3285 -0.0168
16713TIP3    H171630   4.806   1.741   2.775 -1.3514  0.8811 -0.5545
16713TIP3    H271631   4.733   1.717   2.905 -1.2098  0.5954 -0.5279
16714TIP3   OH271632   3.742   2.801   4.767  0.0424 -0.4503  0.2652
16714TIP3    H171633   3.821   2.855   4.757 -2.4876  3.2465 -0.8042
16714TIP3    H271634   3.696   2.838   4.842 -2.0124 -0.7665 -0.7981
16715TIP3   OH271635   3.158   0.757   3.443 -0.0337  0.5379  0.4531
16715TIP3    H171636   3.117   0.728   3.362 -0.6898 -1.5633  1.4971
16715TIP3    H271637   3.215   0.830   3.417  1.1795 -1.2639 -2.1785
16716TIP3   OH271638   5.031   4.872   6.803 -0.3005  0.3706  0.5071
16716TIP3    H171639   4.975   4.936   6.847  0.1935  1.2868 -0.1887
16716TIP3    H271640   5.113   4.875   6.853 -1.3510 -2.0958  2.4997
16717TIP3   OH271641   3.401   6.541  14.384  0.5897  0.0533  0.1435
16717TIP3    H171642   3.358   6.598  14.321  0.5468  0.6072  0.6754
16717TIP3    H271643   3.334   6.520  14.449  0.5134 -0.8600 -0.2168
16718TIP3   OH271644   6.502   6.540  13.741 -0.0778  0.9678 -0.1164
16718TIP3    H171645   6.522   6.634  13.736  3.2383  0.2766 -0.9572
16718TIP3    H271646   6.520   6.516  13.831 -0.1698  0.9732 -0.0954
16719TIP3   OH271647   4.227   5.785   0.605 -0.3246 -0.4929 -0.1355
16719TIP3    H171648   4.193   5.696   0.596  0.2478 -0.7417  0.1783
16719TIP3    H271649   4.237   5.798   0.699 -3.3285  1.0035  0.0463
16720TIP3   OH271650   5.468   0.539  16.621  0.9168  0.5059 -0.4036
16720TIP3    H171651   5.412   0.561  16.547  0.1784 -1.1470 -0.3474
16720TIP3    H271652   5.556   0.561  16.592  0.3725  2.1287 -0.8774
16721TIP3   OH271653   2.376   1.015   5.640 -0.2455  0.0139  0.2084
16721TIP3    H171654   2.330   0.931   5.640 -1.4313  0.6531 -0.2701
16721TIP3    H271655   2.331   1.067   5.573 -0.1142  1.3539  1.1553
16722TIP3   OH271656   6.487   4.409  11.480 -0.5412 -0.1340  0.2010
16722TIP3    H171657   6.435   4.459  11.542 -0.5075  0.7332 -0.4700
16722TIP3    H271658   6.573   4.402  11.521 -0.6489  0.0304  0.4588
16723TIP3   OH271659   1.389   4.537   4.550 -0.6700  0.1779  0.3193
16723TIP3    H171660   1.396   4.607   4.615  1.8806  0.3380 -0.0555
16723TIP3    H271661   1.346   4.578   4.475  0.7005  1.3294  0.1472
16724TIP3   OH271662   6.549   3.158   2.908 -0.0773 -0.4548  0.3043
16724TIP3    H171663   6.477   3.143   2.968  0.1288 -0.0310  0.6598
16724TIP3    H271664   6.570   3.072   2.873 -1.1085 -0.4965 -0.2043
16725TIP3   OH271665   2.622   5.256   4.384 -0.1735  0.0394 -0.1754
16725TIP3    H171666   2.714   5.237   4.364 -0.5163 -3.9751  1.6089
16725TIP3    H271667   2.625   5.328   4.446  1.8934 -1.2883  1.2963
16726TIP3   OH271668   2.635   1.573  12.158 -0.0897  0.2009  0.4010
16726TIP3    H171669   2.645   1.633  12.233 -0.5039  0.5746  0.1618
16726TIP3    H271670   2.581   1.502  12.192 -2.0107  1.3876 -0.1001
16727TIP3   OH271671   5.900   4.941   5.807 -0.2426 -0.0553  0.1399
16727TIP3    H171672   5.939   4.922   5.893  0.5560 -0.9626 -0.4193
16727TIP3    H271673   5.970   4.983   5.757 -0.5908  0.1231 -0.2036
16728TIP3   OH271674   2.474   4.134   4.360 -0.5112  0.4932 -0.6214
16728TIP3    H171675   2.432   4.081   4.292  2.1666 -0.1564 -1.8192
16728TIP3    H271676   2.452   4.224   4.336  0.2067  0.2631 -2.2580
16729TIP3   OH271677   4.651   0.600  11.559  0.5454  0.2258  0.0530
16729TIP3    H171678   4.581   0.586  11.495  0.5230 -0.0026  0.1250
16729TIP3    H271679   4.615   0.661  11.623 -0.1394 -1.1127  0.9575
16730TIP3   OH271680   0.680   0.400  12.543  0.5134  0.0035 -0.0547
16730TIP3    H171681   0.675   0.477  12.600  0.5606  0.9411 -1.2859
16730TIP3    H271682   0.771   0.398  12.513  0.0925  0.4729 -1.3791
16731TIP3   OH271683   0.811   2.543   2.646  0.4366  0.1813 -0.0802
16731TIP3    H171684   0.744   2.588   2.596 -2.5572 -2.7711  1.0767
16731TIP3    H271685   0.880   2.522   2.582 -0.6988  1.4372 -1.7270
16732TIP3   OH271686   5.509   0.672  12.216  0.6310  0.2157 -0.4363
16732TIP3    H171687   5.507   0.631  12.302  0.5795  0.4873 -0.3064
16732TIP3    H271688   5.541   0.761  12.233  4.0110 -0.7900 -1.1153
16733TIP3   OH271689   1.853   3.420  13.635  0.5628  0.0997  0.1168
16733TIP3    H171690   1.833   3.489  13.572 -1.2814 -0.4119  0.1109
16733TIP3    H271691   1.886   3.348  13.581  1.2502  0.5042 -0.0098
16734TIP3   OH271692   4.769   4.642  12.672  0.0357  0.1771  0.6159
16734TIP3    H171693   4.694   4.702  12.670  0.2669  0.4409 -0.2270
16734TIP3    H271694   4.731   4.557  12.652  0.2386  0.6183 -1.7640
16735TIP3   OH271695   1.596   3.267  13.133 -0.2279 -0.1653  0.1691
16735TIP3    H171696   1.646   3.329  13.186 -0.8675 -0.7168  1.4470
16735TIP3    H271697   1.505   3.278  13.162 -0.3210 -1.8405  0.5897
16736TIP3   OH271698   3.447   6.488  11.490  0.1152  0.0830  0.3491
16736TIP3    H171699   3.494   6.568  11.514  0.5283  0.0528 -0.3387
16736TIP3    H271700   3.355   6.513  11.489  0.1681  0.2972  1.1152
16737TIP3   OH271701   5.304   1.734   5.139 -0.1952  0.0881 -0.2149
16737TIP3    H171702   5.354   1.797   5.189  0.0525  1.1448 -1.7718
16737TIP3    H271703   5.340   1.649   5.164  2.9000  0.8602 -1.8755
16738TIP3   OH271704   5.021   4.656  16.006  0.1122 -0.5746 -0.0874
16738TIP3    H171705   5.078   4.715  15.957 -2.2187  1.4552 -0.4902
16738TIP3    H271706   4.959   4.624  15.940  0.4276 -2.2914  0.4406
16739TIP3   OH271707   2.397   1.831   0.429 -0.0471  0.5739  0.6315
16739TIP3    H171708   2.361   1.903   0.481  1.6846  0.9342  1.3806
16739TIP3    H271709   2.403   1.758   0.490  0.9656  0.6717  0.6529
16740TIP3   OH271710   0.750   4.638   4.921  0.2361 -0.0020  0.8846
16740TIP3    H171711   0.788   4.560   4.962  1.8850  1.2453  1.7855
16740TIP3    H271712   0.721   4.607   4.835  0.5223 -1.7036  1.3673
16741TIP3   OH271713   5.386   2.415   1.663  0.2803 -0.0367  0.0111
16741TIP3    H171714   5.401   2.323   1.641  1.5748  0.3088 -0.5921
16741TIP3    H271715   5.429   2.427   1.747  1.0195  0.2688 -0.4060
16742TIP3   OH271716   5.739   2.857  12.590 -0.8473 -0.0287 -0.7185
16742TIP3    H171717   5.805   2.791  12.568  0.9957  2.0889 -1.6961
16742TIP3    H271718   5.771   2.898  12.670 -1.3268  0.5461 -0.8131
16743TIP3   OH271719   4.122   2.641  13.404  0.6837  0.2324 -0.4553
16743TIP3    H171720   4.208   2.679  13.420  1.2959 -0.8154 -1.1557
16743TIP3    H271721   4.069   2.668  13.480  2.0431 -0.3141  0.7213
16744TIP3   OH271722   3.392   4.722  11.033 -0.0548  0.1573  0.7718
16744TIP3    H171723   3.484   4.703  11.050 -0.2453 -0.1938  1.4514
16744TIP3    H271724   3.363   4.770  11.111 -0.3612  0.5532  0.4148
16745TIP3   OH271725   4.253   3.725  15.836 -0.8171 -0.1790 -0.1789
16745TIP3    H171726   4.210   3.652  15.881  1.2970 -1.6446 -0.4949
16745TIP3    H271727   4.195   3.744  15.761 -1.3922 -1.5195 -0.0905
16746TIP3   OH271728   4.823   6.431   3.835  0.3651 -0.9174  0.0058
16746TIP3    H171729   4.910   6.467   3.820 -0.4401  0.6617 -1.0337
16746TIP3    H271730   4.767   6.509   3.847 -1.0317 -1.8832 -0.1443
16747TIP3   OH271731   1.058   3.417  12.353  0.1538  0.3389  0.5231
16747TIP3    H171732   1.079   3.349  12.417  0.1789 -1.0326 -0.9121
16747TIP3    H271733   1.122   3.405  12.283 -1.9076 -0.3012 -1.2953
16748TIP3   OH271734   5.998   0.239   1.173  0.2960 -0.4037 -0.0794
16748TIP3    H171735   5.977   0.331   1.188  1.7901  0.0639 -0.7688
16748TIP3    H271736   6.052   0.239   1.094  2.2643 -1.6058  1.2099
16749TIP3   OH271737   2.373   1.610   0.934  0.1568  0.1654  0.1869
16749TIP3    H171738   2.410   1.552   1.001 -1.3233 -1.9408 -0.7772
16749TIP3    H271739   2.281   1.618   0.957  0.6953  3.7212  1.3816
16750TIP3   OH271740   0.469   4.009  12.296 -0.3748  0.3162 -0.3964
16750TIP3    H171741   0.400   4.017  12.363  1.5572  1.9668  1.4576
16750TIP3    H271742   0.534   3.950  12.335  0.0531  0.0643 -1.4743
16751TIP3   OH271743   0.400   6.517   0.398  0.1151  0.1633 -0.4365
16751TIP3    H171744   0.495   6.518   0.402  0.0702 -0.0420  3.5327
16751TIP3    H271745   0.377   6.426   0.378  0.7514 -0.2260  0.5881
16752TIP3   OH271746   3.718   3.081  11.443  0.0572  0.4618  0.3508
16752TIP3    H171747   3.803   3.097  11.401  0.0712  1.3890  0.7235
16752TIP3    H271748   3.657   3.136  11.394 -0.4922 -0.8559 -0.4708
16753TIP3   OH271749   0.078   0.449  12.151 -0.1979 -0.2951 -0.2992
16753TIP3    H171750   0.049   0.489  12.069 -1.5844  0.7881  0.6912
16753TIP3    H271751   0.007   0.468  12.213  0.2856 -2.1312  0.8419
16754TIP3   OH271752   1.831   4.890  15.686  0.2908 -0.3744  0.2233
16754TIP3    H171753   1.762   4.851  15.739 -0.3982 -0.3995 -0.6758
16754TIP3    H271754   1.904   4.829  15.694 -0.8144 -1.9408 -1.2443
16755TIP3   OH271755   4.630   1.180  11.218  0.4061 -0.7403 -0.3914
16755TIP3    H171756   4.625   1.134  11.134  1.9968  0.1350 -0.9801
16755TIP3    H271757   4.723   1.201  11.228  0.4908 -2.1445  2.2900
16756TIP3   OH271758   3.912   1.524   1.838 -0.4436  0.0691 -0.4896
16756TIP3    H171759   3.984   1.474   1.878  0.4709  1.3171 -0.5437
16756TIP3    H271760   3.844   1.524   1.905  0.3431  0.5048  0.3297
16757TIP3   OH271761   0.958   5.987   5.585  0.1911  0.1996 -0.2054
16757TIP3    H171762   1.026   5.924   5.559 -0.1220 -0.2085 -0.0335
16757TIP3    H271763   1.007   6.065   5.610  0.5282  0.3860 -1.4279
16758TIP3   OH271764   2.389   2.559   3.614 -0.4278  0.3123 -0.2624
16758TIP3    H171765   2.461   2.497   3.601 -0.5566 -0.6066  2.9847
16758TIP3    H271766   2.314   2.504   3.637 -1.1320  1.5242  0.3825
16759TIP3   OH271767   4.182   0.164   4.039 -0.5255  0.4183 -0.1826
16759TIP3    H171768   4.112   0.204   4.091  0.0542 -0.0838  0.9983
16759TIP3    H271769   4.200   0.081   4.082  0.1177  0.0997 -1.0576
16760TIP3   OH271770   1.423   3.755   0.970  0.6398  0.4242  0.6614
16760TIP3    H171771   1.510   3.742   0.933 -0.1747  0.3186 -1.2758
16760TIP3    H271772   1.389   3.666   0.984  0.3728  0.4490  0.2130
16761TIP3   OH271773   2.071   0.033  13.340  0.3253  0.0732 -0.1816
16761TIP3    H171774   2.044   0.049  13.431 -0.6784 -2.1628 -0.0544
16761TIP3    H271775   1.988   0.021  13.293  0.8594  0.8292 -1.3133
16762TIP3   OH271776   2.289   6.331  15.296  0.0226 -0.1556  0.0317
16762TIP3    H171777   2.205   6.318  15.341 -2.3835  0.8585 -3.8184
16762TIP3    H271778   2.313   6.243  15.266 -1.1625 -0.0700 -1.2250
16763TIP3   OH271779   6.051   4.521   2.823 -0.1181  0.0911  0.1269
16763TIP3    H171780   5.974   4.576   2.811  0.8284  1.9318  2.1116
16763TIP3    H271781   6.016   4.435   2.845 -1.6095  0.0471 -2.2232
16764TIP3   OH271782   1.011   4.172  15.761  0.7218  0.1234 -0.0919
16764TIP3    H171783   0.960   4.244  15.797  0.0074 -0.0636 -0.7040
16764TIP3    H271784   1.030   4.199  15.671 -0.8283 -1.0912 -0.8015
16765TIP3   OH271785   2.743   4.717  13.578  0.2560 -0.0714 -0.1745
16765TIP3    H171786   2.787   4.634  13.596 -0.5378 -0.1418  1.4303
16765TIP3    H271787   2.773   4.776  13.647  1.1750  1.1418 -1.5590
16766TIP3   OH271788   0.720   0.412   2.803 -0.0968 -0.3403  0.7721
16766TIP3    H171789   0.770   0.429   2.883  0.0058 -1.5938  0.9812
16766TIP3    H271790   0.685   0.324   2.815 -0.0581 -0.5494 -0.5737
16767TIP3   OH271791   6.456   1.797  14.716  0.7795 -0.7711  0.3348
16767TIP3    H171792   6.465   1.704  14.697  1.7116 -0.7545  0.6605
16767TIP3    H271793   6.501   1.841  14.643  1.4838 -0.6180  0.8505
16768TIP3   OH271794   2.503   0.720  13.462 -0.0279 -0.5670 -0.1155
16768TIP3    H171795   2.598   0.723  13.447 -0.5190  1.4642 -3.2553
16768TIP3    H271796   2.470   0.661  13.395 -1.1549 -0.1071  0.0275
16769TIP3   OH271797   2.649   5.900  15.606  0.0306  0.2228  0.3628
16769TIP3    H171798   2.732   5.870  15.643  1.4408  3.6010  0.1021
16769TIP3    H271799   2.637   5.988  15.641 -3.3852 -0.1320  0.2347
16770TIP3   OH271800   5.281   5.525   0.253 -0.0965  0.0317  0.8010
16770TIP3    H171801   5.368   5.523   0.293  1.1479  0.7092 -1.7783
16770TIP3    H271802   5.240   5.605   0.287  1.0923  0.8004  0.4634
16771TIP3   OH271803   3.389   5.002   4.178  0.1630 -0.2889 -0.1538
16771TIP3    H171804   3.455   4.948   4.135  1.6613  1.1957  0.2333
16771TIP3    H271805   3.378   4.962   4.264 -0.5979 -1.4639 -0.7949
16772TIP3   OH271806   2.901   4.846  15.547  0.3490 -0.1568  0.8780
16772TIP3    H171807   2.883   4.753  15.559 -0.8779 -0.0512 -0.0632
16772TIP3    H271808   2.817   4.889  15.563  0.3863  0.5889 -0.8130
16773TIP3   OH271809   0.800   1.993   1.771  0.2070  0.2625 -0.1906
16773TIP3    H171810   0.881   2.001   1.722 -0.4043  0.6368 -1.1475
16773TIP3    H271811   0.740   1.946   1.714 -1.1442  2.4219 -0.6387
16774TIP3   OH271812   0.958   6.444   0.666  0.0265 -0.2614  0.2611
16774TIP3    H171813   0.894   6.515   0.660 -1.0031 -1.1262  0.7210
16774TIP3    H271814   1.040   6.487   0.691 -1.0779  0.5061  2.6779
16775TIP3   OH271815   4.064   0.411   5.457  0.2039  0.5876 -0.4437
16775TIP3    H171816   4.158   0.396   5.465 -0.3312 -3.2462 -0.6799
16775TIP3    H271817   4.042   0.462   5.535  2.1237 -0.1884  0.6545
16776TIP3   OH271818   3.566   1.403   1.157 -0.0750 -0.1677 -0.2809
16776TIP3    H171819   3.649   1.449   1.165 -1.2674  2.3894 -1.9075
16776TIP3    H271820   3.501   1.465   1.188 -1.4936 -1.7320 -0.0632
16777TIP3   OH271821   3.403   4.971   2.836  0.0500  0.0514 -0.4031
16777TIP3    H171822   3.376   4.907   2.770 -0.9289  0.8687 -0.8000
16777TIP3    H271823   3.499   4.974   2.828 -0.0037 -0.3739 -1.2937
16778TIP3   OH271824   5.594   4.195  11.543 -0.3339  0.3016  0.1459
16778TIP3    H171825   5.504   4.184  11.574 -0.2640  0.6345  0.4738
16778TIP3    H271826   5.631   4.261  11.602  0.3589 -0.3848  0.4824
16779TIP3   OH271827   2.001   2.312   3.432 -0.0320 -0.2310 -0.3852
16779TIP3    H171828   2.080   2.288   3.385 -1.6383  0.5036 -3.6115
16779TIP3    H271829   1.937   2.244   3.409 -1.0804  0.5629  0.1029
16780TIP3   OH271830   2.750   0.876  12.622  0.0073  1.0216  0.4485
16780TIP3    H171831   2.845   0.867  12.623 -0.0189  0.5167 -0.4605
16780TIP3    H271832   2.718   0.805  12.677  0.1283  0.6678  0.0636
16781TIP3   OH271833   6.167   3.948   3.737 -0.7216  0.3944  0.0659
16781TIP3    H171834   6.184   3.864   3.780 -0.0306  0.1470 -0.6808
16781TIP3    H271835   6.079   3.972   3.767 -1.5169 -1.2881 -0.8025
16782TIP3   OH271836   5.148   5.130   1.484  0.4123  0.1354  0.0405
16782TIP3    H171837   5.169   5.082   1.565 -0.3734  0.9252  0.7193
16782TIP3    H271838   5.067   5.090   1.453  0.3544  0.2855  0.0018
16783TIP3   OH271839   5.150   4.028  10.789 -0.1809  0.2402  0.9751
16783TIP3    H171840   5.082   3.978  10.834 -0.5196 -0.6411 -0.4962
16783TIP3    H271841   5.160   3.984  10.704  1.5975  0.8900  0.8295
16784TIP3   OH271842   6.076   6.784  12.366 -0.3299  0.0005 -0.1191
16784TIP3    H171843   6.135   6.709  12.358 -0.7320 -0.2513 -0.7606
16784TIP3    H271844   5.999   6.760  12.315 -0.2648  1.0480 -0.7283
16785TIP3   OH271845   1.209   4.319   6.086  0.0664 -0.5568  0.1150
16785TIP3    H171846   1.156   4.270   6.149  0.4417 -0.1981  0.7097
16785TIP3    H271847   1.290   4.338   6.132  0.6744 -1.0042 -0.7583
16786TIP3   OH271848   1.667   0.148  13.493 -0.0558 -0.0130 -0.3782
16786TIP3    H171849   1.647   0.240  13.478  0.1317  0.2616  0.9249
16786TIP3    H271850   1.746   0.132  13.441 -0.0797  0.5702 -0.5980
16787TIP3   OH271851   0.095   3.410  15.713 -0.5186  0.0635 -0.1699
16787TIP3    H171852   0.147   3.457  15.648  0.8578 -0.7068  0.3381
16787TIP3    H271853   0.008   3.450  15.709 -0.3135  0.3630 -2.1119
16788TIP3   OH271854   0.765   1.326  13.647  0.2002  0.1626 -0.4318
16788TIP3    H171855   0.792   1.263  13.581  0.3036 -1.9345  1.5818
16788TIP3    H271856   0.820   1.403  13.630  3.5592 -2.0157  0.1269
16789TIP3   OH271857   4.865   3.029   3.800  0.2880 -0.0567  0.5278
16789TIP3    H171858   4.855   2.978   3.881  0.6204  0.8350  1.1395
16789TIP3    H271859   4.856   2.965   3.730 -3.1627 -0.3824  1.1561
16790TIP3   OH271860   3.551   5.812  15.973  0.6309 -0.2758 -0.7576
16790TIP3    H171861   3.570   5.851  16.059  0.9368 -2.8140  0.3590
16790TIP3    H271862   3.550   5.718  15.989  0.5691 -0.7851 -3.5409
16791TIP3   OH271863   6.454   0.077  15.822  0.2952  0.0960 -0.0881
16791TIP3    H171864   6.470  -0.007  15.864  1.2190 -1.0598 -2.6404
16791TIP3    H271865   6.414   0.055  15.738 -0.6256  2.2699 -0.2585
16792TIP3   OH271866   3.568   0.681  16.030 -0.1354 -0.0797  0.2751
16792TIP3    H171867   3.569   0.754  16.093 -0.1857  0.2341 -0.0855
16792TIP3    H271868   3.501   0.706  15.966 -0.6231 -0.7575  0.5120
16793TIP3   OH271869   1.729   3.855  12.713 -0.1370  0.1584 -0.0042
16793TIP3    H171870   1.737   3.922  12.646  0.2942  0.2843  0.1704
16793TIP3    H271871   1.729   3.773  12.665  1.8854  0.1597 -0.0559
16794TIP3   OH271872   3.201   6.693  12.585  0.0982  0.6326  0.0059
16794TIP3    H171873   3.181   6.641  12.507 -0.6187 -0.5522  0.9517
16794TIP3    H271874   3.117   6.702  12.630  0.7912 -0.1100  1.4812
16795TIP3   OH271875   6.204   4.169  13.194  0.7435 -0.7831  0.2198
16795TIP3    H171876   6.195   4.188  13.287  2.8290 -0.4976  0.3867
16795TIP3    H271877   6.280   4.221  13.166 -0.8914  0.5011 -2.0244
16796TIP3   OH271878   6.181   5.619  13.930  0.2033  0.7019 -0.0180
16796TIP3    H171879   6.187   5.643  13.837  0.6214  1.0284  0.0919
16796TIP3    H271880   6.246   5.549  13.941  0.8672  1.3469  0.2437
16797TIP3   OH271881   5.002   5.005   4.777 -0.1286  1.0403 -0.4136
16797TIP3    H171882   5.045   5.088   4.755 -0.9041  1.8456  0.9833
16797TIP3    H271883   4.918   5.009   4.731 -0.8233  1.7480  0.8758
16798TIP3   OH271884   2.577   3.179  16.718  0.5163 -0.0293 -0.2428
16798TIP3    H171885   2.501   3.132  16.753  0.3647  0.3453 -0.0735
16798TIP3    H271886   2.645   3.112  16.712  0.2335 -0.3217 -0.2031
16799TIP3   OH271887   2.012   1.994   4.633  0.4014 -0.4968  0.0593
16799TIP3    H171888   2.087   2.038   4.593 -0.3203 -0.7844 -1.6288
16799TIP3    H271889   2.035   1.901   4.630 -0.4774 -0.6779 -1.4509
16800TIP3   OH271890   3.720   1.733   1.512 -0.1635 -0.4550  0.0917
16800TIP3    H171891   3.804   1.691   1.491 -0.2786 -0.7421  0.2009
16800TIP3    H271892   3.741   1.795   1.582  0.1445  0.2090 -0.5881
16801TIP3   OH271893   6.754   0.427   4.758  0.0709 -0.3028  0.0152
16801TIP3    H171894   6.806   0.475   4.822 -0.9952  0.8733  0.0381
16801TIP3    H271895   6.671   0.410   4.802  0.6800 -2.8286  0.2446
16802TIP3   OH271896   3.097   3.488  11.935  0.1748 -0.3222 -0.1634
16802TIP3    H171897   3.151   3.411  11.915  0.7177  0.1914 -0.6760
16802TIP3    H271898   3.137   3.559  11.886 -0.4824  0.2410  0.1086
16803TIP3   OH271899   6.178   2.630  12.362 -0.1405  0.7982 -0.0246
16803TIP3    H171900   6.141   2.634  12.450 -2.6506  1.6003 -1.0564
16803TIP3    H271901   6.151   2.544  12.328 -1.3252  1.4811 -0.8666
16804TIP3   OH271902   5.747   5.794  12.875 -0.2315  0.5416 -0.2029
16804TIP3    H171903   5.657   5.762  12.878  0.1754 -0.8696 -1.9218
16804TIP3    H271904   5.793   5.742  12.941 -0.4732  0.5626 -0.0172
16805TIP3   OH271905   1.740   5.991   0.572 -0.9473  0.0487  0.2468
16805TIP3    H171906   1.660   6.034   0.602 -1.3977 -0.3259 -0.4126
16805TIP3    H271907   1.797   6.064   0.545 -1.7599  0.2352 -0.9844
16806TIP3   OH271908   6.242   3.397  15.160  0.3079  0.1017 -0.1193
16806TIP3    H171909   6.184   3.343  15.212 -0.1058  0.7619  0.1116
16806TIP3    H271910   6.224   3.372  15.069  1.4479 -1.4727  0.0593
16807TIP3   OH271911   4.726   1.493   1.948  0.2172  0.2508  0.4594
16807TIP3    H171912   4.634   1.468   1.963 -0.5314  0.8622 -2.8361
16807TIP3    H271913   4.761   1.424   1.893  1.5236  0.4775  0.9999
16808TIP3   OH271914   5.353   6.349   3.786  0.1746  0.2931  0.6562
16808TIP3    H171915   5.415   6.318   3.720 -0.4844  0.3101  0.0179
16808TIP3    H271916   5.272   6.303   3.765 -1.1450  3.2465 -0.9965
16809TIP3   OH271917   2.069   0.311  11.756  0.4985  0.3583  0.1831
16809TIP3    H171918   2.147   0.256  11.765  0.2797  0.1118  0.5965
16809TIP3    H271919   2.091   0.392  11.803  0.4713  0.2537  0.3757
16810TIP3   OH271920   0.703   0.848   4.513  0.1239 -0.8881  0.2841
16810TIP3    H171921   0.684   0.931   4.557 -0.3773  0.2619 -2.0170
16810TIP3    H271922   0.798   0.847   4.504  0.0720 -0.1113 -0.4715
16811TIP3   OH271923   1.021   0.575  11.384 -0.4528 -0.1157 -0.2407
16811TIP3    H171924   0.960   0.530  11.442  0.5202 -1.8743 -0.5364
16811TIP3    H271925   1.033   0.515  11.310 -0.0373  1.1539 -1.2334
16812TIP3   OH271926   0.822   4.529   2.374 -0.3382 -0.0939 -0.1547
16812TIP3    H171927   0.751   4.588   2.353 -0.9994 -0.0000  2.1940
16812TIP3    H271928   0.799   4.447   2.331 -1.8983 -0.0738  0.6056
16813TIP3   OH271929   5.124   6.419   4.558 -0.5112  0.3583  0.2537
16813TIP3    H171930   5.114   6.326   4.576  1.4134  0.3883  1.5787
16813TIP3    H271931   5.112   6.462   4.642 -1.2131  1.3077 -0.3139
16814TIP3   OH271932   0.380   5.295  15.420  0.0237  0.1351  0.5803
16814TIP3    H171933   0.389   5.384  15.454 -1.0921  0.7363 -0.6291
16814TIP3    H271934   0.295   5.295  15.375  0.4913 -1.2369 -0.3427
16815TIP3   OH271935   1.709   5.840  15.290  0.3250 -0.0299  0.1539
16815TIP3    H171936   1.686   5.747  15.297 -1.3487  0.5069  2.5749
16815TIP3    H271937   1.802   5.844  15.315  0.3459 -1.0378  0.2526
16816TIP3   OH271938   2.011   4.882   3.107  0.4543  0.1886 -0.7064
16816TIP3    H171939   1.920   4.863   3.132  0.7786  1.2714  1.4490
16816TIP3    H271940   2.007   4.971   3.072  0.4503 -0.3395 -2.0819
16817TIP3   OH271941   0.033   6.171  11.372 -0.1962 -0.0554  0.2638
16817TIP3    H171942   0.040   6.240  11.438  3.0895 -0.4288  0.3781
16817TIP3    H271943   0.124   6.148  11.352 -1.1847 -1.7050 -2.5561
16818TIP3   OH271944   2.731   0.802  14.880 -0.5496 -0.3694 -0.4119
16818TIP3    H171945   2.697   0.859  14.949  0.7339  0.6974 -0.6422
16818TIP3    H271946   2.775   0.732  14.928  1.1600  0.8751 -0.1232
16819TIP3   OH271947   5.398   5.776  13.332  0.0480 -0.5108  0.2565
16819TIP3    H171948   5.334   5.707  13.347  0.3856 -0.8954 -0.0633
16819TIP3    H271949   5.466   5.760  13.397  0.0636 -0.4004  0.2681
16820TIP3   OH271950   0.467   4.892  14.823  0.0828  0.4645 -0.7735
16820TIP3    H171951   0.431   4.909  14.910 -0.5785 -0.3699 -0.8816
16820TIP3    H271952   0.523   4.968  14.805 -1.0793  1.4456 -0.3188
16821TIP3   OH271953   0.739   4.990  10.814 -0.0353  0.3232 -0.2278
16821TIP3    H171954   0.744   5.085  10.805  0.2354  0.3436  0.1573
16821TIP3    H271955   0.801   4.956  10.750 -0.8073  0.3811 -1.0127
16822TIP3   OH271956   1.154   2.251  15.568  0.6267  0.1168 -0.2142
16822TIP3    H171957   1.136   2.342  15.544  0.1896  0.1931  0.4003
16822TIP3    H271958   1.195   2.257  15.654 -0.8836 -0.3653  0.5449
16823TIP3   OH271959   2.391   5.132   3.142  0.3776 -0.3829  0.6206
16823TIP3    H171960   2.298   5.150   3.149  0.2892 -0.0641 -1.1402
16823TIP3    H271961   2.413   5.085   3.222 -0.8114  1.5133  2.0838
16824TIP3   OH271962   2.294   2.045   3.720  0.7952  0.4543 -0.4806
16824TIP3    H171963   2.309   2.113   3.655 -0.8496  0.8063 -0.5058
16824TIP3    H271964   2.280   1.965   3.668  2.3265  0.1627 -0.4620
16825TIP3   OH271965   4.967   0.961  16.189 -0.3552 -0.1533 -0.3284
16825TIP3    H171966   4.917   0.962  16.108  0.4454  0.9868 -0.8348
16825TIP3    H271967   4.948   0.876  16.229 -2.7367  0.2973 -0.4567
16826TIP3   OH271968   6.803   0.165  12.312 -0.3379 -0.4395 -0.4915
16826TIP3    H171969   6.823   0.222  12.237  0.5198  0.2560  0.2540
16826TIP3    H271970   6.726   0.115  12.284 -0.3559  0.1993 -1.6301
16827TIP3   OH271971   6.234   4.932  14.198 -0.1713 -0.0196  1.1217
16827TIP3    H171972   6.257   4.858  14.255 -0.1900 -1.5418 -0.7976
16827TIP3    H271973   6.170   4.895  14.137 -1.7132  2.1294  1.4057
16828TIP3   OH271974   4.398   2.404  11.514  0.8528  0.1483 -0.1701
16828TIP3    H171975   4.447   2.378  11.437  0.6502 -0.5839 -0.0556
16828TIP3    H271976   4.310   2.369  11.500  0.7149  0.3347  0.2161
16829TIP3   OH271977   5.533   0.526  11.489 -0.6307  0.3532  0.1294
16829TIP3    H171978   5.594   0.548  11.419 -0.6122  0.5660  0.2130
16829TIP3    H271979   5.453   0.500  11.443 -1.2353  2.2549  0.0369
16830TIP3   OH271980   0.102   1.384   5.196 -0.0182 -0.1030  0.3839
16830TIP3    H171981   0.112   1.317   5.263 -0.9456 -0.7622 -0.1217
16830TIP3    H271982   0.008   1.402   5.194  0.0770  0.3548 -0.3116
16831TIP3   OH271983   4.289   1.640  15.957  0.5583 -0.4591  0.4716
16831TIP3    H171984   4.239   1.679  16.029  0.3193 -0.2651  0.2032
16831TIP3    H271985   4.369   1.691  15.953  0.3082 -0.0777  0.2128
16832TIP3   OH271986   0.296   4.537  15.296  0.0734  0.0489  0.4356
16832TIP3    H171987   0.231   4.567  15.232 -0.3808  0.2292  0.9794
16832TIP3    H271988   0.320   4.616  15.345  1.0323  0.0672 -0.0562
16833TIP3   OH271989   1.144   3.072   4.091  0.5530 -0.5409  0.0927
16833TIP3    H171990   1.073   3.021   4.131 -0.3446 -0.5046 -1.3975
16833TIP3    H271991   1.149   3.152   4.144 -0.2017 -0.7613  0.5038
16834TIP3   OH271992   5.413   0.643  15.103  0.3132 -0.0372 -0.2293
16834TIP3    H171993   5.466   0.582  15.052 -0.4120 -0.7424 -0.1552
16834TIP3    H271994   5.395   0.596  15.185 -0.0531  0.3706 -0.0758
16835TIP3   OH271995   6.808   4.767  11.300  0.0269  0.0690  0.4017
16835TIP3    H171996   6.845   4.772  11.212 -0.4459 -0.7109  0.1434
16835TIP3    H271997   6.755   4.846  11.308 -1.1482 -0.5813 -0.6115
16836TIP3   OH271998   6.125   5.627   4.396 -0.2802 -0.1775  0.3837
16836TIP3    H171999   6.071   5.605   4.320 -2.5515 -0.6744  2.0656
16836TIP3    H272000   6.077   5.590   4.470  0.3683  2.8398  2.3871
16837TIP3   OH272001   1.428   3.471   1.184  0.0305  0.1179 -0.1710
16837TIP3    H172002   1.417   3.465   1.279  1.0179  1.1123  0.0199
16837TIP3    H272003   1.403   3.384   1.151 -2.6631  0.5211  0.7453
16838TIP3   OH272004   5.445   5.628   1.005  0.0226  0.2329 -0.0242
16838TIP3    H172005   5.399   5.613   1.088 -0.0431  3.6923  0.6296
16838TIP3    H272006   5.375   5.645   0.942  0.2476  3.3093  0.4949
16839TIP3   OH272007   3.811   5.963  13.968 -0.1972 -0.1459 -0.3985
16839TIP3    H172008   3.724   5.927  13.982  0.2497 -0.6876  1.0636
16839TIP3    H272009   3.864   5.887  13.944 -0.2214  0.2551 -1.7633
16840TIP3   OH272010   3.006   2.063  16.600 -0.0411  0.0073 -0.6505
16840TIP3    H172011   3.077   2.030  16.655  0.4877  1.5683 -0.3634
16840TIP3    H272012   2.926   2.041  16.648  0.0797 -3.4377 -1.8534
16841TIP3   OH272013   4.963   4.982   3.759  0.1461  0.7298 -0.0526
16841TIP3    H172014   4.996   5.009   3.673  0.8708 -0.8251 -0.2664
16841TIP3    H272015   4.932   4.893   3.746  1.1831  0.1186  1.5445
16842TIP3   OH272016   3.580   1.700   4.631 -0.5345  0.4035 -0.5218
16842TIP3    H172017   3.650   1.637   4.647 -0.5827  0.3825 -0.3952
16842TIP3    H272018   3.559   1.688   4.538  0.3385  1.1302 -0.8218
16843TIP3   OH272019   5.795   0.333   0.479 -0.7428 -0.1718  0.0808
16843TIP3    H172020   5.712   0.371   0.450  0.3409  1.8641 -0.4298
16843TIP3    H272021   5.805   0.255   0.425 -1.7219  0.2478 -0.7360
16844TIP3   OH272022   4.348   6.525   5.212 -0.3719 -0.4153  0.2796
16844TIP3    H172023   4.355   6.601   5.270  0.0681 -0.5124  0.3572
16844TIP3    H272024   4.284   6.468   5.255  0.2392 -0.6609  0.8707
16845TIP3   OH272025   2.020   5.815   0.340  0.0605  0.3387  0.1011
16845TIP3    H172026   1.994   5.778   0.256 -1.6689  0.0497  0.7439
16845TIP3    H272027   1.939   5.822   0.389  0.9765  1.0359  1.5514
16846TIP3   OH272028   0.591   2.436  13.028  0.2959 -0.0974  0.1571
16846TIP3    H172029   0.559   2.441  13.118  1.1971  0.1294  0.4671
16846TIP3    H272030   0.682   2.406  13.036  0.4583  0.1612 -0.6599
16847TIP3   OH272031   5.468   6.509   2.163 -0.1085  0.4369  0.0502
16847TIP3    H172032   5.414   6.462   2.226 -0.1029  0.2947 -0.0499
16847TIP3    H272033   5.551   6.523   2.208  0.5291 -1.2654 -0.5658
16848TIP3   OH272034   5.339   3.252  10.494  0.0346  0.6551 -0.0577
16848TIP3    H172035   5.387   3.263  10.576 -1.4398  2.2515  0.6219
16848TIP3    H272036   5.262   3.202  10.518  0.8724 -1.1338 -0.9828
16849TIP3   OH272037   6.437   6.359   0.228  0.2008 -0.4537 -0.1523
16849TIP3    H172038   6.523   6.351   0.269 -0.1707 -1.6382  0.4305
16849TIP3    H272039   6.387   6.285   0.263 -1.1219  0.3432 -0.3160
16850TIP3   OH272040   5.739   5.353   4.041  0.1432 -0.1298  0.3348
16850TIP3    H172041   5.723   5.444   4.016  1.5062 -0.1399 -0.6913
16850TIP3    H272042   5.712   5.348   4.132 -2.0587  0.7282 -0.2352
16851TIP3   OH272043   1.081   5.132  13.123  0.1025 -0.0382  0.2009
16851TIP3    H172044   1.036   5.063  13.172 -2.2584  1.6793  0.5415
16851TIP3    H272045   1.062   5.114  13.031  3.5569 -2.5851 -0.1001
16852TIP3   OH272046   1.211   5.973  12.336  0.8048 -0.1777 -0.0359
16852TIP3    H172047   1.234   6.054  12.291 -2.6868  1.5300  1.0891
16852TIP3    H272048   1.161   5.922  12.272 -1.3072  0.8149  0.7507
16853TIP3   OH272049   0.950   5.175   3.121 -0.0131  0.0059 -0.5145
16853TIP3    H172050   0.904   5.257   3.102  0.2333  0.0268 -1.0316
16853TIP3    H272051   0.997   5.155   3.040 -2.7680 -2.4343 -1.6013
16854TIP3   OH272052   0.019   0.520  14.254 -0.2606  0.3390  0.3635
16854TIP3    H172053   0.073   0.464  14.310  1.1058  0.9753 -0.3006
16854TIP3    H272054   0.019   0.475  14.169 -1.7417 -0.2586  0.6683
16855TIP3   OH272055   1.361   0.450  13.485  0.3523  0.1665  0.3797
16855TIP3    H172056   1.329   0.453  13.575  1.0511 -0.0409  0.6393
16855TIP3    H272057   1.337   0.535  13.448 -2.3690 -0.7414 -0.0839
16856TIP3   OH272058   6.807   5.330   4.684  0.0865 -0.1327  0.5729
16856TIP3    H172059   6.721   5.314   4.724 -0.8767  1.1256 -0.9307
16856TIP3    H272060   6.788   5.347   4.592  2.3097 -3.2702 -0.5507
16857TIP3   OH272061   6.551   0.087  16.391  0.0265 -0.3129 -0.2893
16857TIP3    H172062   6.599   0.161  16.430  0.1630 -1.6857  2.2316
16857TIP3    H272063   6.619   0.032  16.352  0.1721 -0.5066  0.2410
16858TIP3   OH272064   5.145   0.193  13.334 -0.2048  0.3192  0.4253
16858TIP3    H172065   5.057   0.212  13.300 -0.1935  1.9337  1.2543
16858TIP3    H272066   5.157   0.256  13.405  1.2670 -0.5136  0.9348
16859TIP3   OH272067   1.391   4.210   5.114  1.2071  0.1145  0.4563
16859TIP3    H172068   1.367   4.303   5.118  0.3202 -0.0322 -0.9866
16859TIP3    H272069   1.310   4.166   5.087  2.2088 -0.7995 -1.1111
16860TIP3   OH272070   4.358   4.356   5.469  0.0268 -0.1269 -0.2629
16860TIP3    H172071   4.386   4.267   5.489  0.4678 -0.1118 -0.8218
16860TIP3    H272072   4.324   4.389   5.552  0.3341 -0.6388  0.0696
16861TIP3   OH272073   6.238   1.919  13.570 -0.3015  0.4410  0.0582
16861TIP3    H172074   6.257   1.907  13.663  0.9773 -0.2164 -0.2700
16861TIP3    H272075   6.147   1.891  13.561 -0.3593  0.2609  1.0616
16862TIP3   OH272076   5.802   6.790  15.843 -0.2427 -0.0904 -0.4027
16862TIP3    H172077   5.756   6.872  15.863 -0.6882 -0.2315 -0.8368
16862TIP3    H272078   5.881   6.794  15.896 -0.5260  0.3726 -0.0036
16863TIP3   OH272079   3.019   1.978   4.192  0.1639 -0.1077  0.1646
16863TIP3    H172080   2.995   1.920   4.264  0.4343 -2.3588 -1.5032
16863TIP3    H272081   3.111   1.958   4.175 -0.2751 -0.6599 -1.7066
16864TIP3   OH272082   6.712   1.000  11.708 -0.2315  0.1974  0.3518
16864TIP3    H172083   6.638   1.054  11.736 -0.2675 -0.8090  2.3301
16864TIP3    H272084   6.679   0.910  11.715  1.2449 -0.2800  1.5689
16865TIP3   OH272085   1.049   1.417  16.191 -0.3380  0.4042  0.1594
16865TIP3    H172086   1.032   1.354  16.121  0.4853  0.6126 -0.2319
16865TIP3    H272087   1.144   1.430  16.189 -0.2167 -0.1043  1.7531
16866TIP3   OH272088   4.542   2.181   1.242 -0.2275  0.0864  0.4373
16866TIP3    H172089   4.461   2.225   1.217 -2.1878 -2.6898  1.7349
16866TIP3    H272090   4.545   2.188   1.337  0.6341 -0.5909  0.4586
16867TIP3   OH272091   1.373   6.265  12.253 -0.3145 -0.1736 -0.1465
16867TIP3    H172092   1.304   6.324  12.281 -1.3298 -1.6646  0.5659
16867TIP3    H272093   1.404   6.224  12.334  1.3362  0.3858 -0.4656
16868TIP3   OH272094   4.687   2.954   5.175 -0.0233  0.3931 -0.0202
16868TIP3    H172095   4.762   2.941   5.233  0.2701  0.1211 -0.4571
16868TIP3    H272096   4.700   3.042   5.138 -1.3514  1.4581  1.9770
16869TIP3   OH272097   4.660   3.591   0.421  0.1967 -0.0809  0.2493
16869TIP3    H172098   4.579   3.591   0.370 -0.2152  0.8202  0.8673
16869TIP3    H272099   4.631   3.610   0.511  1.1592  0.9642  0.3515
16870TIP3   OH272100   6.032   2.389  12.304 -0.6969 -0.1095 -0.0554
16870TIP3    H172101   5.973   2.314  12.305 -0.9689  0.0734 -2.0159
16870TIP3    H272102   6.114   2.355  12.269 -1.1350  0.7310 -1.9176
16871TIP3   OH272103   6.657   2.662   1.753  0.1706  0.3642 -0.1423
16871TIP3    H172104   6.722   2.725   1.724  0.0590  1.0809  1.1247
16871TIP3    H272105   6.698   2.619   1.829  0.5419 -1.6066 -1.4044
16872TIP3   OH272106   4.893   5.182  16.791  0.2478 -0.1187  0.2178
16872TIP3    H172107   4.837   5.141  16.725 -0.8707 -0.0512  1.0983
16872TIP3    H272108   4.831   5.222  16.852  1.2354 -1.1376  1.9077
16873TIP3   OH272109   3.231   5.161   0.368 -0.1385  0.0304 -0.1641
16873TIP3    H172110   3.237   5.111   0.287 -1.5117 -0.1023 -0.2081
16873TIP3    H272111   3.296   5.230   0.359  0.4633 -0.6199 -0.9155
16874TIP3   OH272112   0.236   1.312   0.545 -0.3062  1.1377 -0.1924
16874TIP3    H172113   0.149   1.335   0.511  0.4166  0.1574 -2.8705
16874TIP3    H272114   0.222   1.295   0.638 -3.4239 -1.2040 -1.0271
16875TIP3   OH272115   3.221   0.044   3.549 -0.1434  0.8818 -0.1650
16875TIP3    H172116   3.173  -0.003   3.617 -1.1402  2.7089  0.4332
16875TIP3    H272117   3.189   0.007   3.467  0.5500 -0.8442  0.3077
16876TIP3   OH272118   5.620   4.992   0.069  0.0092  0.2201 -0.4057
16876TIP3    H172119   5.577   5.078   0.061 -0.3869 -0.0056 -0.7637
16876TIP3    H272120   5.549   4.929   0.052  0.2908 -0.1769 -0.1070
16877TIP3   OH272121   1.894   6.185  10.719  0.8362  0.2056  0.0436
16877TIP3    H172122   1.805   6.172  10.687  0.3044 -2.9791  2.4551
16877TIP3    H272123   1.886   6.250  10.789  0.5570  0.6105 -0.3690
16878TIP3   OH272124   3.515   5.013  11.983  0.4245 -0.2253  0.5625
16878TIP3    H172125   3.492   5.101  12.013  0.6383  0.6764 -1.8237
16878TIP3    H272126   3.608   5.019  11.959  0.4297 -1.0818  0.3540
16879TIP3   OH272127   2.859   0.388   5.197  0.6467 -0.3290  0.3025
16879TIP3    H172128   2.907   0.461   5.235  1.9702 -0.5129 -1.0072
16879TIP3    H272129   2.769   0.420   5.189  0.8310  0.5110  1.4090
16880TIP3   OH272130   4.892   5.621  16.284 -0.2305  0.8136 -0.2149
16880TIP3    H172131   4.885   5.713  16.256  0.1482  1.3397  1.3759
16880TIP3    H272132   4.887   5.625  16.380  0.3538 -0.7848 -0.1147
16881TIP3   OH272133   2.787   4.901  15.139 -0.2582  0.0271 -0.5726
16881TIP3    H172134   2.874   4.861  15.143 -0.9752 -1.6615 -1.2246
16881TIP3    H272135   2.775   4.943  15.224  0.9930 -0.1418 -0.3086
16882TIP3   OH272136   0.532   4.505  11.687 -0.5683  0.0542 -0.2822
16882TIP3    H172137   0.621   4.486  11.658 -0.6041 -0.1775 -0.2356
16882TIP3    H272138   0.502   4.573  11.626 -1.2064 -1.5508 -1.7948
16883TIP3   OH272139   5.568   5.469  12.095  0.2694 -0.0124 -0.6352
16883TIP3    H172140   5.543   5.480  12.003  1.5801 -0.5817 -1.0823
16883TIP3    H272141   5.636   5.402  12.092 -0.5839 -0.9774  0.8983
16884TIP3   OH272142   2.355   6.164   2.247  0.3056  0.1327 -0.1693
16884TIP3    H172143   2.307   6.218   2.309  1.8917  0.5930  0.6961
16884TIP3    H272144   2.290   6.104   2.211 -0.7537  0.2540  1.5146
16885TIP3   OH272145   4.596   5.862  16.516 -0.1712  0.5022  0.2048
16885TIP3    H172146   4.514   5.823  16.485  0.7236 -1.1794 -0.1586
16885TIP3    H272147   4.626   5.917  16.444 -0.1259 -0.2501 -0.3626
16886TIP3   OH272148   1.939   2.240   5.146  0.0656 -0.4561  0.2190
16886TIP3    H172149   1.962   2.268   5.235  1.5149  0.0031 -0.2688
16886TIP3    H272150   1.868   2.298   5.121  0.6761  0.4480  0.5313
16887TIP3   OH272151   3.476   2.118   5.687  0.8967 -0.2582 -0.3142
16887TIP3    H172152   3.544   2.185   5.685  2.3489 -1.7437 -1.9322
16887TIP3    H272153   3.423   2.141   5.763  0.8871  3.1632 -1.2609
16888TIP3   OH272154   6.551   3.034  17.116 -0.4750 -0.2768  0.1322
16888TIP3    H172155   6.541   2.949  17.073 -2.2723  0.2395 -0.4849
16888TIP3    H272156   6.476   3.085  17.087 -0.4157  0.9009  1.9715
16889TIP3   OH272157   1.287   2.633  12.603  0.4189  0.2558  0.6461
16889TIP3    H172158   1.286   2.726  12.581  0.3594  0.1143  0.0593
16889TIP3    H272159   1.229   2.592  12.539  0.1559 -0.1363  1.1317
16890TIP3   OH272160   4.996   1.149  15.983 -0.2677  0.2855 -0.1302
16890TIP3    H172161   5.020   1.223  16.040  0.0636 -0.4020  0.6276
16890TIP3    H272162   4.902   1.141  15.993 -0.0727 -0.4810  1.1099
16891TIP3   OH272163   2.806   3.164  11.746  0.8844  0.2321 -0.7272
16891TIP3    H172164   2.861   3.128  11.815  1.3602 -1.4759 -1.9690
16891TIP3    H272165   2.735   3.209  11.792 -0.5325 -3.5143  0.9243
16892TIP3   OH272166   5.165   0.494   4.696  0.4624 -0.5150 -0.3115
16892TIP3    H172167   5.237   0.511   4.757 -0.1681  1.5852 -0.1154
16892TIP3    H272168   5.204   0.506   4.610  0.4908  0.0470 -0.2224
16893TIP3   OH272169   1.901   5.913  14.606 -0.2608  0.2402  0.2949
16893TIP3    H172170   1.807   5.918  14.624 -0.7989  0.2356 -2.2416
16893TIP3    H272171   1.906   5.893  14.512  2.2689 -0.6031  0.5716
16894TIP3   OH272172   1.174   3.241   0.577  0.2434  0.3339  0.1079
16894TIP3    H172173   1.167   3.310   0.511 -1.1258  0.2600  0.1569
16894TIP3    H272174   1.099   3.184   0.560  0.8474 -0.6270  0.6528
16895TIP3   OH272175   5.227   3.970   5.359  0.8270  0.1450  0.0339
16895TIP3    H172176   5.237   3.882   5.395  2.0805  0.8424  1.4782
16895TIP3    H272177   5.167   4.014   5.420  1.1249  0.6329 -0.0214
16896TIP3   OH272178   4.538   3.232   6.042 -0.3401  0.2949 -0.4863
16896TIP3    H172179   4.462   3.201   6.091  0.6842 -0.0385  0.9060
16896TIP3    H272180   4.532   3.327   6.045  0.4275  0.2938  1.4185
16897TIP3   OH272181   3.639   2.735   1.353  0.4077  0.2863  0.3044
16897TIP3    H172182   3.576   2.796   1.392  1.3974  2.4063 -1.2721
16897TIP3    H272183   3.652   2.668   1.420  0.7788  2.8803  2.9645
16898TIP3   OH272184   4.913   2.096   3.081 -0.6596 -0.5205 -0.0495
16898TIP3    H172185   4.963   2.022   3.116  0.4576  0.0053 -0.5439
16898TIP3    H272186   4.877   2.138   3.159  0.2849 -0.4522  0.3512
16899TIP3   OH272187   4.776   5.057   2.670 -0.1170 -0.2534 -0.3224
16899TIP3    H172188   4.772   5.144   2.709  1.7244 -0.5456  0.5543
16899TIP3    H272189   4.684   5.033   2.656 -0.7169  0.9098  1.4795
16900TIP3   OH272190   3.038   0.297   4.987 -0.3491 -0.5515 -0.4210
16900TIP3    H172191   2.995   0.307   4.902  0.4484 -0.2538 -0.7909
16900TIP3    H272192   2.976   0.335   5.049 -0.6593 -0.1993 -0.9423
16901TIP3   OH272193   0.442   2.654   1.000  0.4527  0.5480 -0.2189
16901TIP3    H172194   0.363   2.673   1.050 -0.7653  0.6187 -2.1156
16901TIP3    H272195   0.437   2.560   0.981  1.4284  0.3109  0.6490
16902TIP3   OH272196   3.135   5.848   0.387 -0.2166  0.1911  0.1940
16902TIP3    H172197   3.221   5.867   0.349 -0.0395 -0.9771 -0.0150
16902TIP3    H272198   3.114   5.761   0.355 -0.6245 -0.3106  1.7963
16903TIP3   OH272199   2.207   3.010  11.275 -0.0931  0.3454  0.2561
16903TIP3    H172200   2.218   3.081  11.212  2.9196 -0.7769 -0.5858
16903TIP3    H272201   2.296   2.979  11.292 -1.1237 -1.4695  2.6581
16904TIP3   OH272202   6.452   5.727  14.201  0.2829 -0.1457  0.0725
16904TIP3    H172203   6.544   5.733  14.227 -0.0882  0.6510  1.1956
16904TIP3    H272204   6.455   5.732  14.105  1.3739  0.3439  0.1175
16905TIP3   OH272205   2.214   4.113  15.002 -0.4139  0.6293 -0.6068
16905TIP3    H172206   2.167   4.196  15.012 -0.0056  0.6799  1.1426
16905TIP3    H272207   2.189   4.081  14.916 -1.5297  1.9756 -0.7997
16906TIP3   OH272208   5.245   1.385   1.414 -0.3029 -0.4320 -0.3485
16906TIP3    H172209   5.211   1.398   1.325  0.8729  0.4374 -0.6972
16906TIP3    H272210   5.251   1.290   1.424 -0.9575 -0.5466 -1.0062
16907TIP3   OH272211   0.606   0.690  13.026  0.1327 -0.1581  0.2596
16907TIP3    H172212   0.511   0.688  13.017  0.1191  0.1331  0.3433
16907TIP3    H272213   0.626   0.777  13.060  0.4163 -0.2730  0.3980
16908TIP3   OH272214   2.623   1.722  11.222 -0.1287  0.1119 -0.5148
16908TIP3    H172215   2.685   1.789  11.251 -2.4927  1.0920  2.5856
16908TIP3    H272216   2.674   1.641  11.218  2.0603  1.4971 -1.2185
16909TIP3   OH272217   4.068   5.927  16.589  0.0331 -0.0340  0.3436
16909TIP3    H172218   4.161   5.909  16.605  0.0391  0.3162  0.7190
16909TIP3    H272219   4.026   5.915  16.674  0.0151  1.5327  0.5705
16910TIP3   OH272220   1.834   6.451   1.452 -0.0073  0.2335 -0.6002
16910TIP3    H172221   1.810   6.364   1.484  1.1993 -0.3690 -1.2796
16910TIP3    H272222   1.777   6.511   1.500 -1.7796 -1.0190 -1.0938
16911TIP3   OH272223   3.180   4.597   0.615 -0.0921  0.7958  0.4611
16911TIP3    H172224   3.235   4.572   0.541  2.1650  2.8749  1.3648
16911TIP3    H272225   3.200   4.532   0.682 -0.7871 -0.0286 -0.1164
16912TIP3   OH272226   5.414   3.068  14.707  0.2167 -0.8534  0.3975
16912TIP3    H172227   5.475   3.127  14.663 -1.8549  1.5725  0.6368
16912TIP3    H272228   5.351   3.043  14.640  0.3358 -1.7785  0.6186
16913TIP3   OH272229   1.304   1.661   2.480 -0.4437  0.0996  0.2577
16913TIP3    H172230   1.316   1.589   2.417 -2.3828  0.3094 -0.3769
16913TIP3    H272231   1.271   1.618   2.559  0.9651 -0.0253  0.7953
16914TIP3   OH272232   1.602   0.186   1.519  0.6220  1.0392  0.4301
16914TIP3    H172233   1.648   0.239   1.454  0.6990  1.6833  1.0031
16914TIP3    H272234   1.511   0.182   1.487  1.0945 -0.4257 -0.8226
16915TIP3   OH272235   3.143   3.584   4.521  0.2920 -0.1650 -0.2137
16915TIP3    H172236   3.197   3.506   4.504  1.8185  0.4212  1.8322
16915TIP3    H272237   3.137   3.627   4.436  1.2217 -1.3959 -0.9320
16916TIP3   OH272238   0.567   3.920  14.576  0.1420  0.5223 -0.6147
16916TIP3    H172239   0.568   3.941  14.483 -1.2809  0.9013 -0.5618
16916TIP3    H272240   0.569   3.825  14.580 -4.1186  0.3023 -1.2082
16917TIP3   OH272241   2.411   1.371   0.621  0.3964  0.5403  0.1099
16917TIP3    H172242   2.490   1.426   0.619 -0.1051  1.2557 -0.6190
16917TIP3    H272243   2.444   1.282   0.618  1.1890  0.8301 -0.0672
16918TIP3   OH272244   2.022   3.038  15.536  0.2173  0.3152  0.6374
16918TIP3    H172245   1.953   3.103  15.548  0.1987  0.2183  1.1051
16918TIP3    H272246   2.073   3.043  15.617  0.9573  0.6159  0.1560
16919TIP3   OH272247   6.049   5.835   6.877 -0.5711 -0.5228 -0.2766
16919TIP3    H172248   6.028   5.922   6.910 -0.8370 -0.6268 -0.1708
16919TIP3    H272249   6.123   5.849   6.818  1.6448 -0.7112  2.4028
16920TIP3   OH272250   3.232   0.965  16.119  0.3835 -0.8877  0.4471
16920TIP3    H172251   3.171   1.034  16.145  0.2143 -1.1814  0.8344
16920TIP3    H272252   3.177   0.899  16.075  0.4708 -1.0097  0.5215
16921TIP3   OH272253   3.070   3.757  13.552  0.4534 -0.1680 -0.4563
16921TIP3    H172254   3.119   3.743  13.471  2.7081  1.4680  0.5781
16921TIP3    H272255   3.083   3.849  13.572 -1.1482 -0.2627  1.1100
16922TIP3   OH272256   2.791   4.367   3.960 -0.9423  0.1440 -0.5664
16922TIP3    H172257   2.866   4.365   3.900  0.3876 -0.5121  1.0721
16922TIP3    H272258   2.827   4.399   4.042 -2.5609  0.2232  0.1319
16923TIP3   OH272259   5.234   4.140  16.767 -0.9491  0.6868 -0.4958
16923TIP3    H172260   5.206   4.134  16.858 -0.3668 -0.8082 -0.4056
16923TIP3    H272261   5.157   4.114  16.716 -0.4305 -1.2499 -0.3240
16924TIP3   OH272262   0.782   2.352   4.751 -0.5574  0.4457  0.0825
16924TIP3    H172263   0.830   2.375   4.671 -0.9914 -1.6625 -0.8176
16924TIP3    H272264   0.701   2.402   4.744  0.8537  2.8891  0.8903
16925TIP3   OH272265   5.254   4.512   2.465 -0.2847  0.0068  0.2700
16925TIP3    H172266   5.208   4.581   2.512  0.2682  0.3252  0.3416
16925TIP3    H272267   5.326   4.556   2.420 -1.1578 -0.1861 -1.3879
16926TIP3   OH272268   2.784   5.697  11.394  0.7954  0.3427  0.4264
16926TIP3    H172269   2.754   5.721  11.482 -0.5298  1.2779 -0.2506
16926TIP3    H272270   2.747   5.610  11.379  1.1154  0.1346  0.8384
16927TIP3   OH272271   0.178   1.461  11.914 -0.7771 -0.4239 -0.1807
16927TIP3    H172272   0.252   1.404  11.936 -0.9349 -0.2300  0.8628
16927TIP3    H272273   0.216   1.549  11.908 -1.3344  0.0596  2.8110
16928TIP3   OH272274   5.517   3.466   3.698 -0.1366 -0.3195  0.1594
16928TIP3    H172275   5.429   3.496   3.674 -0.5218 -0.2502  1.6499
16928TIP3    H272276   5.572   3.493   3.624 -1.4621 -0.9251 -1.0873
16929TIP3   OH272277   3.350   0.130   5.062 -0.2397 -0.5185 -0.4277
16929TIP3    H172278   3.359   0.077   4.983  0.7294  0.7544 -1.1859
16929TIP3    H272279   3.429   0.111   5.113  0.2892  0.4746 -0.8744
16930TIP3   OH272280   5.084   3.360  12.612  0.4942  0.0865 -0.2447
16930TIP3    H172281   5.012   3.321  12.563  0.7209 -0.5350 -0.0919
16930TIP3    H272282   5.150   3.381  12.546  1.1723 -1.5662 -0.1272
16931TIP3   OH272283   2.861   4.534  11.903 -0.3902 -0.1505 -0.1836
16931TIP3    H172284   2.839   4.442  11.890 -1.1551  0.1200 -0.8202
16931TIP3    H272285   2.956   4.535  11.907 -0.3215 -0.8101 -1.4323
16932TIP3   OH272286   4.287   0.373   3.859  0.2205 -0.0571  0.0149
16932TIP3    H172287   4.201   0.374   3.901  0.1217  0.5411 -0.1873
16932TIP3    H272288   4.342   0.324   3.919  0.3318  1.6610  1.3586
16933TIP3   OH272289   2.445   5.369  13.449  0.6583 -0.6458  0.0276
16933TIP3    H172290   2.351   5.350  13.455  0.4947 -0.1130 -0.7688
16933TIP3    H272291   2.449   5.465  13.443  1.3006 -0.6173  0.8937
16934TIP3   OH272292   4.657   5.931   6.160 -1.2873  0.4257  0.4715
16934TIP3    H172293   4.681   5.860   6.219 -1.6181 -0.7135 -0.7385
16934TIP3    H272294   4.726   5.932   6.094 -1.9654  0.3555 -0.2492
16935TIP3   OH272295   0.915   5.393  13.656  0.0536  0.7483  0.1120
16935TIP3    H172296   0.992   5.446  13.677  1.1172 -0.8147  0.2662
16935TIP3    H272297   0.951   5.308  13.633 -1.6050  0.2024 -0.5097
16936TIP3   OH272298   2.982   4.344   3.754  0.0594 -0.3101 -0.7587
16936TIP3    H172299   2.959   4.352   3.661  1.0890 -0.1516 -1.0058
16936TIP3    H272300   3.021   4.257   3.761  1.6733  0.3697 -0.8609
16937TIP3   OH272301   1.604   2.545   1.759  0.0954 -0.6988 -0.1872
16937TIP3    H172302   1.656   2.604   1.705  0.0481  0.7842  1.3362
16937TIP3    H272303   1.666   2.508   1.822 -0.2655 -0.6475  0.2031
16938TIP3   OH272304   1.502   0.866   6.354  0.4474 -0.0793 -0.0775
16938TIP3    H172305   1.452   0.929   6.406  0.4490  0.2222 -0.4373
16938TIP3    H272306   1.444   0.841   6.283 -0.2280 -1.8759  1.0590
16939TIP3   OH272307   5.756   3.976  15.119 -0.4424  0.6059 -0.1248
16939TIP3    H172308   5.804   4.056  15.138  0.1158  0.4472 -0.8527
16939TIP3    H272309   5.720   3.949  15.204 -0.4191  1.4792  0.1700
16940TIP3   OH272310   4.344   2.959  14.728  0.1774  0.0529 -0.3688
16940TIP3    H172311   4.368   2.964  14.821 -1.8304 -0.0616  0.1909
16940TIP3    H272312   4.427   2.964  14.681  1.3464 -1.2588  1.4799
16941TIP3   OH272313   5.257   1.951  11.864  0.0796 -0.0773 -0.6394
16941TIP3    H172314   5.336   1.929  11.815  0.3023 -1.0461  0.1367
16941TIP3    H272315   5.279   1.930  11.955 -0.8937  0.1398 -0.3512
16942TIP3   OH272316   5.113   2.408  14.253 -0.1056  0.0715 -0.1948
16942TIP3    H172317   5.077   2.438  14.337  2.5850 -0.1253  1.0922
16942TIP3    H272318   5.048   2.347  14.220 -1.6725  0.8768  1.2823
16943TIP3   OH272319   6.438   2.603   1.129 -0.2709  0.1221 -0.6141
16943TIP3    H172320   6.485   2.686   1.136  1.3802 -0.9850  2.7191
16943TIP3    H272321   6.365   2.612   1.190 -1.4094 -0.0586 -1.9415
16944TIP3   OH272322   2.574   2.572  12.777 -0.1011  0.5678 -0.1409
16944TIP3    H172323   2.597   2.533  12.861 -0.3584  0.2951 -0.1975
16944TIP3    H272324   2.619   2.518  12.713  1.0567  1.4848 -0.1144
16945TIP3   OH272325   6.509   1.373  14.461 -0.5533 -0.2132 -0.2679
16945TIP3    H172326   6.492   1.279  14.465  2.9050 -0.8671  0.3439
16945TIP3    H272327   6.482   1.406  14.547 -0.3547 -0.8887  0.0548
16946TIP3   OH272328   2.824   1.747  12.681  0.1436  0.6654 -0.0683
16946TIP3    H172329   2.850   1.839  12.684  2.1925  0.1083 -0.0875
16946TIP3    H272330   2.812   1.729  12.587  1.8021  0.3791 -0.2435
16947TIP3   OH272331   4.190   3.471  15.160 -1.0238  0.1603 -0.4792
16947TIP3    H172332   4.278   3.505  15.176 -0.6357 -1.4634  0.8743
16947TIP3    H272333   4.204   3.381  15.131 -2.0492  1.0609 -4.0314
16948TIP3   OH272334   6.104   0.592   4.428  0.3046 -0.1187 -0.0643
16948TIP3    H172335   6.153   0.673   4.441  0.5389 -0.2652 -0.0332
16948TIP3    H272336   6.166   0.533   4.385  0.0379 -0.1789 -0.3662
16949TIP3   OH272337   1.907   1.487   1.484  1.2661  0.5649  0.5994
16949TIP3    H172338   1.819   1.484   1.521  1.8550  1.9669  2.1926
16949TIP3    H272339   1.893   1.509   1.391 -0.0307  1.5940  1.0170
16950TIP3   OH272340   2.504   0.943   4.570  0.0214  0.0931  0.3586
16950TIP3    H172341   2.455   1.013   4.527 -0.3661 -0.0099  0.6248
16950TIP3    H272342   2.572   0.989   4.619 -1.6038  0.4790  2.3521
16951TIP3   OH272343   4.814   0.292   4.702 -0.1793  0.4696 -0.6109
16951TIP3    H172344   4.752   0.220   4.703 -0.0655  0.3685 -1.0124
16951TIP3    H272345   4.760   0.371   4.711 -0.3635  0.3802 -0.9462
16952TIP3   OH272346   4.511   3.747   1.007  0.5884  0.4032  0.3767
16952TIP3    H172347   4.473   3.740   0.920  2.3282 -0.7044 -0.3116
16952TIP3    H272348   4.592   3.696   1.002  1.5417  1.7158  2.1657
16953TIP3   OH272349   4.470   1.085   3.577  0.1022  0.3651  0.3364
16953TIP3    H172350   4.462   1.142   3.501  1.1904  1.0046  0.6778
16953TIP3    H272351   4.462   0.996   3.543 -0.5565  0.6856 -0.3531
16954TIP3   OH272352   3.934   1.117   2.852  0.6880 -0.2058  0.1788
16954TIP3    H172353   3.905   1.026   2.843  0.1856 -0.0032 -0.3019
16954TIP3    H272354   3.954   1.126   2.945 -1.5518 -0.1513  0.6938
16955TIP3   OH272355   5.010   0.400  11.775 -0.5204 -0.2220 -0.4652
16955TIP3    H172356   4.991   0.333  11.841 -1.6375  0.2266 -0.3212
16955TIP3    H272357   4.992   0.483  11.820  1.2868  0.2030 -0.4983
16956TIP3   OH272358   0.468   5.872   1.716  0.1569 -0.4846 -0.3602
16956TIP3    H172359   0.508   5.852   1.800 -0.8336  2.5923  0.9230
16956TIP3    H272360   0.375   5.849   1.728  0.3213 -1.6917 -1.2415
16957TIP3   OH272361   5.172   3.534  16.614  0.4907  0.3104 -0.4298
16957TIP3    H172362   5.207   3.482  16.542  0.2872 -0.5485  0.0853
16957TIP3    H272363   5.236   3.524  16.684 -0.7498 -1.2480  0.5061
16958TIP3   OH272364   1.635   4.940   5.414 -0.3875 -0.7116  0.1068
16958TIP3    H172365   1.557   4.896   5.448  1.0050 -1.2659  2.7154
16958TIP3    H272366   1.674   4.876   5.354 -2.8525  0.2666 -2.6785
16959TIP3   OH272367   5.295   3.815   2.480 -0.2436  0.2508 -0.0197
16959TIP3    H172368   5.253   3.767   2.409  0.6211  2.0853 -1.8151
16959TIP3    H272369   5.315   3.748   2.545  1.1342 -1.9123 -2.5535
16960TIP3   OH272370   5.173   1.872   0.233 -0.0243  0.3542  0.2793
16960TIP3    H172371   5.171   1.890   0.327 -1.7855  2.1143 -0.0573
16960TIP3    H272372   5.086   1.896   0.202  0.0923 -1.5162 -1.5816
16961TIP3   OH272373   3.070   5.601  11.172  0.5750  0.1261 -0.1241
16961TIP3    H172374   2.979   5.579  11.153  0.4939 -0.0113  0.4074
16961TIP3    H272375   3.120   5.528  11.135  0.4610  0.1443 -0.3166
16962TIP3   OH272376   3.103   3.973   4.828  0.1674 -0.2501 -0.0633
16962TIP3    H172377   3.027   4.025   4.852 -0.8716 -1.8653  0.2409
16962TIP3    H272378   3.066   3.896   4.784  1.5611 -1.5298  0.9543
16963TIP3   OH272379   3.947   1.234  10.639  0.6290 -0.5631  0.2577
16963TIP3    H172380   3.862   1.264  10.671  1.1937 -0.4329  1.6441
16963TIP3    H272381   3.946   1.139  10.654 -0.6900 -1.1501 -3.0480
16964TIP3   OH272382   2.348   4.847   5.328  0.4056 -0.1511  0.7267
16964TIP3    H172383   2.377   4.798   5.251 -0.7346  0.7204 -0.2578
16964TIP3    H272384   2.335   4.780   5.395  0.0441 -1.0594 -0.2447
16965TIP3   OH272385   0.354   2.181   5.168 -0.3407  0.6012  0.3411
16965TIP3    H172386   0.354   2.112   5.101 -0.4674 -0.1475  1.1020
16965TIP3    H272387   0.444   2.181   5.201 -0.5303  0.2817  0.8645
16966TIP3   OH272388   6.071   2.320   6.240 -0.1470 -0.1771  0.0627
16966TIP3    H172389   6.126   2.367   6.303 -0.5666 -0.7195  0.8354
16966TIP3    H272390   6.022   2.389   6.194 -0.7823  0.1425  1.2120
16967TIP3   OH272391   0.634   2.169   0.875 -0.4259  0.2459 -0.0817
16967TIP3    H172392   0.623   2.205   0.788  0.0239  0.1247 -0.1904
16967TIP3    H272393   0.580   2.224   0.932 -1.4351 -0.2151 -0.5669
16968TIP3   OH272394   4.558   0.108  13.791  0.3046 -0.6340  0.5840
16968TIP3    H172395   4.505   0.188  13.791 -1.6490 -1.8691 -1.1181
16968TIP3    H272396   4.522   0.056  13.719  2.6646 -2.3167  0.5787
16969TIP3   OH272397   6.005   3.377  14.981  0.1426 -0.3494  0.2690
16969TIP3    H172398   5.911   3.393  14.967  0.2094  0.5324  0.7507
16969TIP3    H272399   6.020   3.288  14.949 -0.5138  0.1205 -1.3917
16970TIP3   OH272400   3.044   3.098   4.142 -0.0945 -0.3227 -0.4630
16970TIP3    H172401   3.012   3.029   4.199 -1.6828 -0.9648 -2.0970
16970TIP3    H272402   2.979   3.168   4.150 -0.3672 -0.4493 -1.5262
16971TIP3   OH272403   1.894   1.500   5.393  0.3932  0.2657 -0.0400
16971TIP3    H172404   1.811   1.452   5.399  0.2266  0.5884  0.2556
16971TIP3    H272405   1.961   1.435   5.411  0.1738  0.1147  0.2310
16972TIP3   OH272406   2.077   5.650  11.594 -0.4297  0.2803 -0.4765
16972TIP3    H172407   2.168   5.623  11.586 -0.6557 -0.0774 -1.9688
16972TIP3    H272408   2.073   5.735  11.551 -1.1603 -0.5228 -2.0423
16973TIP3   OH272409   5.627   5.133  16.103 -0.1257  0.6144  0.2856
16973TIP3    H172410   5.534   5.118  16.120 -0.1935  0.0651 -0.5100
16973TIP3    H272411   5.640   5.099  16.014  1.4932 -2.1914  1.5349
16974TIP3   OH272412   4.556   3.326  16.195  0.0695  0.0607 -0.0899
16974TIP3    H172413   4.605   3.291  16.120 -0.6387 -1.4134  0.1197
16974TIP3    H272414   4.620   3.328  16.266 -0.1515 -1.9325  0.2010
16975TIP3   OH272415   5.356   6.522   4.699  0.3216 -0.1200  0.2408
16975TIP3    H172416   5.398   6.598   4.661 -0.8453 -0.0199 -0.8665
16975TIP3    H272417   5.269   6.552   4.725  0.3824 -0.6963  1.1474
16976TIP3   OH272418   2.398   2.650   2.954 -0.5645  0.0563 -0.2480
16976TIP3    H172419   2.488   2.642   2.924 -0.2091  0.4610  0.6981
16976TIP3    H272420   2.400   2.622   3.046 -1.2110  0.9843  0.0612
16977TIP3   OH272421   2.267   4.697   3.621  0.0703 -0.7025  0.0247
16977TIP3    H172422   2.317   4.728   3.545 -0.0981 -1.4685 -0.3997
16977TIP3    H272423   2.333   4.658   3.679  0.3746  1.0003  0.8565
16978TIP3   OH272424   1.715   3.192  14.844 -0.3834 -0.3743  0.4684
16978TIP3    H172425   1.773   3.266  14.827 -0.0317 -0.8100 -0.2582
16978TIP3    H272426   1.759   3.117  14.805 -1.9585 -0.5163 -1.0891
16979TIP3   OH272427   2.966   1.985  17.199  0.1819  0.3241  0.5932
16979TIP3    H172428   2.927   1.900  17.218 -0.3442  0.3806 -0.2076
16979TIP3    H272429   3.025   2.002  17.273  0.2875 -0.7317  0.7564
16980TIP3   OH272430   6.028   0.272   2.300  0.0993 -0.3382 -0.3293
16980TIP3    H172431   6.111   0.232   2.274  0.2372 -0.4458  0.2455
16980TIP3    H272432   6.052   0.361   2.327  0.7247 -1.5790  3.6635
16981TIP3   OH272433   0.599   4.050   5.776  0.0715 -0.5047  0.1567
16981TIP3    H172434   0.547   4.129   5.769  1.0469 -0.0502 -2.3503
16981TIP3    H272435   0.661   4.068   5.847 -0.4807  0.4983  0.3912
16982TIP3   OH272436   3.829   6.790   1.721  0.2525  0.3735 -0.2147
16982TIP3    H172437   3.815   6.812   1.629 -2.0481  5.3307  1.1449
16982TIP3    H272438   3.924   6.800   1.734  0.2456  2.2798 -1.4637
16983TIP3   OH272439   0.792   5.207   1.190 -0.6056 -0.1635 -0.1211
16983TIP3    H172440   0.852   5.230   1.120 -0.3730  0.3338  0.2384
16983TIP3    H272441   0.705   5.230   1.157 -0.5270 -0.2381 -0.3739
16984TIP3   OH272442   1.192   6.581   0.691  0.3773  1.1032 -0.0936
16984TIP3    H172443   1.207   6.671   0.661  3.1720  0.6164 -0.2835
16984TIP3    H272444   1.215   6.583   0.784  2.4207  0.1356 -0.5730
16985TIP3   OH272445   1.637   1.797  15.563  0.0579 -0.1810 -0.1224
16985TIP3    H172446   1.695   1.738  15.611 -0.4292  0.2766  1.0723
16985TIP3    H272447   1.613   1.864  15.627 -0.1544  0.7792 -1.1862
16986TIP3   OH272448   5.092   2.484  13.617 -0.8293 -0.3124 -0.0783
16986TIP3    H172449   5.181   2.498  13.648 -0.9505  2.1393 -0.7264
16986TIP3    H272450   5.102   2.443  13.531 -0.4209 -2.7166  1.0656
16987TIP3   OH272451   2.317   1.089  13.025  0.1582  0.0905 -0.4211
16987TIP3    H172452   2.381   1.059  13.089  0.6388  0.0318 -0.9313
16987TIP3    H272453   2.273   1.163  13.068 -1.0057 -1.2749  0.8383
16988TIP3   OH272454   4.438   2.502   2.773  0.3447  0.2231  0.0180
16988TIP3    H172455   4.369   2.568   2.781 -0.6559 -0.6310 -1.2777
16988TIP3    H272456   4.478   2.518   2.688  0.0522 -0.8681 -0.3393
16989TIP3   OH272457   4.506   4.224  13.769  0.1033 -0.0614  0.0752
16989TIP3    H172458   4.527   4.275  13.847  2.9510 -0.2072 -0.5655
16989TIP3    H272459   4.441   4.161  13.799 -0.6437  1.4598  1.7414
16990TIP3   OH272460   5.853   3.713   3.462 -0.4424  0.0827 -0.5371
16990TIP3    H172461   5.936   3.729   3.508 -1.8858  1.0652  1.7742
16990TIP3    H272462   5.804   3.794   3.473 -1.9067 -0.6584 -1.5262
16991TIP3   OH272463   1.725   3.016   0.883 -0.2948 -0.2625 -0.4554
16991TIP3    H172464   1.789   3.027   0.813  0.0028 -1.4133 -0.3821
16991TIP3    H272465   1.642   3.043   0.845 -0.4262 -2.4553 -1.7839
16992TIP3   OH272466   2.203   3.053   1.930  0.0231 -0.0927  0.2165
16992TIP3    H172467   2.209   3.108   2.007 -0.4957  1.3881 -0.7760
16992TIP3    H272468   2.185   3.114   1.858  0.4305 -1.4403 -1.0625
16993TIP3   OH272469   5.725   0.444  12.778  0.8084 -0.0019  0.0154
16993TIP3    H172470   5.798   0.385  12.793  0.7235  0.5893  3.0984
16993TIP3    H272471   5.751   0.526  12.820 -1.3371  0.4043  0.6235
16994TIP3   OH272472   1.543   5.389  14.101 -0.1377  0.0885  0.1868
16994TIP3    H172473   1.495   5.456  14.150  0.3449  0.0683  0.6867
16994TIP3    H272474   1.559   5.320  14.164  2.5355  1.0772  0.6408
16995TIP3   OH272475   1.574   4.177  11.807  0.5513 -0.2119 -0.6222
16995TIP3    H172476   1.657   4.176  11.759 -0.3463  0.0722 -2.2179
16995TIP3    H272477   1.520   4.242  11.761 -0.4990 -0.2654  0.5056
16996TIP3   OH272478   0.811   1.695   5.977  0.6298  0.0615 -0.1361
16996TIP3    H172479   0.849   1.770   5.931  1.1267 -1.2649 -1.9704
16996TIP3    H272480   0.745   1.661   5.917  1.5146 -1.9036 -0.0611
16997TIP3   OH272481   0.570   6.657   3.678  0.6139 -0.6095  0.0663
16997TIP3    H172482   0.597   6.565   3.680  1.8113 -0.2554  0.4671
16997TIP3    H272483   0.639   6.701   3.629  0.4219  0.1899  0.5082
16998TIP3   OH272484   5.271   2.946  15.896  0.0284 -0.5532  0.5888
16998TIP3    H172485   5.194   2.892  15.882 -0.7207 -0.1595  2.9620
16998TIP3    H272486   5.319   2.903  15.966 -0.3849  1.5886  2.2536
16999TIP3   OH272487   6.563   2.021  11.089 -0.2885 -0.4753  0.3350
16999TIP3    H172488   6.649   2.051  11.117  0.0471 -0.6344 -0.5049
16999TIP3    H272489   6.561   2.037  10.995 -2.1478  1.8543  0.7186
17000TIP3   OH272490   6.578   2.089  12.008 -0.3440  0.0325  0.3536
17000TIP3    H172491   6.507   2.042  12.051 -0.2932 -0.9224 -0.5821
17000TIP3    H272492   6.536   2.134  11.935 -0.4938  1.9520  1.5923
17001TIP3   OH272493   2.811   3.211  13.089 -0.4141 -0.1066 -0.0218
17001TIP3    H172494   2.786   3.141  13.149 -0.3858 -0.5332 -0.4998
17001TIP3    H272495   2.905   3.198  13.076 -0.0309  1.1726  1.3668
17002TIP3   OH272496   3.017   3.229  13.682  0.0217  0.0159 -0.2374
17002TIP3    H172497   3.016   3.286  13.758  0.3030 -0.9041  0.4650
17002TIP3    H272498   2.979   3.281  13.612 -1.7181  0.3258  0.9241
17003TIP3   OH272499   3.310   3.645   5.219 -0.4641  0.4393 -0.1180
17003TIP3    H172500   3.256   3.568   5.236  0.1121  0.0886  0.1320
17003TIP3    H272501   3.371   3.618   5.151 -0.0682  0.5810  0.1741
17004TIP3   OH272502   3.494   1.384  10.919 -0.1851  0.2202  0.5263
17004TIP3    H172503   3.402   1.398  10.898  0.2186  0.6995 -1.0868
17004TIP3    H272504   3.505   1.289  10.920 -0.8328  0.1516  1.4054
17005TIP3   OH272505   0.216   2.628   5.590  0.9106  0.6877 -0.0480
17005TIP3    H172506   0.186   2.708   5.548  0.3914  0.7203  0.3754
17005TIP3    H272507   0.135   2.583   5.616  1.1795 -0.4960 -1.2515
17006TIP3   OH272508   2.029   2.922   2.235 -0.5893  0.3662  0.6048
17006TIP3    H172509   2.028   2.929   2.140  1.7449  1.3026  0.6432
17006TIP3    H272510   1.963   2.855   2.254 -0.2297 -0.6929 -1.7326
17007TIP3   OH272511   1.694   4.202  13.423 -0.3990  0.3725 -0.7604
17007TIP3    H172512   1.696   4.282  13.476 -0.6518  0.8043 -1.3946
17007TIP3    H272513   1.728   4.230  13.338 -0.6619 -0.1598 -1.0405
17008TIP3   OH272514   1.765   0.986  15.080 -0.0939  0.0179  0.1909
17008TIP3    H172515   1.763   1.080  15.060 -1.0317  0.3514  1.7821
17008TIP3    H272516   1.709   0.946  15.013 -0.4683  0.7004  0.0989
17009TIP3   OH272517   5.510   6.151   2.859 -0.1461  0.1802  0.5982
17009TIP3    H172518   5.444   6.084   2.844 -0.3808  1.0595 -2.7332
17009TIP3    H272519   5.592   6.110   2.833 -0.1244  0.7440 -0.2605
17010TIP3   OH272520   4.201   0.039  14.494 -0.4770  0.3215 -0.4238
17010TIP3    H172521   4.228   0.109  14.553  1.2459 -1.1748  0.6426
17010TIP3    H272522   4.118   0.068  14.457 -1.0116  1.8059  1.8759
17011TIP3   OH272523   5.552   0.432  11.868 -0.4170  0.3182 -0.3663
17011TIP3    H172524   5.556   0.357  11.809  0.0677  0.6847 -0.7959
17011TIP3    H272525   5.531   0.506  11.811 -0.8776  0.5158  0.0565
17012TIP3   OH272526   5.521   0.894   4.491 -0.1513 -0.5860 -0.0459
17012TIP3    H172527   5.560   0.923   4.409 -0.8693  1.6310  0.3549
17012TIP3    H272528   5.586   0.836   4.531  1.3224  0.4686 -0.9150
17013TIP3   OH272529   5.255   6.485  15.620 -0.4600  0.1859 -0.5813
17013TIP3    H172530   5.300   6.563  15.652 -1.6974  1.3366 -1.5650
17013TIP3    H272531   5.297   6.413  15.666  0.3702  1.4647  0.7296
17014TIP3   OH272532   3.289   1.878   5.868 -0.6622  0.5576  0.1062
17014TIP3    H172533   3.257   1.877   5.959  0.5333  0.5861  0.5331
17014TIP3    H272534   3.325   1.790   5.855 -2.6425 -0.1219 -1.0123
17015TIP3   OH272535   4.849   3.109  13.217 -0.2827 -0.5514 -0.8926
17015TIP3    H172536   4.937   3.107  13.255  0.0874  1.1760 -1.6199
17015TIP3    H272537   4.794   3.064  13.281  0.6808  0.5808  0.7734
17016TIP3   OH272538   3.977   1.637   1.478  0.0979 -0.2908  0.0543
17016TIP3    H172539   4.065   1.664   1.452  0.6380 -1.1463  0.9483
17016TIP3    H272540   3.990   1.556   1.526 -1.3251 -1.1310 -0.9495
17017TIP3   OH272541   2.204   4.549  12.062  0.0957  0.1476 -0.1904
17017TIP3    H172542   2.112   4.575  12.068  0.8321  2.5325  1.2387
17017TIP3    H272543   2.202   4.454  12.073 -2.1689  0.1844  0.0654
17018TIP3   OH272544   6.223   6.054   2.792 -0.3841 -0.5488  0.8933
17018TIP3    H172545   6.161   6.030   2.861 -1.7693 -1.7538 -0.7212
17018TIP3    H272546   6.269   5.972   2.772  0.8473  0.0620  1.1911
17019TIP3   OH272547   2.682   4.647  12.862  0.6316  1.0008  1.2887
17019TIP3    H172548   2.659   4.710  12.794  0.9906 -0.7968 -0.5301
17019TIP3    H272549   2.598   4.622  12.901  0.1213 -0.1837 -0.5208
17020TIP3   OH272550   0.646   0.692   2.953 -0.3364  0.2417  0.4689
17020TIP3    H172551   0.635   0.620   3.016  1.3578 -0.9342 -0.5689
17020TIP3    H272552   0.629   0.652   2.868 -0.8218  1.4302 -0.0056
17021TIP3   OH272553   4.272   6.050   4.841 -0.7549 -0.3380  0.1819
17021TIP3    H172554   4.272   6.140   4.874  1.2842 -0.4984  0.6648
17021TIP3    H272555   4.179   6.028   4.832 -1.2785  1.8621 -0.1035
17022TIP3   OH272556   6.330   1.414  13.661 -0.4728  0.7542  0.2947
17022TIP3    H172557   6.425   1.416  13.673 -0.4005  0.4527 -0.2257
17022TIP3    H272558   6.314   1.471  13.586 -0.7076  0.8675  0.4319
17023TIP3   OH272559   0.770   5.439  14.701  0.4224 -0.0149 -0.3493
17023TIP3    H172560   0.839   5.407  14.642  1.3783  2.1841 -0.4823
17023TIP3    H272561   0.816   5.466  14.780 -0.5415 -0.3923  0.3548
17024TIP3   OH272562   5.356   0.980   4.700 -0.8368 -0.3195 -0.5922
17024TIP3    H172563   5.335   1.072   4.713  1.2135  0.1794 -0.6733
17024TIP3    H272564   5.391   0.976   4.611 -0.9085 -1.1645 -0.5857
17025TIP3   OH272565   5.087   6.692   1.614 -0.2604 -0.1842  0.4199
17025TIP3    H172566   5.133   6.742   1.681  1.2607  1.6276 -1.8665
17025TIP3    H272567   5.024   6.638   1.662  0.9764  0.8414  3.2721
17026TIP3   OH272568   3.671   3.262   1.847  0.4381  0.2250  0.3175
17026TIP3    H172569   3.765   3.279   1.843  0.3178  0.5499 -1.5071
17026TIP3    H272570   3.631   3.343   1.815 -0.4664  0.0553  0.9874
17027TIP3   OH272571   2.596   5.050   1.000  0.1654 -0.2833 -0.3554
17027TIP3    H172572   2.648   5.024   1.077  1.1867 -0.7094 -1.1699
17027TIP3    H272573   2.661   5.086   0.939 -0.5376 -0.5671 -1.2815
17028TIP3   OH272574   1.909   5.861  16.450  0.1363  0.5632  0.5208
17028TIP3    H172575   1.988   5.837  16.401 -0.5914 -0.6028 -0.0953
17028TIP3    H272576   1.915   5.810  16.531 -0.5440 -0.4129 -0.0301
17029TIP3   OH272577   2.603   5.305   6.311 -0.0737 -0.1009 -0.3359
17029TIP3    H172578   2.679   5.332   6.260 -0.9545 -0.9227 -2.1391
17029TIP3    H272579   2.532   5.361   6.279 -0.3179  0.4357  1.0978
17030TIP3   OH272580   1.887   4.985   2.684  0.3061  0.4060  0.5996
17030TIP3    H172581   1.935   5.036   2.749 -0.0884 -0.1129  1.3104
17030TIP3    H272582   1.813   4.948   2.732  1.9503 -2.8918  0.7274
17031TIP3   OH272583   2.639   0.943  14.249  0.2388 -0.3826 -0.1670
17031TIP3    H172584   2.584   1.001  14.302 -2.4764 -1.5814 -1.5759
17031TIP3    H272585   2.658   0.994  14.170 -0.5430 -0.6629 -0.5498
17032TIP3   OH272586   0.823   4.726  11.730  0.0895 -0.4189  0.5160
17032TIP3    H172587   0.746   4.773  11.699  0.7101 -0.5279 -1.2508
17032TIP3    H272588   0.878   4.793  11.769 -0.5407 -0.2095  1.0444
17033TIP3   OH272589   3.574   0.502  11.697  0.1882 -0.1292 -0.2625
17033TIP3    H172590   3.555   0.584  11.652 -0.3864  1.6273  3.0011
17033TIP3    H272591   3.492   0.480  11.742  1.2296 -0.8173  1.3545
17034TIP3   OH272592   1.652   5.460   2.751 -0.2561 -0.0234 -0.1627
17034TIP3    H172593   1.627   5.371   2.728 -1.0811  0.5601 -1.6468
17034TIP3    H272594   1.571   5.502   2.779  0.6858 -0.6320  3.7637
17035TIP3   OH272595   0.814   5.552   4.745 -0.1480 -0.1213  0.3175
17035TIP3    H172596   0.739   5.527   4.690 -0.7907 -0.6183  1.4120
17035TIP3    H272597   0.796   5.642   4.770 -1.0597 -0.6745  1.6850
17036TIP3   OH272598   3.105   0.305  16.637 -0.0768 -0.3817  0.3129
17036TIP3    H172599   3.171   0.279  16.700  1.4020 -2.6679 -2.0638
17036TIP3    H272600   3.154   0.319  16.555 -2.0600  1.3850 -0.6313
17037TIP3   OH272601   5.928   2.213  15.577 -0.2472  0.4916 -0.2508
17037TIP3    H172602   5.969   2.142  15.527 -0.5580  0.1821 -0.0634
17037TIP3    H272603   5.980   2.290  15.554  0.3795  0.1248 -0.1098
17038TIP3   OH272604   6.250   6.693  13.899  0.2973  0.0537 -0.2186
17038TIP3    H172605   6.217   6.604  13.912 -0.5467  0.4931  0.6974
17038TIP3    H272606   6.202   6.746  13.962  2.8513  0.7035  1.2377
17039TIP3   OH272607   1.423   3.392  11.821 -0.4504  0.9278 -0.2534
17039TIP3    H172608   1.371   3.454  11.872 -0.3114  0.2724  0.7057
17039TIP3    H272609   1.492   3.363  11.881  0.3567  0.9421 -1.1569
17040TIP3   OH272610   1.657   6.241   1.553  0.2789 -0.0422 -0.1294
17040TIP3    H172611   1.615   6.230   1.468  1.3497 -1.3087 -0.5235
17040TIP3    H272612   1.585   6.250   1.615 -0.5203  0.3952 -1.1109
17041TIP3   OH272613   2.436   4.886   4.986  0.2690  0.2536 -0.5444
17041TIP3    H172614   2.486   4.873   4.905 -0.4837 -0.7281 -0.8782
17041TIP3    H272615   2.464   4.815   5.043 -0.0864  0.2260 -0.4025
17042TIP3   OH272616   5.321   0.053   5.132 -0.3494  0.2089  0.2646
17042TIP3    H172617   5.338   0.146   5.115 -0.6539  0.3311  0.6199
17042TIP3    H272618   5.393   0.007   5.088 -0.1507  0.6157  0.1595
17043TIP3   OH272619   0.125   6.807  14.947  0.0685  0.0391  0.6199
17043TIP3    H172620   0.062   6.830  15.015  1.0622  1.1841  1.1698
17043TIP3    H272621   0.143   6.714  14.961 -0.2557  0.1091  1.4921
17044TIP3   OH272622   0.340   0.777  14.084  0.1444  0.4857  0.1669
17044TIP3    H172623   0.341   0.857  14.032  0.2518 -0.1736 -0.8621
17044TIP3    H272624   0.429   0.743  14.079 -0.5827 -1.2762 -1.9297
17045TIP3   OH272625   5.098   6.251   3.689 -0.0412 -0.1503  0.7216
17045TIP3    H172626   5.150   6.309   3.633  1.2631 -0.7146  1.3176
17045TIP3    H272627   5.027   6.221   3.633  1.5834 -1.1868 -0.8519
17046TIP3   OH272628   2.205   1.595  12.771  0.3868 -0.4622 -0.0718
17046TIP3    H172629   2.179   1.680  12.734  2.8416  0.2072 -0.3771
17046TIP3    H272630   2.279   1.617  12.829  0.2248 -2.2439  0.8285
17047TIP3   OH272631   6.251   0.103  16.898 -0.1746  0.1144  0.3350
17047TIP3    H172632   6.203   0.025  16.927 -2.6147  0.3932 -2.6274
17047TIP3    H272633   6.314   0.070  16.834  0.6787  0.2619  1.0984
17048TIP3   OH272634   4.514   3.650  13.508 -0.1912  0.1733  0.0088
17048TIP3    H172635   4.587   3.607  13.463 -0.3596  0.4922 -0.5708
17048TIP3    H272636   4.440   3.638  13.450 -0.5451  0.0660  0.4843
17049TIP3   OH272637   3.368   0.043   4.206 -0.2282 -0.7103  0.1129
17049TIP3    H172638   3.457   0.078   4.205 -0.2728 -0.5952  0.1481
17049TIP3    H272639   3.323   0.093   4.274 -0.8019  0.4492 -1.0793
17050TIP3   OH272640   1.359   6.347   2.398  0.2097  0.4194  0.2794
17050TIP3    H172641   1.307   6.294   2.337 -1.5197  2.7072 -0.3094
17050TIP3    H272642   1.316   6.433   2.397  2.3438  1.5412  1.9670
17051TIP3   OH272643   2.277   3.431   3.791 -0.6673  0.4685  0.1769
17051TIP3    H172644   2.234   3.486   3.725  0.6910  1.5470  0.1650
17051TIP3    H272645   2.300   3.491   3.862  0.0651 -0.2349  0.5526
17052TIP3   OH272646   1.897   4.948   2.331  0.0950  0.6238  0.1360
17052TIP3    H172647   1.901   4.882   2.262 -0.3004  1.4137 -0.6519
17052TIP3    H272648   1.859   5.025   2.289  0.5511  1.3612  1.0478
17053TIP3   OH272649   2.646   6.011  15.151  0.5794 -0.4718 -0.0206
17053TIP3    H172650   2.717   6.018  15.087  1.5854  1.6846  1.2709
17053TIP3    H272651   2.600   6.095  15.145 -0.1544 -0.7862  1.1414
17054TIP3   OH272652   1.569   3.559  14.596  0.2783 -0.3914  0.1916
17054TIP3    H172653   1.493   3.516  14.634 -0.3581  1.0691  0.6063
17054TIP3    H272654   1.536   3.600  14.516  1.0017 -1.1326 -0.4952
17055TIP3   OH272655   5.201   5.261   6.488 -0.4475 -0.2957 -0.6590
17055TIP3    H172656   5.143   5.331   6.518  0.4242  0.1306  0.0257
17055TIP3    H272657   5.196   5.266   6.392  1.1247  1.9702 -0.6423
17056TIP3   OH272658   0.331   1.451   2.782  0.5994 -0.1467 -0.1101
17056TIP3    H172659   0.366   1.539   2.791  0.7997 -0.3751  1.4128
17056TIP3    H272660   0.355   1.407   2.863 -0.9010 -1.1215 -0.1822
17057TIP3   OH272661   1.825   0.387  16.051 -0.2870  0.1303  0.7396
17057TIP3    H172662   1.843   0.386  16.145  1.0351  0.0279  0.4960
17057TIP3    H272663   1.909   0.367  16.010 -0.9036 -0.0806 -0.4613
17058TIP3   OH272664   0.721   0.331  14.392 -0.1234  0.5766 -0.4183
17058TIP3    H172665   0.727   0.372  14.478 -1.7539 -0.1998  0.0876
17058TIP3    H272666   0.680   0.396  14.336  1.4001  1.2713 -0.7614
17059TIP3   OH272667   0.032   0.604  16.897 -0.2238  0.2739 -0.1184
17059TIP3    H172668  -0.026   0.636  16.828  0.1760 -0.1728 -0.6703
17059TIP3    H272669  -0.026   0.557  16.957 -0.3948 -0.4224 -0.8169
17060TIP3   OH272670   0.996   1.488  12.861 -0.3438  0.5708  0.3503
17060TIP3    H172671   1.022   1.571  12.900 -0.0695 -0.1763  1.7739
17060TIP3    H272672   0.969   1.511  12.772 -0.3302  2.1864  0.7507
17061TIP3   OH272673   2.201   0.601   4.439 -0.0767  0.1159  0.5650
17061TIP3    H172674   2.250   0.542   4.381 -0.8188  0.3664 -0.3291
17061TIP3    H272675   2.210   0.561   4.526 -1.0810 -1.6611 -0.1190
17062TIP3   OH272676   3.860   2.214   5.469 -0.3114 -0.1464  0.5677
17062TIP3    H172677   3.772   2.176   5.462  0.0559 -0.9450  0.1415
17062TIP3    H272678   3.887   2.227   5.378  0.7087 -1.5717  0.6465
17063TIP3   OH272679   4.961   5.701   2.922 -0.1335  0.1980 -0.2487
17063TIP3    H172680   5.037   5.741   2.879  1.6739 -3.9894 -1.1724
17063TIP3    H272681   4.929   5.637   2.858 -2.6903 -0.1035  1.2929
17064TIP3   OH272682   1.364   3.875  13.839 -0.2339  0.3446 -0.0513
17064TIP3    H172683   1.440   3.925  13.869  0.0976 -0.5921  0.7028
17064TIP3    H272684   1.364   3.885  13.744  1.5752 -0.6447 -0.1776
17065TIP3   OH272685   5.676   5.359  12.996  0.6982  0.2752 -0.0811
17065TIP3    H172686   5.679   5.422  13.068  0.6038 -0.4719  0.5815
17065TIP3    H272687   5.763   5.365  12.956  1.6821 -1.1864  1.7361
17066TIP3   OH272688   4.681   3.137  14.949  0.2322 -0.2352  0.2921
17066TIP3    H172689   4.751   3.183  14.904 -1.0141  0.9315 -0.4687
17066TIP3    H272690   4.648   3.075  14.884  0.1645 -0.3769  0.4616
17067TIP3   OH272691   6.206   4.419  12.883 -0.3780  0.3032  0.1997
17067TIP3    H172692   6.244   4.488  12.829 -0.1713 -0.8911 -1.2048
17067TIP3    H272693   6.265   4.411  12.958  0.5800  0.4135 -0.5373
17068TIP3   OH272694   6.505   4.154  11.931 -0.3048  0.3810 -0.3499
17068TIP3    H172695   6.465   4.126  11.848 -1.9359  3.4606 -0.6791
17068TIP3    H272696   6.542   4.073  11.968 -1.8859 -1.5511 -2.7778
17069TIP3   OH272697   2.073   1.674  16.728  0.0673 -0.0173 -0.8210
17069TIP3    H172698   2.087   1.755  16.678  0.8163  0.3998  0.0647
17069TIP3    H272699   2.053   1.608  16.661 -1.2393  1.0385 -1.5025
17070TIP3   OH272700   1.769   3.351   3.067  0.1315  0.0071 -0.1976
17070TIP3    H172701   1.706   3.300   3.016 -0.3675  1.9756 -1.6025
17070TIP3    H272702   1.845   3.359   3.009 -0.4244  2.2298 -0.6584
17071TIP3   OH272703   5.281   1.743  15.526  0.0056  0.2268  0.3177
17071TIP3    H172704   5.223   1.669  15.505  1.3282 -0.4550 -1.0041
17071TIP3    H272705   5.257   1.811  15.464  0.0176  0.2645  0.3551
17072TIP3   OH272706   5.610   2.167   1.792 -0.0317 -0.0410  0.5124
17072TIP3    H172707   5.662   2.168   1.873  2.5002 -1.1527 -1.0705
17072TIP3    H272708   5.647   2.238   1.739  0.4971 -1.4236 -0.9980
17073TIP3   OH272709   5.578   5.354  12.732  0.0725 -0.0035 -0.1970
17073TIP3    H172710   5.600   5.295  12.660  0.5969 -0.7217  0.5434
17073TIP3    H272711   5.613   5.311  12.810 -3.1207 -0.7263  0.9128
17074TIP3   OH272712   0.572   5.953  11.894 -0.4175  0.2372  0.0520
17074TIP3    H172713   0.574   6.016  11.966 -1.7858  1.7784 -1.2084
17074TIP3    H272714   0.535   5.873  11.933 -0.0938  0.6889  1.3124
17075TIP3   OH272715   0.643   4.820   6.080 -0.2353 -0.6016 -0.1539
17075TIP3    H172716   0.573   4.857   6.025  0.2592  1.0595  0.3071
17075TIP3    H272717   0.610   4.830   6.169  0.1004 -0.8690 -0.0003
17076TIP3   OH272718   5.805   5.380   5.784  0.2850 -0.3649 -0.0190
17076TIP3    H172719   5.834   5.316   5.850  0.1745  0.8090  1.1848
17076TIP3    H272720   5.873   5.448   5.785 -1.1318  1.0789  0.9449
17077TIP3   OH272721   1.403   1.844   4.780 -0.1238  0.3821  0.0835
17077TIP3    H172722   1.332   1.853   4.716  1.1090  2.6583 -1.0254
17077TIP3    H272723   1.452   1.767   4.751 -0.7471  0.2224 -0.5499
17078TIP3   OH272724   6.137   2.312   3.357  0.0553  0.9881  0.0179
17078TIP3    H172725   6.215   2.355   3.391 -0.1864  0.2262  1.5466
17078TIP3    H272726   6.115   2.245   3.422 -2.2722  1.6406 -0.0361
17079TIP3   OH272727   2.097   6.335   5.976 -0.4205  0.1919 -0.2958
17079TIP3    H172728   2.132   6.423   5.960 -0.7570  0.1136 -1.5425
17079TIP3    H272729   2.137   6.281   5.907 -0.8769 -0.4494 -0.0591
17080TIP3   OH272730   5.755   0.922  12.758  0.2186 -0.1828  0.4697
17080TIP3    H172731   5.782   1.013  12.766 -1.0344  0.1087  1.4285
17080TIP3    H272732   5.800   0.891  12.679 -0.9329  1.8147 -1.0072
17081TIP3   OH272733   0.309   3.474   4.780 -0.0966  0.3773 -0.0876
17081TIP3    H172734   0.329   3.567   4.778  1.4632  0.0638 -0.1089
17081TIP3    H272735   0.344   3.443   4.863  0.5566 -0.4129 -0.6373
17082TIP3   OH272736   4.240   3.707  15.522 -0.6812 -0.4418 -0.1480
17082TIP3    H172737   4.317   3.763  15.510  0.3153 -2.0455 -1.3512
17082TIP3    H272738   4.168   3.758  15.483 -0.1148  0.7553  0.3410
17083TIP3   OH272739   1.893   0.868   4.996  0.3284 -0.1293 -0.7423
17083TIP3    H172740   1.933   0.827   5.073 -2.0737 -0.9971  0.0730
17083TIP3    H272741   1.939   0.951   4.987  2.5596 -1.2405 -0.0597
17084TIP3   OH272742   1.606   3.059   4.621  0.2579  0.4599  0.0153
17084TIP3    H172743   1.591   2.973   4.582  1.6417 -0.0939  0.6666
17084TIP3    H272744   1.701   3.071   4.618 -0.0278  2.8137 -1.8175
17085TIP3   OH272745   1.533   0.222  15.430  0.1015 -0.8630 -0.9707
17085TIP3    H172746   1.575   0.170  15.499  1.0295  1.9061  0.6316
17085TIP3    H272747   1.445   0.240  15.464  0.4054  0.1257 -0.6982
17086TIP3   OH272748   5.958   1.012  15.506  0.1130  0.0844 -0.0950
17086TIP3    H172749   5.919   0.955  15.573 -3.7154 -1.0060 -3.0670
17086TIP3    H272750   6.032   0.962  15.473 -0.9354 -1.5449 -0.0629
17087TIP3   OH272751   3.590   4.665  13.018  0.5320  0.1439  0.2880
17087TIP3    H172752   3.535   4.725  12.968 -1.4990 -2.6015 -0.9366
17087TIP3    H272753   3.663   4.645  12.959  0.3715  0.1945  0.0687
17088TIP3   OH272754   2.764   5.303  16.784 -1.0180  0.2311  0.9954
17088TIP3    H172755   2.775   5.230  16.723 -1.8914 -1.9843  3.4180
17088TIP3    H272756   2.670   5.324  16.779 -1.1531 -0.1735  1.8160
17089TIP3   OH272757   5.200   0.356  16.284 -0.7882  0.2838  0.2618
17089TIP3    H172758   5.159   0.428  16.236 -0.7541 -0.3096 -0.6783
17089TIP3    H272759   5.290   0.354  16.252 -0.2150  1.1271  1.7967
17090TIP3   OH272760   6.241   0.232  14.867 -0.4736  0.0260 -0.4868
17090TIP3    H172761   6.307   0.276  14.814 -0.0534  1.3577  1.0874
17090TIP3    H272762   6.163   0.232  14.813 -0.3530  2.3188 -0.7277
17091TIP3   OH272763   3.764   1.847  13.228  0.1705 -0.0576  0.9969
17091TIP3    H172764   3.847   1.893  13.237 -0.4677  1.1860  0.5726
17091TIP3    H272765   3.698   1.910  13.255 -0.5846 -1.3424  2.1906
17092TIP3   OH272766   0.895   5.700  14.479  0.3396 -0.1925 -0.2542
17092TIP3    H172767   0.896   5.788  14.517  3.0536 -0.0545 -0.5877
17092TIP3    H272768   0.898   5.641  14.554 -1.7691 -0.0359 -0.0149
17093TIP3   OH272769   3.012   3.906   2.554 -0.0576 -0.4428 -0.3442
17093TIP3    H172770   2.976   3.994   2.556 -0.5322 -0.6460  1.8973
17093TIP3    H272771   2.990   3.869   2.640 -0.7063 -3.0734 -1.5694
17094TIP3   OH272772   0.028   4.255  13.776 -0.1213 -0.5068 -0.2443
17094TIP3    H172773   0.021   4.266  13.871  1.3964 -1.6604  0.0345
17094TIP3    H272774  -0.041   4.192  13.754 -1.7805  1.2752 -0.2273
17095TIP3   OH272775   2.007   6.020  11.805  0.4315  0.1521  0.5908
17095TIP3    H172776   1.975   6.085  11.867  2.9683  0.0336  2.0982
17095TIP3    H272777   2.028   5.943  11.859  0.1726 -0.8870 -0.7664
17096TIP3   OH272778   6.073   0.997   5.731 -0.5739  0.3250  0.0274
17096TIP3    H172779   6.157   1.037   5.753 -2.2929  2.4137  3.2582
17096TIP3    H272780   6.013   1.072   5.724 -2.9804 -1.3767  1.8747
17097TIP3   OH272781   6.181   5.797  16.992  0.4056  0.1138 -0.2074
17097TIP3    H172782   6.098   5.828  16.956  0.9903  0.9564 -0.8529
17097TIP3    H272783   6.193   5.849  17.072  0.4804  0.2486 -0.3056
17098TIP3   OH272784   6.327   3.328   6.900  0.1843 -0.1067  0.1606
17098TIP3    H172785   6.409   3.347   6.854  0.5209 -0.5596  0.5734
17098TIP3    H272786   6.314   3.404   6.957 -0.8478  1.0183 -1.5220
17099TIP3   OH272787   5.701   0.791   3.429 -0.2433  0.1369  0.0083
17099TIP3    H172788   5.704   0.703   3.391 -1.4170 -0.9582  2.3556
17099TIP3    H272789   5.625   0.790   3.487 -0.2284  2.6959  0.1221
17100TIP3   OH272790   6.247   1.982  14.977  0.3575 -0.6710  0.2161
17100TIP3    H172791   6.238   1.921  15.050  0.3227 -1.6505 -0.6092
17100TIP3    H272792   6.157   1.998  14.949  0.4240 -0.9706 -0.1697
17101TIP3   OH272793   6.023   1.832   3.831  0.0060 -0.6392  0.1887
17101TIP3    H172794   6.094   1.816   3.770 -0.1959  1.6354 -0.6832
17101TIP3    H272795   5.944   1.832   3.776 -0.4408 -1.0677  0.8272
17102TIP3   OH272796   4.328   3.120   5.740 -0.3472 -0.4854 -0.1198
17102TIP3    H172797   4.304   3.170   5.818 -1.9175  0.0314 -0.9206
17102TIP3    H272798   4.293   3.170   5.667 -1.9493 -2.7024 -0.9527
17103TIP3   OH272799   0.676   2.738   2.489 -0.1007  0.0938 -0.4860
17103TIP3    H172800   0.584   2.750   2.510  0.5621  1.4100  1.7869
17103TIP3    H272801   0.699   2.815   2.436  0.2874  1.0592  1.0514
17104TIP3   OH272802   5.650   6.322  11.096  0.2766  0.2975  0.0488
17104TIP3    H172803   5.702   6.273  11.033 -0.4506 -0.3754 -0.0364
17104TIP3    H272804   5.622   6.400  11.048 -1.2835 -0.7998 -0.8622
17105TIP3   OH272805   4.250   2.833   5.109  0.4149  0.8225  0.3932
17105TIP3    H172806   4.240   2.855   5.017 -1.0204 -0.1589  0.2985
17105TIP3    H272807   4.299   2.907   5.146  2.4373  0.4831 -1.4492
17106TIP3   OH272808   6.356   1.303  15.788  0.3334  0.4955 -0.6030
17106TIP3    H172809   6.411   1.380  15.801 -0.6645  1.2309 -0.7192
17106TIP3    H272810   6.270   1.329  15.818  0.2949 -1.0447  0.7001
17107TIP3   OH272811   4.275   1.745   4.754  0.0830 -0.0022 -0.3774
17107TIP3    H172812   4.368   1.722   4.762  0.0827  0.2236  0.2920
17107TIP3    H272813   4.230   1.660   4.746  0.1243 -0.2369  1.6434
17108TIP3   OH272814   0.820   4.187   4.200 -0.0991  0.3982  0.2185
17108TIP3    H172815   0.846   4.274   4.229 -0.0409  0.6088 -0.4623
17108TIP3    H272816   0.896   4.132   4.217  0.6647  0.9267 -1.3863
17109TIP3   OH272817   4.731   5.829   3.745 -0.0421 -0.1246  0.3975
17109TIP3    H172818   4.638   5.846   3.733 -0.0880 -1.7864 -2.0167
17109TIP3    H272819   4.754   5.769   3.674  2.8086  0.0335  1.1054
17110TIP3   OH272820   2.048   3.905  14.545 -0.3262  0.2224 -0.6141
17110TIP3    H172821   2.106   3.829  14.558  1.1230  1.4282  0.1743
17110TIP3    H272822   1.960   3.867  14.541  0.2829 -1.4205  0.7343
17111TIP3   OH272823   5.356   4.094   5.611  0.0878  0.3705  0.5937
17111TIP3    H172824   5.274   4.137   5.637 -0.2240  0.2823 -0.2362
17111TIP3    H272825   5.351   4.089   5.515  1.0114  0.2608  0.5466
17112TIP3   OH272826   2.474   3.296   3.287 -0.3840  0.3426  0.0665
17112TIP3    H172827   2.487   3.338   3.373 -3.0242  2.4773 -0.4810
17112TIP3    H272828   2.505   3.361   3.224  1.5364 -1.2163 -0.6298
17113TIP3   OH272829   1.394   3.726  15.977  0.4061  0.4695  0.0203
17113TIP3    H172830   1.469   3.676  15.944  1.0473  1.0532  0.5924
17113TIP3    H272831   1.364   3.675  16.052  1.1446  1.0049  0.6880
17114TIP3   OH272832   3.721   3.402  15.063  0.1902 -0.4227 -0.2395
17114TIP3    H172833   3.712   3.324  15.008 -1.1467 -0.5326  0.0996
17114TIP3    H272834   3.711   3.368  15.153  1.7157 -0.1570  0.0449
17115TIP3   OH272835   0.769   5.495  17.057  0.1634  0.0014 -0.3129
17115TIP3    H172836   0.856   5.460  17.079  0.6320  1.3699  0.1241
17115TIP3    H272837   0.760   5.571  17.114 -0.8981  0.4739 -1.0999
17116TIP3   OH272838   2.609   5.679   1.765  0.4492  0.2258 -0.2170
17116TIP3    H172839   2.608   5.612   1.697  0.1616 -1.5175  1.4671
17116TIP3    H272840   2.562   5.753   1.726  0.0273 -0.8513 -1.8030
17117TIP3   OH272841   3.308   1.998   4.086 -0.7738  0.5952  0.3987
17117TIP3    H172842   3.345   2.085   4.067  0.3642  0.0159 -0.0807
17117TIP3    H272843   3.367   1.960   4.151  0.7854 -1.2232 -2.0111
17118TIP3   OH272844   0.668   0.486  13.200  0.7698 -0.1912  0.5187
17118TIP3    H172845   0.607   0.452  13.134  0.4276  2.1179 -0.4403
17118TIP3    H272846   0.686   0.576  13.170  2.7786 -0.0477  2.0955
17119TIP3   OH272847   1.385   5.855   0.875  0.0067 -0.5416  0.1374
17119TIP3    H172848   1.403   5.938   0.831  0.5990 -2.0224 -2.5666
17119TIP3    H272849   1.292   5.857   0.895  0.0994  0.9207  0.4679
17120TIP3   OH272850   1.134   4.545  15.394 -0.0722 -0.2743  0.6609
17120TIP3    H172851   1.079   4.612  15.435  0.1120  0.8318 -0.8352
17120TIP3    H272852   1.106   4.546  15.302 -1.1347 -3.3306  0.9076
17121TIP3   OH272853   2.453   0.568   5.667 -0.3174  0.8297  0.2320
17121TIP3    H172854   2.501   0.599   5.744 -1.7708  2.4091  0.5368
17121TIP3    H272855   2.444   0.646   5.612 -0.4763  0.0122 -0.9101
17122TIP3   OH272856   2.489   2.379   3.115  0.0509 -0.4312 -0.2382
17122TIP3    H172857   2.395   2.396   3.113 -0.0382  0.4725  5.0118
17122TIP3    H272858   2.529   2.465   3.106  0.2344 -0.2932  1.7604
17123TIP3   OH272859   6.300   6.225   2.590  0.1226 -0.2063 -0.2423
17123TIP3    H172860   6.264   6.152   2.641  1.3593  0.9447  2.3420
17123TIP3    H272861   6.223   6.265   2.550 -1.1805  0.2295  2.5751
17124TIP3   OH272862   3.837   2.835  12.347  0.8701 -0.4863 -0.1629
17124TIP3    H172863   3.897   2.782  12.400 -0.4749 -1.9804 -0.0989
17124TIP3    H272864   3.818   2.912  12.402  1.2763 -0.9180  0.5858
17125TIP3   OH272865   0.536   1.088   3.135 -0.7457  0.2068 -0.2892
17125TIP3    H172866   0.514   1.104   3.227  1.8859  1.5761  0.1681
17125TIP3    H272867   0.609   1.026   3.138  1.1707  2.2906 -1.2323
17126TIP3   OH272868   0.445   1.146  14.741  0.4669 -0.0509  0.3365
17126TIP3    H172869   0.435   1.232  14.700 -1.1201 -0.6518 -0.5812
17126TIP3    H272870   0.419   1.084  14.673 -0.4029 -1.1531  1.6629
17127TIP3   OH272871   3.589   0.980  15.138 -0.5890 -0.2861 -0.4888
17127TIP3    H172872   3.680   0.964  15.114 -1.4670 -1.6823 -3.1202
17127TIP3    H272873   3.566   1.061  15.094 -0.8021 -0.2911 -0.3886
17128TIP3   OH272874   3.473   4.874  13.150  0.4225  0.0583 -0.6704
17128TIP3    H172875   3.443   4.784  13.135 -0.3691  0.2805 -0.4416
17128TIP3    H272876   3.450   4.892  13.242  1.2666  0.2319 -0.4828
17129TIP3   OH272877   5.242   0.055  11.868  0.1514  0.3896  0.5134
17129TIP3    H172878   5.323   0.066  11.919  0.0802 -3.0385  1.5369
17129TIP3    H272879   5.261   0.097  11.784  1.6405  2.8446  2.0037
17130TIP3   OH272880   3.662   1.285   3.389  0.0114 -0.3845  0.2719
17130TIP3    H172881   3.664   1.313   3.481  1.8781  0.1778  0.0899
17130TIP3    H272882   3.726   1.341   3.346 -0.0091 -1.4274 -1.1548
17131TIP3   OH272883   5.729   5.636   6.108  0.0147  0.4296  0.2376
17131TIP3    H172884   5.674   5.681   6.044 -2.6459  0.7513  2.6532
17131TIP3    H272885   5.758   5.705   6.168  0.9930 -0.1446  0.4468
17132TIP3   OH272886   3.100   0.860   6.363 -0.5223 -0.0667  0.3836
17132TIP3    H172887   3.009   0.831   6.355 -0.1710 -1.2896  0.6448
17132TIP3    H272888   3.134   0.812   6.438 -0.2439  1.9622  1.5803
17133TIP3   OH272889   0.886   5.548   2.412 -0.0276 -0.1881  0.5686
17133TIP3    H172890   0.893   5.637   2.446  1.0292 -0.1338  0.2101
17133TIP3    H272891   0.802   5.516   2.445  0.6047  0.1376  2.5381
17134TIP3   OH272892   3.501   0.340   0.936  0.3106  0.2169  0.5150
17134TIP3    H172893   3.562   0.273   0.967  1.7423 -0.1414 -2.8920
17134TIP3    H272894   3.552   0.421   0.939 -0.6114  0.7698  2.1734
17135TIP3   OH272895   3.106   0.491  11.531 -0.2253  0.1105 -0.1896
17135TIP3    H172896   3.041   0.423  11.551  0.3691 -0.2949  0.4063
17135TIP3    H272897   3.088   0.561  11.594  0.5050 -0.4032  0.6033
17136TIP3   OH272898   6.008   3.774  13.993  0.1281  0.5865  0.4424
17136TIP3    H172899   5.949   3.825  14.048  0.5281  1.3026  0.2131
17136TIP3    H272900   5.956   3.698  13.966  0.3927 -0.5395  2.9789
17137TIP3   OH272901   3.345   0.259   3.788 -0.0603  0.1088  0.4287
17137TIP3    H172902   3.277   0.242   3.853 -0.7577  0.2409 -0.2485
17137TIP3    H272903   3.384   0.173   3.771 -0.6016 -0.1065  0.2417
17138TIP3   OH272904   2.795   6.287  12.334  0.0374 -0.0153 -0.0858
17138TIP3    H172905   2.706   6.318  12.350  0.4214  0.9215  0.2463
17138TIP3    H272906   2.809   6.220  12.401 -0.6818 -0.7020 -0.6150
17139TIP3   OH272907   3.433   5.818  14.769  0.4454 -0.6279  0.6351
17139TIP3    H172908   3.368   5.813  14.699  0.7237 -0.2080  0.3428
17139TIP3    H272909   3.478   5.734  14.767 -0.4720 -1.1311  1.2065
17140TIP3   OH272910   2.264   5.786   4.878  0.5847  0.1861  0.0716
17140TIP3    H172911   2.321   5.713   4.903  2.3069  1.4753 -0.0727
17140TIP3    H272912   2.180   5.765   4.918  1.3749 -1.3152  0.9863
17141TIP3   OH272913   4.423   4.086   4.943  0.6158  0.1782  0.0235
17141TIP3    H172914   4.434   4.063   5.035  2.0638  1.9224  0.3170
17141TIP3    H272915   4.493   4.040   4.898 -0.5487 -1.2713 -0.3198
17142TIP3   OH272916   0.437   2.741  12.219 -0.2375 -0.3439 -0.5388
17142TIP3    H172917   0.403   2.796  12.289  2.4358 -1.0678  1.3807
17142TIP3    H272918   0.359   2.710  12.173 -2.1301 -0.9790  2.9472
17143TIP3   OH272919   5.356   0.173   6.676 -0.2086 -0.6212 -0.3097
17143TIP3    H172920   5.280   0.126   6.642 -0.8089  0.8686 -1.0877
17143TIP3    H272921   5.324   0.262   6.693  0.8737 -0.5084  1.2409
17144TIP3   OH272922   4.428   3.690   0.755  0.2953 -0.0677  0.1636
17144TIP3    H172923   4.378   3.685   0.674 -1.3478  0.5341  1.1135
17144TIP3    H272924   4.514   3.654   0.733 -0.0767  0.2560 -1.8741
17145TIP3   OH272925   3.307   6.198   2.647  0.1543  0.0233 -0.0610
17145TIP3    H172926   3.327   6.119   2.598  0.2228  0.3395 -0.5561
17145TIP3    H272927   3.224   6.179   2.691 -1.5046  0.7950 -2.7438
17146TIP3   OH272928   3.017   1.544   6.191  0.4081  0.0957  0.2529
17146TIP3    H172929   3.059   1.505   6.268  1.2828  1.0229  0.2460
17146TIP3    H272930   3.087   1.551   6.127 -0.4014 -1.0092 -0.7738
17147TIP3   OH272931   1.186   6.532  13.998  0.4084 -0.0562 -0.2773
17147TIP3    H172932   1.135   6.592  14.053  2.2625  0.6953  0.6709
17147TIP3    H272933   1.176   6.567  13.910 -1.5841 -0.5488 -0.2670
17148TIP3   OH272934   5.518   5.505   4.771  0.1498 -0.4981  0.0231
17148TIP3    H172935   5.460   5.524   4.696 -1.8894  0.1882  1.7251
17148TIP3    H272936   5.518   5.410   4.778  0.1266 -0.5534 -0.6616
17149TIP3   OH272937   3.263   0.015  11.748 -0.1032 -0.2072  0.7288
17149TIP3    H172938   3.340   0.064  11.718  0.1660 -1.1622 -0.1668
17149TIP3    H272939   3.295  -0.073  11.765 -0.6880 -0.2116  1.8747
17150TIP3   OH272940   0.578   5.102  11.819 -0.2725  0.1835  0.8883
17150TIP3    H172941   0.529   5.077  11.897 -2.1166 -1.2261 -0.6830
17150TIP3    H272942   0.572   5.026  11.761 -0.7923  1.9959 -1.5073
17151TIP3   OH272943   0.984   2.882   0.087 -0.1843 -0.7657 -0.0189
17151TIP3    H172944   1.015   2.842   0.005  0.5453  0.8947 -0.5779
17151TIP3    H272945   0.902   2.837   0.106 -1.2173 -0.0631 -2.5691
17152TIP3   OH272946   4.807   2.443   3.597 -0.2179  0.0466  0.2228
17152TIP3    H172947   4.791   2.378   3.666 -0.0330  0.1362  0.3506
17152TIP3    H272948   4.873   2.502   3.634  0.1991 -0.1533 -0.1897
17153TIP3   OH272949   1.363   6.185  12.709 -0.3500 -0.0470  0.3776
17153TIP3    H172950   1.373   6.248  12.638 -2.2719  1.7339  1.6068
17153TIP3    H272951   1.392   6.102  12.672  0.6007  1.2221 -1.8371
17154TIP3   OH272952   1.044   1.999  17.075 -0.1231 -0.4940 -0.3187
17154TIP3    H172953   1.100   1.974  17.001 -1.5473 -0.3976 -1.4520
17154TIP3    H272954   1.006   2.083  17.048 -3.4528 -2.1698 -1.0854
17155TIP3   OH272955   2.547   6.260   5.296 -0.5772 -0.2112 -0.2937
17155TIP3    H172956   2.516   6.208   5.370  0.0255 -0.3849 -0.1661
17155TIP3    H272957   2.641   6.272   5.312 -0.9685  2.1765  0.4498
17156TIP3   OH272958   6.816   5.685   4.436 -0.4396 -0.0798  0.3266
17156TIP3    H172959   6.823   5.697   4.341 -0.6389  1.1319  0.4546
17156TIP3    H272960   6.766   5.604   4.447  1.0301 -1.1180 -0.6019
17157TIP3   OH272961   4.708   4.619  16.509 -0.5059  0.1490 -0.2628
17157TIP3    H172962   4.687   4.712  16.501 -1.2760 -0.1799 -2.3976
17157TIP3    H272963   4.681   4.596  16.598  0.1174  2.0580  0.4477
17158TIP3   OH272964   1.393   3.760  12.066  0.2094 -0.0021  0.3581
17158TIP3    H172965   1.317   3.702  12.061  0.1893  0.0470  0.0876
17158TIP3    H272966   1.466   3.706  12.036  0.2427  0.0197  0.4005
17159TIP3   OH272967   1.299   1.366  14.293  0.0918  0.0871  0.7818
17159TIP3    H172968   1.289   1.366  14.198  1.2178 -1.8911  0.6485
17159TIP3    H272969   1.393   1.352  14.308 -0.1462 -0.1005  2.2025
17160TIP3   OH272970   1.384   4.943   3.735 -0.2461 -0.3546 -0.2402
17160TIP3    H172971   1.446   4.914   3.668  0.0037 -0.9983  0.2615
17160TIP3    H272972   1.392   4.878   3.805 -1.7824 -0.6757 -0.3405
17161TIP3   OH272973   4.030   4.938   1.344 -0.2258 -0.1821 -0.2793
17161TIP3    H172974   3.938   4.947   1.319 -0.4350 -0.8362  0.2447
17161TIP3    H272975   4.077   4.928   1.261 -0.9768 -2.8293 -0.4026
17162TIP3   OH272976   0.424   2.381  13.910 -0.3583  0.5721 -0.1381
17162TIP3    H172977   0.483   2.312  13.879 -1.6020 -0.6846  0.2532
17162TIP3    H272978   0.438   2.453  13.849  1.9608  0.5021  0.2403
17163TIP3   OH272979   6.646   0.279  11.698  0.3731 -0.1204  0.0672
17163TIP3    H172980   6.607   0.344  11.640 -0.6642 -1.4072 -0.6910
17163TIP3    H272981   6.575   0.220  11.720  1.4200 -1.3108  0.3378
17164TIP3   OH272982   2.045   2.198   2.368  0.5917 -0.3924  0.3612
17164TIP3    H172983   2.071   2.206   2.460 -0.4763  0.0103  0.6339
17164TIP3    H272984   1.985   2.271   2.354  2.1460  0.6213 -1.1498
17165TIP3   OH272985   0.214   1.804  12.385  0.3871 -0.4736  0.2964
17165TIP3    H172986   0.249   1.893  12.379 -1.2951  0.1159 -1.1164
17165TIP3    H272987   0.159   1.805  12.464  1.1726 -0.5695  0.8548
17166TIP3   OH272988   0.304   0.503  13.312  0.1623 -0.0757  0.4743
17166TIP3    H172989   0.241   0.446  13.268 -0.1029 -0.0016  0.7482
17166TIP3    H272990   0.249   0.569  13.354  0.4648  0.3136  0.2488
17167TIP3   OH272991   3.237   4.088  15.662  0.0995  0.1615 -0.1097
17167TIP3    H172992   3.224   4.092  15.567 -1.0644  1.2989  0.0924
17167TIP3    H272993   3.174   4.022  15.693  1.7323 -1.5520 -0.3236
17168TIP3   OH272994   6.204   3.395  14.137 -0.2284  0.0271  0.3546
17168TIP3    H172995   6.239   3.483  14.121  2.2828 -0.3447  3.3410
17168TIP3    H272996   6.127   3.410  14.192 -1.5607  0.4841 -1.5646
17169TIP3   OH272997   1.350   3.792  16.497  0.6153 -0.2613  0.3932
17169TIP3    H172998   1.312   3.705  16.515 -0.0022 -0.6452 -2.5424
17169TIP3    H272999   1.291   3.830  16.432  3.9743  0.0515 -2.5871
17170TIP3   OH273000   1.331   1.368  15.233 -0.0497  0.5331 -0.7480
17170TIP3    H173001   1.393   1.300  15.260  0.0603  0.4430 -1.2265
17170TIP3    H273002   1.289   1.332  15.155 -1.7647 -0.0440  0.4053
17171TIP3   OH273003   1.449   4.879   3.221  0.4010 -0.5947  0.1152
17171TIP3    H173004   1.435   4.800   3.273  0.3164 -0.9600 -0.4557
17171TIP3    H273005   1.451   4.950   3.285 -0.3882 -0.9559  0.5493
17172TIP3   OH273006   3.328   0.421   2.425  0.3345  0.1596  0.4513
17172TIP3    H173007   3.422   0.429   2.437  0.6628 -1.3299 -0.8956
17172TIP3    H273008   3.290   0.483   2.487  2.1747  0.2723  1.4929
17173TIP3   OH273009   3.927   1.436  12.239 -0.1614 -0.1330 -0.4257
17173TIP3    H173010   4.015   1.452  12.272 -1.0693  2.3305  0.9544
17173TIP3    H273011   3.912   1.343  12.255  1.2187 -0.0235  1.7062
17174TIP3   OH273012   5.029   5.837   5.436  0.3366 -0.1340 -0.1058
17174TIP3    H173013   5.023   5.933   5.439  3.1442  0.0200  1.9150
17174TIP3    H273014   5.005   5.815   5.346  1.0371  2.5767 -1.0111
17175TIP3   OH273015   5.240   4.691  15.543 -0.0969 -0.3702  0.6672
17175TIP3    H173016   5.169   4.674  15.481 -0.4671  0.2395  0.9174
17175TIP3    H273017   5.295   4.613  15.539  0.3025 -0.0123 -0.9871
17176TIP3   OH273018   0.727   4.759   0.488  0.4015  0.0683  0.1206
17176TIP3    H173019   0.732   4.854   0.502  1.1635  0.0744 -0.1628
17176TIP3    H273020   0.644   4.746   0.443  0.1502  0.5700  0.4309
17177TIP3   OH273021   6.122   6.378  13.670 -0.1741 -0.3844 -0.8168
17177TIP3    H173022   6.058   6.311  13.647  0.7299 -2.0348  1.3310
17177TIP3    H273023   6.176   6.387  13.592 -1.5345 -0.6789 -1.8198
17178TIP3   OH273024   6.253   6.576  14.817  0.0502  0.6465 -0.7056
17178TIP3    H173025   6.272   6.617  14.733 -1.4047  3.3304  0.2113
17178TIP3    H273026   6.196   6.503  14.796  0.4128  0.7462 -2.1174
17179TIP3   OH273027   1.869   1.458   2.304 -1.0814  0.3856  1.0634
17179TIP3    H173028   1.947   1.492   2.347 -1.8264  1.2228  1.7547
17179TIP3    H273029   1.902   1.416   2.225 -0.0568  1.8834  0.6741
17180TIP3   OH273030   0.228   2.109  12.352  0.3897 -0.9863 -0.2108
17180TIP3    H173031   0.136   2.082  12.344 -0.1518  0.0226  2.1417
17180TIP3    H273032   0.225   2.204  12.340  1.0295 -0.8726  0.5122
17181TIP3   OH273033   6.394   3.063  16.099 -0.3688 -0.0780  0.2049
17181TIP3    H173034   6.427   3.010  16.026  0.7782 -1.3362  1.5980
17181TIP3    H273035   6.469   3.117  16.124 -1.3170  1.7100 -0.7253
17182TIP3   OH273036   0.053   1.102   0.753 -0.3701  0.6070 -0.4896
17182TIP3    H173037   0.123   1.053   0.797 -1.2473 -0.4101 -0.1999
17182TIP3    H273038   0.087   1.191   0.746  2.1532 -0.4664 -2.9290
17183TIP3   OH273039   4.498   0.021  14.256  0.0423 -0.2102  0.3113
17183TIP3    H173040   4.440  -0.051  14.283 -0.1301  0.7914  2.6771
17183TIP3    H273041   4.583  -0.002  14.292  0.1486  0.4142  0.4626
17184TIP3   OH273042   0.813   1.606   1.592 -0.0985 -0.1244 -0.2558
17184TIP3    H173043   0.830   1.580   1.682  1.1818 -1.0473 -0.7246
17184TIP3    H273044   0.764   1.533   1.555  0.6245 -0.4133 -0.6757
17185TIP3   OH273045   6.448   5.302   0.922 -0.0413  0.0239 -0.2242
17185TIP3    H173046   6.440   5.253   1.004 -0.4997  0.9405  0.2863
17185TIP3    H273047   6.526   5.266   0.880  1.5267  1.0771  1.6720
17186TIP3   OH273048   2.910   3.247   2.816  0.1204  0.4498  0.2601
17186TIP3    H173049   2.974   3.312   2.845  1.7804 -0.7956 -0.4793
17186TIP3    H273050   2.954   3.163   2.833 -0.5003 -0.3747 -2.1423
17187TIP3   OH273051   4.692   4.067  16.265 -0.6555 -0.0690 -0.2119
17187TIP3    H173052   4.693   3.972  16.279 -1.9402 -0.2452 -1.1739
17187TIP3    H273053   4.782   4.089  16.242 -0.3179 -1.0361  0.1800
17188TIP3   OH273054   1.935   2.546  12.548 -0.1953 -0.0018 -0.0442
17188TIP3    H173055   1.893   2.632  12.550 -2.9404 -1.2998  1.6293
17188TIP3    H273056   2.019   2.559  12.591  0.4319  2.3137 -1.8568
17189TIP3   OH273057   5.842   3.020   5.902 -0.0484  0.1950  0.8806
17189TIP3    H173058   5.768   3.038   5.843  1.8363 -2.3744 -2.4223
17189TIP3    H273059   5.806   2.963   5.970 -0.5307 -3.6943 -2.4623
17190TIP3   OH273060   4.595   2.352   4.402 -0.3112  0.0398  0.0179
17190TIP3    H173061   4.635   2.327   4.485 -1.7520  1.8100  1.2997
17190TIP3    H273062   4.664   2.340   4.337  1.3823  0.3086  1.7193
17191TIP3   OH273063   6.689   4.957  15.046  0.4185  0.1621 -0.6032
17191TIP3    H173064   6.708   5.019  14.976 -0.4784  0.1065 -0.9108
17191TIP3    H273065   6.629   4.894  15.005  0.8470 -0.5568 -0.1270
17192TIP3   OH273066   1.327   2.857   4.910 -0.4960  0.5253  0.6970
17192TIP3    H173067   1.400   2.847   4.970  0.0775  0.0529 -0.0671
17192TIP3    H273068   1.340   2.943   4.870 -1.0966  1.0113  1.5247
17193TIP3   OH273069   0.706   5.200   5.358 -0.7420 -0.1801  0.7225
17193TIP3    H173070   0.738   5.252   5.431 -0.4323 -0.8337  1.0532
17193TIP3    H273071   0.699   5.263   5.286 -0.2886  0.3051  1.0935
17194TIP3   OH273072   1.263   4.421   5.611 -0.4239  0.1693 -1.1363
17194TIP3    H173073   1.343   4.467   5.635 -0.4776  0.2236 -1.0627
17194TIP3    H273074   1.268   4.338   5.659 -2.3090  1.8148  2.0273
17195TIP3   OH273075   3.884   1.382  16.845 -0.2651 -0.1374  0.1131
17195TIP3    H173076   3.814   1.368  16.781  0.0570  0.0639 -0.2868
17195TIP3    H273077   3.926   1.296  16.853 -0.8853 -0.3860  0.7445
17196TIP3   OH273078   4.149   0.665  15.600 -0.1782  0.0831  0.0616
17196TIP3    H173079   4.060   0.631  15.599 -0.3185  0.4510 -0.9000
17196TIP3    H273080   4.203   0.591  15.627 -0.9077  0.2143  1.9090
17197TIP3   OH273081   5.024   6.452  15.192 -0.1208  0.2991 -0.0060
17197TIP3    H173082   4.954   6.452  15.128  0.3630  3.5122 -0.6609
17197TIP3    H273083   5.103   6.434  15.142 -0.1508 -0.6435  0.2794
17198TIP3   OH273084   2.325   4.844  15.110 -0.3478  0.0219 -0.3045
17198TIP3    H173085   2.301   4.856  15.018 -0.6886 -0.4942 -0.2842
17198TIP3    H273086   2.346   4.932  15.141  0.6429  0.0905 -1.1193
17199TIP3   OH273087   4.881   5.193  11.504 -0.6391 -0.3549 -0.0621
17199TIP3    H173088   4.891   5.157  11.592 -1.8054 -0.6239 -0.0423
17199TIP3    H273089   4.788   5.214  11.496 -0.4509  0.1306 -1.0498
17200TIP3   OH273090   6.768   3.723   0.513  0.4307 -0.2516 -0.7277
17200TIP3    H173091   6.706   3.651   0.527  0.4643 -0.4072 -1.3700
17200TIP3    H273092   6.853   3.686   0.538  0.2844 -0.0730  0.0457
17201TIP3   OH273093   5.269   4.311   2.272 -0.5720  0.2633  0.3980
17201TIP3    H173094   5.290   4.225   2.308 -4.6225 -0.6390  0.8898
17201TIP3    H273095   5.273   4.370   2.347  0.5728  0.1958  0.3936
17202TIP3   OH273096   1.322   3.798  14.577 -0.6072  0.3584  0.3454
17202TIP3    H173097   1.325   3.704  14.555 -0.7670  0.9867 -2.6239
17202TIP3    H273098   1.230   3.815  14.597 -0.2357 -0.5151  2.8931
17203TIP3   OH273099   5.770   0.678  12.917 -0.1913  0.1041  0.3657
17203TIP3    H173100   5.796   0.698  13.007 -0.8759  1.7288  0.2141
17203TIP3    H273101   5.801   0.753  12.866 -0.1317 -0.6344 -0.7136
17204TIP3   OH273102   2.117   4.249   3.498  0.2495  0.4459 -0.0794
17204TIP3    H173103   2.071   4.325   3.464  0.8009 -0.2468 -2.4656
17204TIP3    H273104   2.206   4.279   3.512  0.1780  0.5616  0.1245
17205TIP3   OH273105   5.200   4.014   0.336 -0.1120  0.1430 -0.3718
17205TIP3    H173106   5.124   4.023   0.393  1.0437  2.4871  0.8839
17205TIP3    H273107   5.259   3.956   0.385  0.2651  0.9710  0.1676
17206TIP3   OH273108   4.813   5.393  16.195  0.5608 -0.1387  0.2879
17206TIP3    H173109   4.843   5.335  16.266  0.3348 -1.4715 -0.6865
17206TIP3    H273110   4.834   5.481  16.226 -1.3952 -0.5454  2.9079
17207TIP3   OH273111   2.685   6.538   3.871 -0.0358 -0.1306  0.6609
17207TIP3    H173112   2.590   6.532   3.860  0.0105 -0.0783  0.2103
17207TIP3    H273113   2.699   6.628   3.902 -0.1977 -0.3842  1.4861
17208TIP3   OH273114   4.196   0.698  11.681 -0.3927 -0.1402  0.5927
17208TIP3    H173115   4.182   0.630  11.614  0.5490  0.3411 -0.0955
17208TIP3    H273116   4.113   0.745  11.684 -0.9666 -1.1442  0.8784
17209TIP3   OH273117   4.945   5.196   5.593  0.6584 -0.1118  0.4544
17209TIP3    H173118   4.977   5.286   5.597 -1.7029  0.7696  0.6209
17209TIP3    H273119   4.968   5.167   5.505  1.5819  0.5993  0.4481
17210TIP3   OH273120   0.694   6.081   4.353  0.2191  0.3472 -0.0607
17210TIP3    H173121   0.601   6.100   4.339 -0.2586 -1.0833  0.9703
17210TIP3    H273122   0.705   6.088   4.448  0.8364 -0.8674 -0.0417
17211TIP3   OH273123   1.266   2.027  13.095 -0.0943 -0.4422  0.1673
17211TIP3    H173124   1.348   1.978  13.096 -1.3121 -2.6626 -1.6895
17211TIP3    H273125   1.232   2.014  13.006 -1.3239  2.4000  0.1678
17212TIP3   OH273126   4.526   2.453   6.342  0.3233  0.1584  0.1167
17212TIP3    H173127   4.563   2.539   6.365  1.4074 -0.1049 -0.5981
17212TIP3    H273128   4.579   2.390   6.390 -0.1269 -0.1482  0.2169
17213TIP3   OH273129   2.306   4.224   0.558 -0.0079 -0.1878  0.4460
17213TIP3    H173130   2.382   4.207   0.614 -1.6009 -2.9638  1.8975
17213TIP3    H273131   2.335   4.292   0.498  3.5921 -1.0671  1.0673
17214TIP3   OH273132   3.858   0.475  14.350 -0.1155 -0.2206  0.2549
17214TIP3    H173133   3.783   0.439  14.301 -1.3595  0.2187  1.7975
17214TIP3    H273134   3.899   0.536  14.289 -1.6660  0.3492 -0.2495
17215TIP3   OH273135   4.563   4.907   0.808  0.2713  0.0786 -0.3081
17215TIP3    H173136   4.586   4.852   0.883 -0.9989 -1.6974 -1.1625
17215TIP3    H273137   4.477   4.943   0.830 -0.5146 -1.1708 -1.2699
17216TIP3   OH273138   0.729   6.060   1.327  0.6102 -0.7802  0.1051
17216TIP3    H173139   0.813   6.022   1.355 -0.9249 -1.9041  3.3164
17216TIP3    H273140   0.665   6.026   1.389 -1.8756  2.0433 -0.8292
17217TIP3   OH273141   5.783   6.275  12.343 -0.5026 -0.0229  0.0344
17217TIP3    H173142   5.855   6.286  12.281  0.5723 -0.0600  1.2440
17217TIP3    H273143   5.758   6.183  12.335 -0.9982  0.1948 -1.0005
17218TIP3   OH273144   5.213   3.869  14.466 -0.4430 -0.5535 -0.1745
17218TIP3    H173145   5.206   3.965  14.464 -0.8068 -0.4416  3.6333
17218TIP3    H273146   5.306   3.851  14.456 -0.6132  0.0578 -3.2222
17219TIP3   OH273147   0.536   4.479  13.398  0.9602 -0.2474  0.0528
17219TIP3    H173148   0.543   4.479  13.493 -0.9802  2.7586  0.2468
17219TIP3    H273149   0.521   4.387  13.375  2.2711 -1.1368  2.5321
17220TIP3   OH273150   4.456   1.405   2.051  0.4393  0.4965  0.4592
17220TIP3    H173151   4.486   1.424   2.140  1.8022  1.6305 -0.2261
17220TIP3    H273152   4.375   1.355   2.063  1.2889 -0.4699  2.3342
17221TIP3   OH273153   5.557   3.760  11.996  0.1700 -0.1970 -0.3851
17221TIP3    H173154   5.491   3.772  12.065  0.3138  0.2183 -0.3153
17221TIP3    H273155   5.530   3.820  11.927  1.2055  0.9578  0.1916
17222TIP3   OH273156   5.714   6.766   3.385 -0.4210 -0.5054  0.2900
17222TIP3    H173157   5.676   6.854   3.385  2.2917  0.7499 -2.6516
17222TIP3    H273158   5.652   6.714   3.333 -0.5352  0.3718 -0.4669
17223TIP3   OH273159   4.232   0.493  15.043  0.0182 -0.2306 -0.0750
17223TIP3    H173160   4.270   0.489  15.131  0.2932 -0.7768 -0.2199
17223TIP3    H273161   4.236   0.586  15.020  0.7997 -0.2047  0.1270
17224TIP3   OH273162   3.680   4.948   2.857  0.0837 -0.3046  0.2088
17224TIP3    H173163   3.719   4.904   2.933  1.3179  0.9687  0.3282
17224TIP3    H273164   3.740   4.930   2.785  0.7646  1.4670  0.3342
17225TIP3   OH273165   4.108   5.551   2.626 -0.6704 -0.2787 -0.1701
17225TIP3    H173166   4.064   5.627   2.588 -0.5248  0.2732  0.7518
17225TIP3    H273167   4.185   5.537   2.572  1.0414  2.1909  1.5214
17226TIP3   OH273168   2.908   4.884  13.752 -0.1302 -0.4238  0.0431
17226TIP3    H173169   2.929   4.937  13.830 -1.9813 -1.4584  1.2704
17226TIP3    H273170   2.982   4.824  13.744 -0.9779 -1.8458  2.3939
17227TIP3   OH273171   2.167   2.262  14.650 -0.2341  0.3049  0.5227
17227TIP3    H173172   2.193   2.281  14.560 -1.2138 -2.8472 -0.4688
17227TIP3    H273173   2.250   2.252  14.697  0.2772  0.8375 -0.2479
17228TIP3   OH273174   4.494   2.565   2.484 -0.2402 -0.1541 -0.6068
17228TIP3    H173175   4.585   2.542   2.463  0.1510  0.5590  0.2702
17228TIP3    H273176   4.447   2.482   2.479  1.0719 -1.1427  2.1352
17229TIP3   OH273177   5.282   4.972   5.872 -0.4157 -0.0469 -0.1622
17229TIP3    H173178   5.362   4.976   5.925  0.2009 -0.0402 -1.0754
17229TIP3    H273179   5.253   5.062   5.864 -0.4114 -0.0295  0.0183
17230TIP3   OH273180   1.528   5.595  15.808 -0.7146  0.1901  0.0356
17230TIP3    H173181   1.512   5.603  15.714  1.4868  1.9535 -0.2257
17230TIP3    H273182   1.567   5.508  15.818 -0.4123  0.2291 -0.7678
17231TIP3   OH273183   4.265   2.587  14.807 -0.2719 -0.7570  0.2335
17231TIP3    H173184   4.333   2.594  14.740 -0.9029 -1.5067 -0.4915
17231TIP3    H273185   4.190   2.548  14.761 -0.2062 -2.7211  1.7213
17232TIP3   OH273186   6.246   3.860  11.066 -0.6521  0.6802 -0.5702
17232TIP3    H173187   6.234   3.943  11.111  0.6240 -0.4150  1.8989
17232TIP3    H273188   6.303   3.881  10.992  1.0856  1.7284  1.0180
17233TIP3   OH273189   6.008   1.722   2.529 -0.2627  0.0276 -0.7707
17233TIP3    H173190   5.962   1.761   2.604 -0.5433 -0.4210 -0.7055
17233TIP3    H273191   6.100   1.735   2.548 -0.3647  1.2963 -1.0962
17234TIP3   OH273192   3.705   3.468  10.503 -0.3861 -0.1813 -0.8560
17234TIP3    H173193   3.623   3.434  10.468 -0.2076 -2.1528  0.5771
17234TIP3    H273194   3.735   3.402  10.566  2.3724  0.4349 -1.4359
17235TIP3   OH273195   5.664   4.241   2.384 -0.0780 -0.0155 -0.2672
17235TIP3    H173196   5.626   4.165   2.428  0.3928 -0.3392 -0.4107
17235TIP3    H273197   5.745   4.207   2.345  0.2896  0.6288 -0.0673
17236TIP3   OH273198   5.834   3.261   3.861  0.0052  0.2788  0.7973
17236TIP3    H173199   5.767   3.199   3.889 -0.5318 -0.2227 -1.4775
17236TIP3    H273200   5.790   3.346   3.864 -0.5121  0.0504  0.1310
17237TIP3   OH273201   2.800   1.722   1.132 -0.2123 -0.6167  0.1852
17237TIP3    H173202   2.735   1.680   1.076 -1.6754  1.2243  0.4927
17237TIP3    H273203   2.788   1.816   1.118 -0.3192 -0.1168  3.2507
17238TIP3   OH273204   4.300   5.616   3.943 -0.3139 -0.0238  0.0042
17238TIP3    H173205   4.329   5.697   3.983 -1.4004 -0.2659  1.3133
17238TIP3    H273206   4.368   5.552   3.963  0.0603  0.3198 -0.1790
17239TIP3   OH273207   3.918   3.735  16.124 -0.0683 -0.4250 -0.2316
17239TIP3    H173208   4.008   3.711  16.102 -0.4615 -1.5545 -0.6157
17239TIP3    H273209   3.881   3.657  16.164 -1.1623 -0.2476 -0.8899
17240TIP3   OH273210   5.165   4.314  13.384  0.2496  0.3737 -0.1078
17240TIP3    H173211   5.134   4.292  13.296  1.7321 -0.2010 -0.4945
17240TIP3    H273212   5.107   4.266  13.442 -1.3733  1.5353 -0.7233
17241TIP3   OH273213   2.480   0.239  12.127  0.4202 -0.7991  0.0087
17241TIP3    H173214   2.450   0.165  12.073 -1.6950 -0.0042  0.0521
17241TIP3    H273215   2.404   0.262  12.180  1.7098  0.0842  1.5087
17242TIP3   OH273216   6.180   5.835   6.258 -0.0070  0.2853  0.2462
17242TIP3    H173217   6.244   5.907   6.261 -0.3890  0.6774 -0.8033
17242TIP3    H273218   6.181   5.807   6.166  0.4335 -1.3259  0.7311
17243TIP3   OH273219   6.778   2.118  15.363 -0.2893 -0.2263 -0.3998
17243TIP3    H173220   6.760   2.212  15.357 -1.2205 -0.3357  0.5829
17243TIP3    H273221   6.731   2.079  15.289  0.6828  0.1484 -1.2312
17244TIP3   OH273222   0.602   4.813   2.688  0.3350 -0.3570  1.0022
17244TIP3    H173223   0.589   4.723   2.658  1.3934  0.0926 -0.8659
17244TIP3    H273224   0.653   4.854   2.618  0.3333  1.5402  2.1020
17245TIP3   OH273225   0.682   3.640  13.395  0.0042 -0.3146 -0.1800
17245TIP3    H173226   0.636   3.559  13.418  0.1551 -0.7575 -1.3917
17245TIP3    H273227   0.612   3.702  13.375 -0.1202 -0.0267  1.0789
17246TIP3   OH273228   0.877   1.487   2.482 -0.3160 -0.1672 -0.4427
17246TIP3    H173229   0.793   1.527   2.459 -0.1691 -0.2684 -1.1657
17246TIP3    H273230   0.921   1.553   2.537  0.0808  0.8253 -1.9286
17247TIP3   OH273231   4.717   4.392  12.579  0.3305  0.6766 -0.6255
17247TIP3    H173232   4.791   4.333  12.595  0.9853  1.0897 -2.0469
17247TIP3    H273233   4.641   4.343  12.608  0.9437 -0.6274 -1.1796
17248TIP3   OH273234   1.614   4.375   6.087 -0.0989  0.2705 -0.2785
17248TIP3    H173235   1.603   4.293   6.040  0.1568  1.5234 -2.6165
17248TIP3    H273236   1.534   4.384   6.139 -0.4571 -1.0719 -0.5845
17249TIP3   OH273237   4.025   5.008   2.362  0.6614 -0.1356  0.2999
17249TIP3    H173238   3.949   5.025   2.306  0.9309 -0.9587 -0.3291
17249TIP3    H273239   4.012   4.920   2.395  1.4964 -0.4117 -0.0802
17250TIP3   OH273240   6.235   1.544   0.432 -0.4013 -0.2796 -0.1360
17250TIP3    H173241   6.284   1.467   0.405  1.7016  1.1047 -0.3351
17250TIP3    H273242   6.166   1.552   0.366 -0.7109 -2.0226 -0.0540
17251TIP3   OH273243   6.494   6.177  16.420  0.1428 -0.1643 -0.2450
17251TIP3    H173244   6.530   6.261  16.449  1.0309 -0.9924  1.1193
17251TIP3    H273245   6.401   6.195  16.406  0.3656  1.1099 -0.2035
17252TIP3   OH273246   1.383   4.155   5.419 -0.3327 -0.1254  0.1926
17252TIP3    H173247   1.403   4.244   5.449  0.0303 -0.4985  1.0812
17252TIP3    H273248   1.410   4.154   5.327  0.6218  0.3874  0.4525
17253TIP3   OH273249   6.144   5.366  16.916  0.3506 -0.3773 -0.1194
17253TIP3    H173250   6.128   5.439  16.856 -1.4231 -1.9994 -1.6746
17253TIP3    H273251   6.229   5.330  16.889  0.3082 -0.1020 -0.6068
17254TIP3   OH273252   0.926   3.467  11.817 -0.0768  0.1833  0.1291
17254TIP3    H173253   0.934   3.485  11.911 -0.3371  0.9595  0.0037
17254TIP3    H273254   0.859   3.399  11.812 -0.4773  0.5501  0.4622
17255TIP3   OH273255   0.209   2.091   4.903 -0.2753  0.4354 -0.2802
17255TIP3    H173256   0.198   2.162   4.840 -0.4362  0.5525 -0.1213
17255TIP3    H273257   0.289   2.047   4.876 -1.3204 -0.6449 -1.6759
17256TIP3   OH273258   5.515   3.432  15.242 -0.0963  0.1973 -0.1535
17256TIP3    H173259   5.525   3.353  15.295  0.6647 -0.5233 -1.3495
17256TIP3    H273260   5.557   3.500  15.294 -1.0526 -0.0949  1.0467
17257TIP3   OH273261   3.605   6.749   5.251  0.4820 -0.0423 -0.1923
17257TIP3    H173262   3.592   6.843   5.254 -1.1554 -0.2887  1.0069
17257TIP3    H273263   3.647   6.733   5.166 -3.4759  1.2827 -2.5360
17258TIP3   OH273264   0.832   2.816  13.475  0.2114 -0.0401  0.0203
17258TIP3    H173265   0.881   2.885  13.520  0.8712 -0.5362  0.0656
17258TIP3    H273266   0.814   2.751  13.543  0.2693 -0.2818 -0.1944
17259TIP3   OH273267   4.650   0.560  16.272 -0.7381  0.3106 -0.1277
17259TIP3    H173268   4.583   0.628  16.281 -0.4429  0.4722  0.8825
17259TIP3    H273269   4.646   0.511  16.354 -0.0075 -0.0279 -0.2902
17260TIP3   OH273270   4.613   1.686  13.385  0.1078 -0.2234 -0.1448
17260TIP3    H173271   4.659   1.764  13.417 -0.4200  0.1368 -0.2618
17260TIP3    H273272   4.680   1.617  13.385  0.8025  0.4530 -0.9312
17261TIP3   OH273273   1.137   2.617   1.108 -0.2102 -0.5578  0.2262
17261TIP3    H173274   1.067   2.565   1.147 -0.1128 -0.5291  0.4396
17261TIP3    H273275   1.127   2.704   1.147  0.1851 -0.6569  0.5483
17262TIP3   OH273276   5.606   3.063   4.372 -0.1617 -0.0458 -0.8839
17262TIP3    H173277   5.665   3.120   4.322  1.3566 -0.2154  0.6666
17262TIP3    H273278   5.627   2.975   4.342  0.8390 -0.1581  0.1092
17263TIP3   OH273279   6.615   1.690   1.627 -0.4624 -0.8350  0.1219
17263TIP3    H173280   6.624   1.785   1.629 -0.9026 -0.7862 -0.2157
17263TIP3    H273281   6.577   1.667   1.712  1.2046 -0.8814  0.8912
17264TIP3   OH273282   6.642   0.458   6.387  0.7945 -0.0353  0.2903
17264TIP3    H173283   6.705   0.492   6.450 -0.3258  0.5266  1.1122
17264TIP3    H273284   6.556   0.483   6.422  0.1162 -0.6662 -0.8886
17265TIP3   OH273285   5.738   3.805   1.801 -0.7912 -0.0825  0.0869
17265TIP3    H173286   5.758   3.731   1.743  0.4695  0.6024 -0.3779
17265TIP3    H273287   5.793   3.791   1.878  1.2134  1.5325 -0.9724
17266TIP3   OH273288   4.599   4.808   1.345  0.2537  0.3133  0.6894
17266TIP3    H173289   4.659   4.791   1.418  1.6776  2.1718  0.0071
17266TIP3    H273290   4.520   4.841   1.386  0.3460 -0.4345  1.4945
17267TIP3   OH273291   1.319   2.254   1.001 -0.1099 -0.7209  0.2395
17267TIP3    H173292   1.279   2.251   0.914  0.5269  0.2032 -0.0890
17267TIP3    H273293   1.350   2.164   1.016 -0.2304 -0.8878 -0.4849
17268TIP3   OH273294   6.787   3.026   1.896 -0.5822 -0.2701 -0.4012
17268TIP3    H173295   6.838   3.074   1.831 -1.1749 -0.5795 -1.1012
17268TIP3    H273296   6.764   3.092   1.961  0.4300 -0.0594 -0.2395
17269TIP3   OH273297   4.278   6.447   0.651  0.2636 -0.0121  0.0540
17269TIP3    H173298   4.367   6.433   0.617 -0.0772  0.6864 -1.1644
17269TIP3    H273299   4.251   6.530   0.612 -0.8874 -0.1709  0.5137
17270TIP3   OH273300   1.521   4.362  13.154 -0.1506  0.3545  0.3459
17270TIP3    H173301   1.507   4.397  13.242 -0.4957 -0.6393  0.6870
17270TIP3    H273302   1.433   4.349  13.118 -0.0698 -1.8619  0.9009
17271TIP3   OH273303   1.157   1.916   2.751 -0.8637  0.0185  0.4024
17271TIP3    H173304   1.221   1.853   2.719 -0.8857  0.1256  0.1413
17271TIP3    H273305   1.153   1.901   2.845  0.1173  0.5341  0.5330
17272TIP3   OH273306   2.020   2.982   1.589  0.5216  0.0079  0.1996
17272TIP3    H173307   2.018   3.078   1.589 -0.3625  0.0135 -1.6200
17272TIP3    H273308   1.970   2.957   1.511  2.8698 -1.8773 -0.7710
17273TIP3   OH273309   3.179   1.873  15.342 -0.0607 -0.5647 -0.4800
17273TIP3    H173310   3.250   1.909  15.396  0.9335  0.7099 -2.5573
17273TIP3    H273311   3.209   1.786  15.318 -0.5047 -1.1352  0.9925
17274TIP3   OH273312   1.072   3.426   1.969 -0.4750 -0.1399  0.4888
17274TIP3    H173313   1.044   3.516   1.957 -1.7376 -0.5729  0.1147
17274TIP3    H273314   1.004   3.387   2.025  0.9458 -0.4036  2.0811
17275TIP3   OH273315   0.441   3.644  15.600  0.5669  0.2455  0.4226
17275TIP3    H173316   0.420   3.719  15.544 -0.8704 -0.2676  0.2502
17275TIP3    H273317   0.464   3.682  15.684 -2.8685  0.8138  1.1927
17276TIP3   OH273318   5.990   0.032  17.245 -0.4509 -0.0272  0.3489
17276TIP3    H173319   6.054  -0.032  17.275 -0.1380 -1.0141 -2.2788
17276TIP3    H273320   5.910   0.010  17.293 -0.7871 -3.4452 -1.6005
17277TIP3   OH273321   3.774   6.255   0.571 -0.7047 -0.1245 -0.2287
17277TIP3    H173322   3.774   6.314   0.646 -1.2859 -0.6944  0.2246
17277TIP3    H273323   3.682   6.244   0.548 -0.6077 -0.8661 -0.2928
17278TIP3   OH273324   2.363   2.416   0.481  0.0984  0.0875  0.1654
17278TIP3    H173325   2.348   2.381   0.393 -0.5658 -1.9697  1.0540
17278TIP3    H273326   2.457   2.430   0.486  0.0104  1.3116 -1.2538
17279TIP3   OH273327   1.329   6.094   6.662 -0.1318  0.5659  0.1793
17279TIP3    H173328   1.296   6.152   6.594  0.7580 -1.5967 -2.1818
17279TIP3    H273329   1.413   6.062   6.628 -0.7072 -2.2805  1.2793
17280TIP3   OH273330   6.762   4.144  12.932  0.2855 -0.1492  0.4319
17280TIP3    H173331   6.778   4.166  12.840 -2.1853 -1.0331 -0.2431
17280TIP3    H273332   6.747   4.229  12.974  0.3095  0.1814 -0.2146
17281TIP3   OH273333   6.269   3.698   4.554  0.0620  0.2107 -0.5398
17281TIP3    H173334   6.338   3.732   4.612  1.1598 -0.0896 -1.6553
17281TIP3    H273335   6.197   3.674   4.614  1.7525 -1.5439  0.8658
17282TIP3   OH273336   3.087   2.230  14.316 -0.8602 -0.4105 -0.0263
17282TIP3    H173337   3.087   2.320  14.285  1.1603 -1.0639 -2.0160
17282TIP3    H273338   3.158   2.227  14.381  0.0556 -0.8802 -1.0229
17283TIP3   OH273339   4.149   5.277  16.478 -0.1702  0.0985 -0.1257
17283TIP3    H173340   4.181   5.196  16.438  0.0459  0.1773 -0.1123
17283TIP3    H273341   4.119   5.330  16.403 -0.8969 -0.2511 -0.0785
17284TIP3   OH273342   2.102   5.346  15.555  0.1430 -0.0661  0.7429
17284TIP3    H173343   2.066   5.316  15.638 -1.0831 -0.7364 -0.0221
17284TIP3    H273344   2.035   5.406  15.520 -0.1180 -1.0927 -0.5535
17285TIP3   OH273345   3.470   4.799   5.025 -0.2643  0.5820  0.4160
17285TIP3    H173346   3.535   4.738   5.062  0.0230  0.9209  0.4733
17285TIP3    H273347   3.386   4.759   5.044 -0.0404 -0.5704 -0.8818
17286TIP3   OH273348   6.174   4.612   1.049 -0.3270 -0.0933 -0.1587
17286TIP3    H173349   6.186   4.541   0.985 -0.5218 -1.2629  1.0822
17286TIP3    H273350   6.178   4.692   0.997 -3.8416 -1.1286 -2.1680
17287TIP3   OH273351   1.854   0.260   2.635  0.1407  0.0831 -0.5679
17287TIP3    H173352   1.855   0.187   2.698  2.2706 -1.0574 -1.8407
17287TIP3    H273353   1.794   0.231   2.566 -0.7056  0.4966 -0.0106
17288TIP3   OH273354   5.533   6.373  13.481 -0.1926 -0.2264 -0.0651
17288TIP3    H173355   5.573   6.456  13.458  1.9171 -1.1760  0.0334
17288TIP3    H273356   5.570   6.310  13.419 -1.5230 -1.1516  0.0535
17289TIP3   OH273357   5.689   5.211   0.804  0.5647 -0.4744 -0.1089
17289TIP3    H173358   5.759   5.259   0.849  0.4795  0.2708 -0.7587
17289TIP3    H273359   5.608   5.242   0.844  0.4682  0.4393 -0.9893
17290TIP3   OH273360   4.107   3.019  15.027 -0.4649 -0.2259  0.6487
17290TIP3    H173361   4.103   2.928  15.001 -0.8038 -0.3856  1.2456
17290TIP3    H273362   4.079   3.019  15.119  0.4513  0.3432  0.9409
17291TIP3   OH273363   2.738   6.551  15.991 -0.4637  0.5730 -0.6636
17291TIP3    H173364   2.750   6.564  16.085 -0.2187 -3.2993 -0.0781
17291TIP3    H273365   2.827   6.546  15.956 -0.5564  1.1549 -0.9979
17292TIP3   OH273366   1.768   5.066  14.969  0.2393 -0.1334  0.1757
17292TIP3    H173367   1.737   5.036  14.884 -0.1053 -0.7303  0.5074
17292TIP3    H273368   1.741   4.997  15.030  1.0948 -0.0419  0.6618
17293TIP3   OH273369   1.581   5.071   4.081 -0.8824 -0.0709  0.1826
17293TIP3    H173370   1.512   5.030   4.132 -0.5608 -0.6664  0.1564
17293TIP3    H273371   1.569   5.165   4.092 -2.2349 -0.1539 -0.5500
17294TIP3   OH273372   1.306   0.106  16.472 -0.2530  0.5883 -0.3464
17294TIP3    H173373   1.336   0.043  16.538 -1.7391  1.5455  1.2933
17294TIP3    H273374   1.331   0.067  16.388  1.2115 -0.9081  0.7461
17295TIP3   OH273375   1.045   4.604  15.113 -0.0971 -0.1658  0.1816
17295TIP3    H173376   0.984   4.660  15.160 -2.0622 -0.3747 -2.0205
17295TIP3    H273377   1.118   4.661  15.089 -0.4394  0.6046  0.9822
17296TIP3   OH273378   4.075   4.022  17.134  0.1616 -0.2509  0.2107
17296TIP3    H173379   4.003   4.070  17.175  0.4347 -1.3171  1.9430
17296TIP3    H273380   4.044   4.008  17.044 -0.3459  2.2597 -0.0537
17297TIP3   OH273381   2.871   6.286   3.008  0.2707  0.4130  0.3487
17297TIP3    H173382   2.928   6.363   3.002 -1.7239  1.9594  0.5482
17297TIP3    H273383   2.843   6.270   2.918 -0.5122  0.8563  0.5132
17298TIP3   OH273384   2.135   2.987   2.726  0.1321  0.0451 -0.3855
17298TIP3    H173385   2.132   3.047   2.801  1.5600  0.5878 -0.7524
17298TIP3    H273386   2.184   2.911   2.758 -1.8262 -1.0481  0.1361
17299TIP3   OH273387   5.589   1.398   1.202  0.1453 -0.3448 -0.0687
17299TIP3    H173388   5.573   1.358   1.288  1.4411  2.6201  1.5988
17299TIP3    H273389   5.530   1.473   1.198  1.6058  0.7867 -0.8843
17300TIP3   OH273390   6.139   4.241  12.687  0.7370  0.1989 -0.3675
17300TIP3    H173391   6.061   4.247  12.633 -0.4912 -0.4125  1.2790
17300TIP3    H273392   6.143   4.324  12.734  0.0897 -0.4068  0.8039
17301TIP3   OH273393   4.033   5.322   2.784 -0.2476  0.1497  0.2888
17301TIP3    H173394   4.024   5.401   2.729 -2.3015 -0.8476 -0.8724
17301TIP3    H273395   3.968   5.261   2.748 -1.4910 -0.6178  3.7271
17302TIP3   OH273396   5.948   0.682  11.356  0.8290  0.0595  0.8265
17302TIP3    H173397   6.002   0.605  11.338  1.8725  1.2722 -1.4499
17302TIP3    H273398   5.860   0.655  11.332  1.5721  0.3139 -2.4854
17303TIP3   OH273399   1.391   6.073  13.761  0.2633  0.8199  0.3135
17303TIP3    H173400   1.397   6.066  13.665 -1.4795  0.0848  0.2412
17303TIP3    H273401   1.330   6.145  13.776  1.3944  1.6763  0.9011
17304TIP3   OH273402   0.286   3.295   0.743 -0.1478  0.2638  0.1808
17304TIP3    H173403   0.208   3.251   0.710  0.9007 -1.2529 -0.3235
17304TIP3    H273404   0.261   3.325   0.831 -1.8597  1.3801 -0.6539
17305TIP3   OH273405   1.711   3.513  11.412 -0.2237  0.2074 -0.1124
17305TIP3    H173406   1.639   3.528  11.474 -0.5718  2.4103 -1.0012
17305TIP3    H273407   1.786   3.490  11.467 -0.8776  0.7518  1.0252
17306TIP3   OH273408   1.177   5.817  13.879 -0.5039  0.9658 -0.1039
17306TIP3    H173409   1.143   5.874  13.947 -0.2356  1.4794 -0.3960
17306TIP3    H273410   1.173   5.869  13.799 -0.3562  0.5411 -0.3930
17307TIP3   OH273411   1.759   2.689   6.176  0.1795 -0.3202 -0.7733
17307TIP3    H173412   1.737   2.677   6.269 -2.7496  1.3993 -1.1948
17307TIP3    H273413   1.713   2.618   6.131 -1.1127  0.7682 -1.2131
17308TIP3   OH273414   2.854   6.551  16.788  0.9188  0.4117 -0.5965
17308TIP3    H173415   2.813   6.468  16.765 -1.2847  1.5571 -0.9407
17308TIP3    H273416   2.782   6.605  16.819  2.5863  1.6525  1.2209
17309TIP3   OH273417   4.646   1.601  11.463  0.0406 -0.8014 -0.4285
17309TIP3    H173418   4.733   1.562  11.453  0.7453  0.3302  0.9924
17309TIP3    H273419   4.662   1.682  11.512 -1.7228 -0.1688 -0.8723
17310TIP3   OH273420   0.597   3.780  17.018 -0.1754 -0.1604 -0.4119
17310TIP3    H173421   0.636   3.732  16.944 -0.3018 -0.3743 -0.3425
17310TIP3    H273422   0.576   3.712  17.082  0.4222  0.0809  0.0408
17311TIP3   OH273423   0.478   4.742  14.465 -0.1168 -0.0549 -0.1072
17311TIP3    H173424   0.422   4.687  14.519 -1.0417  1.2459  0.2825
17311TIP3    H273425   0.446   4.729  14.375 -0.8642  0.4674  0.0814
17312TIP3   OH273426   0.544   6.648   2.299 -0.4663  0.2055  0.2121
17312TIP3    H173427   0.481   6.712   2.266 -0.2510  0.8914  1.1046
17312TIP3    H273428   0.623   6.698   2.316 -0.0993 -0.4103  0.3426
17313TIP3   OH273429   5.622   0.050   3.034 -0.0386 -0.0654 -0.1111
17313TIP3    H173430   5.616  -0.024   3.094 -1.4894 -0.3675 -0.6246
17313TIP3    H273431   5.545   0.043   2.979  1.7604 -0.3517 -2.6765
17314TIP3   OH273432   1.094   5.611   3.250  0.6175  0.4141 -0.4689
17314TIP3    H173433   1.055   5.604   3.162  0.5160 -1.8119 -0.2861
17314TIP3    H273434   1.171   5.554   3.246 -0.0707 -0.6700  1.2356
17315TIP3   OH273435   3.478   6.294   3.219 -0.5655  0.1487 -0.0761
17315TIP3    H173436   3.561   6.257   3.190 -0.2064 -0.3248  1.4967
17315TIP3    H273437   3.467   6.373   3.166  0.0991 -0.6328 -1.4014
17316TIP3   OH273438   2.266   5.192  10.933  0.0647  0.1670 -0.4378
17316TIP3    H173439   2.210   5.264  10.905  1.1918  1.8324  1.4104
17316TIP3    H273440   2.289   5.146  10.852 -0.1626  2.2679 -1.7316
17317TIP3   OH273441   6.104   0.684   3.401 -0.1716 -0.3402  0.2077
17317TIP3    H173442   6.074   0.602   3.442  1.6591 -0.7369  0.7759
17317TIP3    H273443   6.085   0.671   3.308 -1.2643 -0.8048  0.4852
17318TIP3   OH273444   2.628   1.961  14.019 -0.1288 -0.6638 -0.2279
17318TIP3    H173445   2.546   2.006  14.039  0.4139  0.4041 -0.3833
17318TIP3    H273446   2.688   1.987  14.089 -0.0977 -1.9650  0.2561
17319TIP3   OH273447   6.819   4.654  16.146 -0.1632  0.0450 -0.5118
17319TIP3    H173448   6.806   4.738  16.190  1.6177  0.7611 -1.2934
17319TIP3    H273449   6.908   4.660  16.110 -0.4761 -1.7025 -1.6061
17320TIP3   OH273450   3.744   3.191  17.158  0.4200  0.0388  0.0227
17320TIP3    H173451   3.660   3.162  17.124  0.4909 -1.7505  1.2908
17320TIP3    H273452   3.748   3.156  17.247  2.4470  0.2023  0.0332
17321TIP3   OH273453   0.085   2.082  14.000  0.4727 -0.1833  0.0027
17321TIP3    H173454   0.151   2.111  13.936 -0.6932  1.7876 -0.3738
17321TIP3    H273455   0.100   2.137  14.077 -1.2473  0.9228 -0.4063
17322TIP3   OH273456   4.849   1.172  13.575 -0.1029 -0.6055 -0.1032
17322TIP3    H173457   4.828   1.116  13.649 -2.7166  1.1098  0.5267
17322TIP3    H273458   4.796   1.137  13.503  0.0589 -0.3947 -0.3238
17323TIP3   OH273459   1.288   3.339   0.066 -0.1568  0.2449  0.1281
17323TIP3    H173460   1.355   3.384   0.015  1.0536 -0.5499  0.9970
17323TIP3    H273461   1.206   3.382   0.041  0.5016  0.3450 -1.9490
17324TIP3   OH273462   4.203   2.929   4.864 -0.4907 -0.5253  0.0943
17324TIP3    H173463   4.277   2.987   4.849  0.4655 -1.2839  1.7835
17324TIP3    H273464   4.131   2.969   4.816  0.8522  0.5492 -1.0613
17325TIP3   OH273465   2.274   4.834  10.704 -0.7192 -0.4249 -0.3834
17325TIP3    H173466   2.317   4.917  10.726 -0.4062 -0.7831  0.3875
17325TIP3    H273467   2.308   4.810  10.618 -0.2956 -0.0959 -0.3038
17326TIP3   OH273468   4.327   0.876  13.891 -0.3937  0.2135  0.8937
17326TIP3    H173469   4.368   0.791  13.873 -0.9773  0.6345 -2.7933
17326TIP3    H273470   4.401   0.936  13.900 -0.0504  0.1785 -1.4087
17327TIP3   OH273471   5.859   5.099   1.517 -0.1455  0.1821  0.2006
17327TIP3    H173472   5.897   5.014   1.494 -1.9089 -0.4155 -0.5263
17327TIP3    H273473   5.888   5.158   1.448  0.9247  0.1513  0.6067
17328TIP3   OH273474   3.542   5.122   0.559  0.3453  0.1472 -0.2264
17328TIP3    H173475   3.512   5.212   0.540 -5.5847 -1.1995  1.6254
17328TIP3    H273476   3.558   5.122   0.653  2.0481 -0.3467 -0.5037
17329TIP3   OH273477   4.474   4.375  11.575 -0.0120 -0.2267  0.5018
17329TIP3    H173478   4.450   4.295  11.529  2.1825 -2.3165  2.8374
17329TIP3    H273479   4.423   4.372  11.657  1.6156 -0.2856  1.5303
17330TIP3   OH273480   0.368   3.151  16.400  0.5371 -0.6413 -1.0625
17330TIP3    H173481   0.445   3.185  16.445  0.7442 -0.9392 -1.1944
17330TIP3    H273482   0.369   3.193  16.314 -0.7692  1.2333 -0.2269
17331TIP3   OH273483   6.335   2.522   0.093  0.0491 -0.3240 -0.0480
17331TIP3    H173484   6.418   2.489   0.059  0.4502  0.0899  0.5284
17331TIP3    H273485   6.342   2.515   0.188  0.1323  1.3642  0.0954
17332TIP3   OH273486   2.390   2.050   6.537 -0.1949  0.2459  0.0633
17332TIP3    H173487   2.467   1.993   6.543  1.7986  2.7302 -1.3204
17332TIP3    H273488   2.403   2.115   6.606 -0.0263  1.8789 -1.4952
17333TIP3   OH273489   1.141   0.324   5.565  0.3225  0.4229  0.2891
17333TIP3    H173490   1.048   0.342   5.558  0.4457  0.2478 -2.1681
17333TIP3    H273491   1.178   0.353   5.482  2.0250 -2.0661  0.1280
17334TIP3   OH273492   3.487   5.011  11.318  0.5676 -0.4049  0.1800
17334TIP3    H173493   3.473   5.000  11.412 -1.3969 -2.7832 -0.3276
17334TIP3    H273494   3.511   5.103  11.307  0.6825 -0.0707  2.9786
17335TIP3   OH273495   5.008   4.368   3.918  0.0892 -0.1149  0.1100
17335TIP3    H173496   4.995   4.444   3.862  2.6398  0.6045  0.3991
17335TIP3    H273497   5.071   4.398   3.983 -0.3601 -1.9128  1.3979
17336TIP3   OH273498   4.015   5.275   1.830 -0.3209  0.0708  0.6032
17336TIP3    H173499   3.921   5.260   1.825 -0.0320 -1.9664  0.8132
17336TIP3    H273500   4.053   5.210   1.771  1.0116 -0.0394  1.5575
17337TIP3   OH273501   2.571   1.652  16.131  0.5070 -0.3322  0.1920
17337TIP3    H173502   2.485   1.694  16.124  0.5852 -0.3460 -0.9487
17337TIP3    H273503   2.592   1.656  16.225 -0.4692  0.1951  0.3967
17338TIP3   OH273504   5.132   4.773  16.391 -0.3180  0.3594 -0.4792
17338TIP3    H173505   5.109   4.681  16.379 -0.3422  0.4937 -1.4559
17338TIP3    H273506   5.085   4.800  16.470 -1.6231 -0.0105 -1.1180
17339TIP3   OH273507   6.308   1.491   5.147 -0.3620 -0.0458  0.1430
17339TIP3    H173508   6.278   1.498   5.238 -0.2104 -1.0962  0.2841
17339TIP3    H273509   6.385   1.434   5.152  0.1166  0.5298 -0.5515
17340TIP3   OH273510   1.518   2.807   4.522  0.6008 -0.3751 -0.3595
17340TIP3    H173511   1.501   2.842   4.434 -1.3555 -0.5919 -0.0967
17340TIP3    H273512   1.538   2.715   4.507  1.5590 -0.1169 -0.6874
17341TIP3   OH273513   6.073   5.331  13.127 -0.0536 -0.1160 -0.6541
17341TIP3    H173514   6.152   5.289  13.161 -0.8810 -0.8120  0.4511
17341TIP3    H273515   6.068   5.413  13.177 -0.9731 -0.8881  0.5543
17342TIP3   OH273516   1.178   1.135  15.111 -0.5113  0.5982  0.5309
17342TIP3    H173517   1.223   1.083  15.178 -0.5796  1.3529  1.1701
17342TIP3    H273518   1.218   1.107  15.029 -0.4226 -0.3394  0.8792
17343TIP3   OH273519   0.740   1.901  12.008  0.0678  0.8230  0.3377
17343TIP3    H173520   0.646   1.910  12.026 -0.0270  0.9584 -0.2254
17343TIP3    H273521   0.767   1.825  12.059 -0.4616  0.4560  0.0709
17344TIP3   OH273522   0.966   6.510  13.550 -0.0404 -0.4498 -0.0378
17344TIP3    H173523   0.963   6.557  13.466 -0.1694 -1.8589 -0.8328
17344TIP3    H273524   0.906   6.558  13.607  0.2862  0.7069 -0.6421
17345TIP3   OH273525   1.100   3.356  14.106  0.0425  0.6507  0.7575
17345TIP3    H173526   1.161   3.284  14.089 -0.6625  0.1086  0.4980
17345TIP3    H273527   1.076   3.388  14.019 -1.6015 -0.4629  0.7775
17346TIP3   OH273528   1.481   0.787   0.051 -0.2417 -0.1771  0.6558
17346TIP3    H173529   1.474   0.696   0.077  0.6333 -0.7461 -0.9851
17346TIP3    H273530   1.559   0.819   0.097  0.0116 -0.5309  0.4715
17347TIP3   OH273531   6.675   1.012  15.185 -0.2525 -0.2785  0.2333
17347TIP3    H173532   6.741   0.945  15.167 -0.6384 -1.3839  2.7628
17347TIP3    H273533   6.699   1.086  15.128  2.0824 -1.3366 -0.1909
17348TIP3   OH273534   6.709   2.714   5.344  0.1364 -0.0524 -0.2311
17348TIP3    H173535   6.793   2.745   5.378  0.4969 -0.6054 -0.6069
17348TIP3    H273536   6.705   2.749   5.255  0.6374 -1.2252 -0.7275
17349TIP3   OH273537   4.357   6.574  13.395 -0.5493  0.2494  0.0306
17349TIP3    H173538   4.306   6.644  13.352  0.6403 -1.0721 -3.7732
17349TIP3    H273539   4.431   6.560  13.336  0.3792 -2.7594  1.8427
17350TIP3   OH273540   3.703   2.139   4.391  0.1328  0.1635 -0.5209
17350TIP3    H173541   3.752   2.136   4.309  0.6367 -2.2420 -0.1651
17350TIP3    H273542   3.728   2.223   4.430  0.0815  1.2303 -2.6856
17351TIP3   OH273543   1.674   1.228  16.062 -0.0359 -0.6746 -0.4417
17351TIP3    H173544   1.644   1.139  16.079 -1.3934  0.0510  1.1053
17351TIP3    H273545   1.769   1.220  16.055  0.0374 -1.9726  1.5643
17352TIP3   OH273546   0.035   3.277   6.066  0.2529  0.2383  0.4521
17352TIP3    H173547   0.031   3.269   6.161  1.0329 -1.1522  0.3911
17352TIP3    H273548   0.129   3.273   6.046  0.1902  1.9688 -0.2743
17353TIP3   OH273549   2.287   0.520  14.884  0.1052  0.1227 -0.8845
17353TIP3    H173550   2.373   0.561  14.877 -0.4674  1.1147 -2.4814
17353TIP3    H273551   2.283   0.485  14.973  2.0375  0.3331 -0.7088
17354TIP3   OH273552   4.978   3.386  14.082  0.0868  0.3296 -0.0598
17354TIP3    H173553   4.995   3.475  14.049  1.1917  0.6811  1.4331
17354TIP3    H273554   5.012   3.329  14.013  3.2172  1.0571  0.8024
17355TIP3   OH273555   0.157   5.188  12.907 -0.2746 -0.0282  0.2944
17355TIP3    H173556   0.155   5.179  12.811 -1.4368  1.9102  0.1089
17355TIP3    H273557   0.105   5.114  12.939 -1.2397  0.2154 -0.6684
17356TIP3   OH273558   3.841   1.152  11.577  0.4220  0.3040 -0.1651
17356TIP3    H173559   3.762   1.113  11.539 -0.5766  1.2992  0.8337
17356TIP3    H273560   3.827   1.145  11.671  1.7425  0.0855  0.0177
17357TIP3   OH273561   0.613   4.457  15.439  0.7078  0.1997  0.2197
17357TIP3    H173562   0.575   4.413  15.363  1.6220  1.2596 -0.8903
17357TIP3    H273563   0.666   4.390  15.482  1.1917 -0.0907 -0.8079
17358TIP3   OH273564   6.706   2.621  13.478  0.2208 -0.1299  0.1513
17358TIP3    H173565   6.798   2.644  13.485 -0.2330  1.2602  2.1300
17358TIP3    H273566   6.676   2.611  13.569 -1.9709  1.1708 -0.3791
17359TIP3   OH273567   2.955   0.197   3.905  0.7202 -0.3497  0.3251
17359TIP3    H173568   2.996   0.222   3.988 -0.0005  0.3849  0.4689
17359TIP3    H273569   3.010   0.237   3.838  1.4002 -1.0832  0.4369
17360TIP3   OH273570   0.558   1.247  12.764  0.1800  0.6432 -0.2044
17360TIP3    H173571   0.495   1.305  12.805 -0.8574 -0.0525 -0.7960
17360TIP3    H273572   0.508   1.200  12.697  1.4750  0.5873 -1.1574
17361TIP3   OH273573   5.097   5.484  11.758 -0.1372  0.0585  0.2181
17361TIP3    H173574   5.139   5.513  11.677 -0.0808 -0.4770  0.0557
17361TIP3    H273575   5.060   5.564  11.795 -0.3760  0.2681 -0.4626
17362TIP3   OH273576   2.879   3.469   4.490 -0.0169  0.1547  0.3686
17362TIP3    H173577   2.855   3.463   4.582  2.4413  0.0767  1.0527
17362TIP3    H273578   2.967   3.506   4.491 -0.3854  1.1543 -2.0128
17363TIP3   OH273579   4.318   4.124   0.407 -0.2946 -0.4245 -0.0531
17363TIP3    H173580   4.341   4.124   0.314 -2.1862  1.1615 -0.5485
17363TIP3    H273581   4.245   4.062   0.414 -0.1961 -0.4970  0.3558
17364TIP3   OH273582   5.400   2.320   3.733 -0.4909 -0.1208 -0.3807
17364TIP3    H173583   5.433   2.302   3.646  0.7918  1.2876 -0.2048
17364TIP3    H273584   5.463   2.381   3.771 -0.2603 -1.8213  2.0687
17365TIP3   OH273585   4.489   0.234  10.494  0.5535 -0.4905  0.3523
17365TIP3    H173586   4.548   0.187  10.553  1.1059 -0.6800 -0.3467
17365TIP3    H273587   4.535   0.315  10.473  0.8696 -0.9331 -0.7156
17366TIP3   OH273588   1.181   4.388  14.647  0.0023 -0.0777 -0.4035
17366TIP3    H173589   1.210   4.337  14.572  1.6866  1.4349 -0.8033
17366TIP3    H273590   1.252   4.380  14.711 -0.9305 -0.4556  0.6132
17367TIP3   OH273591   0.086   0.798   1.731  0.0440  0.3285  0.2472
17367TIP3    H173592   0.163   0.810   1.675  1.5339 -0.1056  2.1437
17367TIP3    H273593   0.012   0.808   1.672  1.5681 -0.4347 -1.8725
17368TIP3   OH273594   5.943   5.754  15.420 -0.2278  0.5058 -0.0284
17368TIP3    H173595   6.014   5.777  15.480  0.3191  0.0024 -0.4764
17368TIP3    H273596   5.973   5.784  15.334 -0.8754  0.9520 -0.0988
17369TIP3   OH273597   2.370   2.797  11.529 -0.3681  0.4743 -0.1086
17369TIP3    H173598   2.413   2.864  11.476 -0.3026  2.4948  2.4102
17369TIP3    H273599   2.439   2.735  11.550 -0.4559 -0.4936 -2.5674
17370TIP3   OH273600   2.128   0.578   6.249  0.1187  0.4132 -0.5111
17370TIP3    H173601   2.149   0.503   6.193 -0.1769  0.3012 -0.4765
17370TIP3    H273602   2.108   0.649   6.187 -1.4121 -0.0455 -0.5772
17371TIP3   OH273603   0.047   3.829   2.855  0.3398  0.0414 -0.5025
17371TIP3    H173604   0.061   3.890   2.927 -1.5090  2.1756 -1.8921
17371TIP3    H273605  -0.038   3.790   2.872  1.4391 -2.1010  0.2906
17372TIP3   OH273606   2.931   6.159   5.831 -0.6761 -0.3018 -0.1691
17372TIP3    H173607   3.004   6.110   5.794 -0.9730 -0.0697 -1.0778
17372TIP3    H273608   2.924   6.128   5.921  1.5159  0.7725  0.4095
17373TIP3   OH273609   2.692   3.153  16.332  0.5703 -0.2749  0.1261
17373TIP3    H173610   2.702   3.186  16.243  1.4173 -1.2063 -0.1384
17373TIP3    H273611   2.648   3.224  16.379 -0.9584 -0.2395 -1.3181
17374TIP3   OH273612   1.436   3.071  15.136 -0.5045  0.3075 -0.2786
17374TIP3    H173613   1.350   3.031  15.125 -0.1995 -0.4260 -0.0959
17374TIP3    H273614   1.440   3.140  15.070 -1.1372  0.1825 -0.4484
17375TIP3   OH273615   3.415   3.417   2.338  0.2159  0.2001 -0.0202
17375TIP3    H173616   3.360   3.495   2.341  0.9094  0.6582  1.0326
17375TIP3    H273617   3.460   3.423   2.253  2.0241  2.2040  1.0106
17376TIP3   OH273618   0.808   5.223  11.702  0.6888 -0.1892 -0.8131
17376TIP3    H173619   0.769   5.178  11.777 -0.7391  1.6513 -0.4350
17376TIP3    H273620   0.802   5.159  11.631  0.1089 -1.1770  0.1056
17377TIP3   OH273621   5.287   6.585   6.543  0.0248 -0.1950 -0.0948
17377TIP3    H173622   5.258   6.573   6.452 -1.1366  1.0595  0.0958
17377TIP3    H273623   5.303   6.678   6.552 -0.4031 -0.2236  1.1424
17378TIP3   OH273624   5.785   6.058   4.002 -0.2838  0.4849 -0.3151
17378TIP3    H173625   5.857   6.097   3.953 -0.6648  0.0453 -1.2417
17378TIP3    H273626   5.815   5.970   4.023 -0.2085  0.5969  0.0410
17379TIP3   OH273627   2.183   1.437   3.045 -0.0442 -0.0980 -0.5195
17379TIP3    H173628   2.089   1.453   3.042 -0.2234 -0.1835  2.5178
17379TIP3    H273629   2.216   1.469   2.961 -2.5620  1.4289 -0.9777
17380TIP3   OH273630   0.883   2.674   3.583 -0.0289  0.3103  0.2076
17380TIP3    H173631   0.966   2.628   3.595  0.0287  0.2978 -0.2217
17380TIP3    H273632   0.906   2.767   3.591 -0.2019  0.2496  1.3964
17381TIP3   OH273633   2.563   2.438  15.716  0.2574 -0.6825  0.1921
17381TIP3    H173634   2.569   2.507  15.782 -2.3465  0.1899 -0.4143
17381TIP3    H273635   2.651   2.431  15.680  0.7128  1.8868  0.7263
17382TIP3   OH273636   3.704   4.293  11.806  0.1511 -0.0348  0.0776
17382TIP3    H173637   3.685   4.245  11.886 -1.7793 -0.9880 -0.9326
17382TIP3    H273638   3.645   4.256  11.741  2.0085  0.4290 -1.9105
17383TIP3   OH273639   2.675   4.021   1.965  0.1816 -0.3635  0.0857
17383TIP3    H173640   2.585   3.990   1.977  0.6268 -1.3341  0.9503
17383TIP3    H273641   2.679   4.050   1.874 -1.5359  1.4053  0.5412
17384TIP3   OH273642   2.402   0.851   1.763  0.4691  0.3511  0.5054
17384TIP3    H173643   2.435   0.853   1.853  0.1167  0.7139  0.6235
17384TIP3    H273644   2.372   0.761   1.751 -0.0886  0.4731  0.9686
17385TIP3   OH273645   0.372   1.412   0.301  0.2517  0.3096 -0.6447
17385TIP3    H173646   0.344   1.376   0.386  2.2913 -0.7015 -0.3696
17385TIP3    H273647   0.338   1.351   0.237 -0.4759  0.5624 -0.5131
17386TIP3   OH273648   6.325   3.509   4.831  0.3627 -0.2524  0.2298
17386TIP3    H173649   6.234   3.538   4.828  0.9433  1.4594 -2.4248
17386TIP3    H273650   6.332   3.445   4.759  1.1832 -0.5836  0.5956
17387TIP3   OH273651   1.202   5.420  15.695 -0.5379 -0.0755 -0.2312
17387TIP3    H173652   1.229   5.508  15.722  1.9072 -1.3135  1.5015
17387TIP3    H273653   1.156   5.434  15.612 -1.7190  3.0137  0.8535
17388TIP3   OH273654   5.198   0.943  11.622 -0.1597 -0.1282 -0.3392
17388TIP3    H173655   5.127   1.006  11.616 -1.0813 -1.2072 -1.0974
17388TIP3    H273656   5.251   0.958  11.543 -0.1177  0.0108 -0.2826
17389TIP3   OH273657   5.455   3.507  15.853  0.2263  0.5124  0.1489
17389TIP3    H173658   5.486   3.498  15.763 -0.5820 -0.6011 -0.0267
17389TIP3    H273659   5.369   3.464  15.853  0.2979  0.3671  1.4806
17390TIP3   OH273660   6.322   5.061   0.101  0.1430  0.3096  0.1973
17390TIP3    H173661   6.323   5.075   0.007 -0.3863 -0.9847 -0.0197
17390TIP3    H273662   6.405   5.018   0.120 -0.7067 -1.4725 -0.0362
17391TIP3   OH273663   3.766   4.133   0.108  0.4143  0.0792 -0.0452
17391TIP3    H173664   3.708   4.074   0.061 -0.4412  0.1732  0.8980
17391TIP3    H273665   3.749   4.219   0.069  0.0313  0.0813  0.1263
17392TIP3   OH273666   5.828   3.226  12.340  0.1338 -0.7524  0.4636
17392TIP3    H173667   5.755   3.174  12.373  3.1190 -2.6802  4.5224
17392TIP3    H273668   5.805   3.316  12.362 -1.9696 -1.1012 -0.2601
17393TIP3   OH273669   6.390   3.171  15.474 -0.1612  0.3159  1.0042
17393TIP3    H173670   6.347   3.237  15.529  1.2117  0.7679  1.5469
17393TIP3    H273671   6.441   3.222  15.411 -2.8493 -0.1325 -1.7249
17394TIP3   OH273672   5.140   1.140  12.248 -0.5151  0.6117  0.0878
17394TIP3    H173673   5.104   1.212  12.197 -0.2551  0.0738 -0.8675
17394TIP3    H273674   5.094   1.062  12.216 -0.2730  0.2485  0.6049
17395TIP3   OH273675   2.066   1.366  12.290  0.1955  0.7021  0.1342
17395TIP3    H173676   2.056   1.451  12.333 -0.3497 -0.1350  1.6999
17395TIP3    H273677   2.108   1.310  12.355  0.6042 -0.2235 -0.8962
17396TIP3   OH273678   5.823   0.664   5.796  0.2562 -0.1112  0.4237
17396TIP3    H173679   5.847   0.680   5.705  0.5762  0.5476  0.6205
17396TIP3    H273680   5.727   0.658   5.795  0.3769 -2.1000 -0.2613
17397TIP3   OH273681   6.517   3.584   3.679 -0.1298  0.0433  0.1989
17397TIP3    H173682   6.599   3.535   3.689 -0.8419 -1.0344  0.9657
17397TIP3    H273683   6.528   3.660   3.735  0.3758 -0.0624  0.2497
17398TIP3   OH273684   5.591   6.544   0.884 -0.4539 -0.0162 -0.3438
17398TIP3    H173685   5.602   6.609   0.815  1.0652 -0.1196 -0.2090
17398TIP3    H273686   5.536   6.588   0.949 -1.5777  0.2152 -1.4225
17399TIP3   OH273687   2.736   1.403  15.020 -0.0977  0.0716  0.2319
17399TIP3    H173688   2.819   1.447  15.002 -0.7530  1.2568  0.0729
17399TIP3    H273689   2.743   1.318  14.975  1.3477 -0.1883  0.9252
17400TIP3   OH273690   3.137   5.402   0.629 -0.1294  0.0169  0.2406
17400TIP3    H173691   3.052   5.390   0.586 -1.5599  1.4969  2.5475
17400TIP3    H273692   3.154   5.318   0.672  0.1891 -0.6839 -1.2191
17401TIP3   OH273693   2.296   6.783  12.846 -0.4305 -0.0600  0.1164
17401TIP3    H173694   2.227   6.741  12.898 -0.0579 -0.0923  0.5969
17401TIP3    H273695   2.377   6.764  12.895 -0.2962  1.4650  0.4936
17402TIP3   OH273696   0.350   3.465   0.527 -0.3856  0.1387 -0.1066
17402TIP3    H173697   0.360   3.540   0.586 -4.3027  0.8409 -0.1656
17402TIP3    H273698   0.328   3.392   0.585  1.2043 -0.4656 -0.2469
17403TIP3   OH273699   2.368   3.655   3.476  0.1609  0.1248  0.1723
17403TIP3    H173700   2.337   3.665   3.386  0.4178  0.2814  0.1023
17403TIP3    H273701   2.288   3.650   3.528  0.0154  0.3742 -0.0256
17404TIP3   OH273702   1.262   1.741  14.432  0.2881 -0.5001 -0.2898
17404TIP3    H173703   1.214   1.800  14.490 -0.3800  0.7576 -2.0874
17404TIP3    H273704   1.199   1.671  14.412  0.1433 -0.3380 -0.4028
17405TIP3   OH273705   0.312   1.849   5.530  0.9522  0.1452 -0.1757
17405TIP3    H173706   0.391   1.841   5.475  0.5724  2.7844 -1.1948
17405TIP3    H273707   0.346   1.860   5.619  1.7677  1.1369 -0.5886
17406TIP3   OH273708   4.586   3.401  12.168  0.2463  0.0571 -0.3136
17406TIP3    H173709   4.662   3.352  12.200  0.0613 -0.1366 -0.1729
17406TIP3    H273710   4.510   3.350  12.197  0.0300  0.7961  0.4541
17407TIP3   OH273711   1.516   6.421  16.684  0.2333  0.1209 -0.3803
17407TIP3    H173712   1.457   6.441  16.757  0.2306  1.3346 -0.7070
17407TIP3    H273713   1.603   6.420  16.724  0.2017  0.4525 -0.3034
17408TIP3   OH273714   2.477   3.046   0.710 -0.4883  0.4745 -0.2922
17408TIP3    H173715   2.567   3.076   0.724 -0.5768  0.6528 -0.1197
17408TIP3    H273716   2.423   3.121   0.730 -0.6374  0.6074 -1.1520
17409TIP3   OH273717   6.052   0.320  14.186  0.4729 -0.2228  0.7082
17409TIP3    H173718   6.028   0.375  14.112 -0.3023 -0.9089  0.4357
17409TIP3    H273719   6.145   0.339  14.201  0.7492 -0.3827 -0.7095
17410TIP3   OH273720   1.629   1.449   1.570  0.0159  0.7291 -0.0423
17410TIP3    H173721   1.633   1.373   1.629 -2.4982  2.0799  1.9903
17410TIP3    H273722   1.582   1.418   1.494  1.0629 -0.3626 -0.2613
17411TIP3   OH273723   5.488   1.818  12.556  0.3929  0.1489  0.2285
17411TIP3    H173724   5.568   1.861  12.586  0.7653 -0.5911  0.3083
17411TIP3    H273725   5.417   1.870  12.595  0.7861  1.5992 -0.9242
17412TIP3   OH273726   6.322   1.048  15.691  0.0256 -0.0259  0.0541
17412TIP3    H173727   6.353   1.131  15.726  1.2720  0.3081 -1.8260
17412TIP3    H273728   6.287   1.069  15.605 -1.0095 -1.2201  0.1669
17413TIP3   OH273729   0.708   0.007  12.303 -0.1109 -0.4057  0.0978
17413TIP3    H173730   0.690   0.087  12.353 -2.4739 -1.6345  1.2792
17413TIP3    H273731   0.788  -0.028  12.342  0.9390  1.3169 -0.4078
17414TIP3   OH273732   4.977   4.668   0.096 -0.1878  0.0749  0.1250
17414TIP3    H173733   4.890   4.707   0.093 -0.6437 -1.0055 -1.3714
17414TIP3    H273734   5.016   4.702   0.177 -2.2148  0.0920  1.1316
17415TIP3   OH273735   2.967   5.830   4.297 -0.0804  0.1821  0.4900
17415TIP3    H173736   3.033   5.787   4.351  0.9639  1.4309  0.2475
17415TIP3    H273737   2.996   5.815   4.207  0.7041  1.9587  0.4143
17416TIP3   OH273738   3.310   1.812   4.614  0.3348 -0.4943  0.2014
17416TIP3    H173739   3.276   1.772   4.534  1.8899  1.2981 -1.4086
17416TIP3    H273740   3.398   1.775   4.623  0.9316  0.8463 -0.0644
17417TIP3   OH273741   1.710   4.259   2.116  0.3664 -0.7101  0.5277
17417TIP3    H173742   1.624   4.251   2.074 -0.4415 -2.4806  2.4374
17417TIP3    H273743   1.761   4.186   2.080  0.0739 -1.4784  1.6384
17418TIP3   OH273744   2.659   5.160   3.161  0.0580 -0.8539 -0.3108
17418TIP3    H173745   2.564   5.149   3.151  0.0655 -0.5093 -0.7842
17418TIP3    H273746   2.669   5.217   3.237 -0.0804 -1.7353  0.3713
17419TIP3   OH273747   4.020   1.812   3.845 -0.5907  0.6653  0.0498
17419TIP3    H173748   3.969   1.806   3.926  1.4139 -0.0654  1.3056
17419TIP3    H273749   4.110   1.824   3.874  0.4276 -1.5175 -2.0192
17420TIP3   OH273750   3.030   4.800   0.735  0.5346  0.9430  0.3160
17420TIP3    H173751   2.968   4.736   0.770  0.5188  1.3932  1.1071
17420TIP3    H273752   3.096   4.746   0.691 -0.8772  0.4844 -1.3540
17421TIP3   OH273753   4.037   0.318   0.740  0.3610 -0.2486 -0.0094
17421TIP3    H173754   3.977   0.264   0.689  0.1671 -0.6837  0.6783
17421TIP3    H273755   4.069   0.383   0.677 -1.4725  0.5121 -0.1797
17422TIP3   OH273756   0.350   5.808  12.993  0.1949 -0.4141 -0.5226
17422TIP3    H173757   0.259   5.827  12.968  0.4783  0.9283 -0.5341
17422TIP3    H273758   0.402   5.871  12.944  1.0165 -0.1053  0.7344
17423TIP3   OH273759   1.054   5.872   2.318  0.2723 -0.1092  0.0719
17423TIP3    H173760   1.051   5.836   2.406 -2.6565  0.9064  0.4464
17423TIP3    H273761   1.147   5.889   2.302  0.7889  0.2870  3.1905
17424TIP3   OH273762   3.779   1.737  16.504  0.3654 -0.8044  0.2003
17424TIP3    H173763   3.716   1.687  16.452 -0.8734  1.7911 -0.8672
17424TIP3    H273764   3.742   1.825  16.510  2.4497  0.0037  2.0946
17425TIP3   OH273765   1.894   1.469   1.101  0.2980 -0.1058  0.0565
17425TIP3    H173766   1.967   1.455   1.161  0.7657  0.9152 -0.2655
17425TIP3    H273767   1.828   1.515   1.153  0.5841  0.5137 -0.1220
17426TIP3   OH273768   4.069   2.768  14.193  0.1753  0.1737 -0.3107
17426TIP3    H173769   4.123   2.767  14.272 -0.8258  2.2511  0.4394
17426TIP3    H273770   3.981   2.787  14.225 -0.6917 -1.3279 -1.7088
17427TIP3   OH273771   6.354   2.974   1.232 -0.4599 -0.1950 -0.1123
17427TIP3    H173772   6.445   2.999   1.250  0.1161 -2.0252 -0.4536
17427TIP3    H273773   6.318   3.050   1.186  0.9232  0.4885 -0.1093
17428TIP3   OH273774   6.140   0.633  15.493  0.0273 -0.0633  0.3418
17428TIP3    H173775   6.105   0.697  15.555  0.0542 -0.5980  0.9035
17428TIP3    H273776   6.208   0.682  15.445 -0.7718  0.6756 -0.0509
17429TIP3   OH273777   5.061   5.735  13.590 -0.0814 -0.4959 -0.0254
17429TIP3    H173778   4.984   5.790  13.576 -0.0465 -0.2784  0.6340
17429TIP3    H273779   5.031   5.665  13.648  0.7697  0.8489  2.0997
17430TIP3   OH273780   4.319   2.601  15.803  0.3540  0.1097 -0.7008
17430TIP3    H173781   4.311   2.658  15.880  1.9916 -0.9261  0.2748
17430TIP3    H273782   4.229   2.587  15.774 -0.0588  3.4140 -1.1369
17431TIP3   OH273783   5.596   4.269  12.073 -0.5602  0.0372  0.2665
17431TIP3    H173784   5.552   4.290  12.155 -0.2548 -0.4641  0.5613
17431TIP3    H273785   5.677   4.319  12.076 -0.8393  0.5104 -0.0169
17432TIP3   OH273786   5.150   6.743  15.532  0.1200  0.5157  0.1167
17432TIP3    H173787   5.175   6.660  15.572 -1.4254 -0.5576 -1.1345
17432TIP3    H273788   5.198   6.745  15.449 -1.1650  0.0896 -0.6386
17433TIP3   OH273789   2.854   2.087   6.216 -0.1314 -0.3627 -0.0719
17433TIP3    H173790   2.948   2.086   6.237 -0.3279  0.5044  0.9481
17433TIP3    H273791   2.845   2.158   6.152 -0.4227  1.2386  1.6837
17434TIP3   OH273792   0.669   2.678   3.776  0.2447 -0.0505  0.3765
17434TIP3    H173793   0.700   2.640   3.693  2.2545 -2.7069  2.2592
17434TIP3    H273794   0.742   2.733   3.806 -0.7795  1.5110  0.0234
17435TIP3   OH273795   2.988   4.353   5.635  0.0905  0.0400 -0.1364
17435TIP3    H173796   2.958   4.441   5.614 -0.8179 -0.5563 -1.3671
17435TIP3    H273797   2.908   4.301   5.643  0.2727  0.3173  5.5324
17436TIP3   OH273798   3.768   0.546  13.523  0.0141 -0.0366  0.2865
17436TIP3    H173799   3.709   0.548  13.598  0.9073 -0.6046  1.0174
17436TIP3    H273800   3.809   0.633  13.523  0.4324 -0.2345  0.7962
17437TIP3   OH273801   2.212   3.070  14.725  0.2561 -0.0903  0.2900
17437TIP3    H173802   2.279   3.137  14.728  0.2503 -0.1329  1.3598
17437TIP3    H273803   2.250   2.995  14.770  0.2960 -0.8467 -0.9727
17438TIP3   OH273804   6.503   1.510   5.773  0.1819  0.5477 -0.4397
17438TIP3    H173805   6.538   1.449   5.708  2.0330  2.6524 -1.5012
17438TIP3    H273806   6.408   1.493   5.773  0.6724 -2.4782 -0.4648
17439TIP3   OH273807   6.487   1.332  13.129 -0.5755 -0.0665 -0.0454
17439TIP3    H173808   6.484   1.322  13.224  3.1074  0.6273  0.1907
17439TIP3    H273809   6.461   1.246  13.095 -1.6846 -0.3837  1.5443
17440TIP3   OH273810   1.030   3.463   5.737  0.6337  0.3169 -0.5194
17440TIP3    H173811   0.960   3.452   5.801  1.5527  1.4117  0.6867
17440TIP3    H273812   0.998   3.529   5.676 -0.6133 -1.3773 -1.7466
17441TIP3   OH273813   4.420   0.085  16.484  0.1570 -0.2619 -0.2220
17441TIP3    H173814   4.426   0.037  16.402 -0.2094  0.5358 -0.7275
17441TIP3    H273815   4.410   0.177  16.457 -0.4801 -0.0531  0.7022
17442TIP3   OH273816   3.555   5.789  12.467  0.2780 -0.1069 -0.0035
17442TIP3    H173817   3.646   5.780  12.438  0.1552 -0.2119 -0.3562
17442TIP3    H273818   3.540   5.712  12.522  0.1879 -0.4592 -0.5135
17443TIP3   OH273819   5.443   1.099   3.523 -0.3275  0.1559 -0.1155
17443TIP3    H173820   5.391   1.035   3.571 -0.1816 -0.2280 -0.4717
17443TIP3    H273821   5.407   1.184   3.549  0.0392 -0.0266  1.0113
17444TIP3   OH273822   1.048   5.790   1.903  0.2897 -0.4296  0.0816
17444TIP3    H173823   0.995   5.750   1.835  0.1521 -4.0964  2.1976
17444TIP3    H273824   0.986   5.813   1.972  0.8128  0.2855  0.3277
17445TIP3   OH273825   3.388   3.342   5.037 -1.0799 -0.0384  0.1381
17445TIP3    H173826   3.421   3.263   4.994  0.5882  0.5267  0.3539
17445TIP3    H273827   3.334   3.384   4.969  0.1588 -0.0213 -0.8579
17446TIP3   OH273828   2.816   5.912  13.027 -0.0269  0.3153  0.0827
17446TIP3    H173829   2.858   5.861  13.096 -0.2134  1.0454  0.7418
17446TIP3    H273830   2.885   5.970  12.994 -0.0583  0.2858 -0.0362
17447TIP3   OH273831   2.692   0.855   4.903 -0.0809 -0.0516 -0.1947
17447TIP3    H173832   2.752   0.846   4.977  0.9168  0.0080 -0.9902
17447TIP3    H273833   2.677   0.949   4.895 -1.7536 -0.1702  1.1520
17448TIP3   OH273834   3.332   0.998   2.602  0.4465  0.3156  0.1297
17448TIP3    H173835   3.382   1.033   2.676  0.6920  1.4334 -0.5448
17448TIP3    H273836   3.249   0.971   2.640 -0.1592  2.6266  0.5217
17449TIP3   OH273837   2.360   6.083  12.822 -0.0858  0.6680  0.2260
17449TIP3    H173838   2.331   6.125  12.741  1.8509 -0.9461 -1.3613
17449TIP3    H273839   2.450   6.113  12.833 -0.4885  1.2272  2.0408
17450TIP3   OH273840   4.695   1.273  12.038  0.2747  0.1951  0.3921
17450TIP3    H173841   4.696   1.183  12.071  1.0454  0.5904  1.4885
17450TIP3    H273842   4.602   1.295  12.031  0.0887 -0.4952  0.6735
17451TIP3   OH273843   2.769   0.660   0.608 -0.2977 -0.1983 -0.2490
17451TIP3    H173844   2.849   0.676   0.657 -0.3904 -2.1144  0.5951
17451TIP3    H273845   2.789   0.586   0.551 -0.8810  0.5634 -1.4675
17452TIP3   OH273846   1.026   4.114  11.134  0.2850 -0.0833  0.7065
17452TIP3    H173847   1.105   4.150  11.176  0.6921  0.0073 -0.1338
17452TIP3    H273848   0.955   4.135  11.195  1.0148 -0.8017  1.8104
17453TIP3   OH273849   3.902   6.084  13.714  0.3333  0.3347 -0.0993
17453TIP3    H173850   3.889   5.991  13.698 -1.8197  0.6358 -0.3612
17453TIP3    H273851   3.872   6.098  13.804 -2.7271  1.3283 -1.2069
17454TIP3   OH273852   2.257   2.582   4.767  0.0008 -0.3298  0.0419
17454TIP3    H173853   2.165   2.595   4.746  0.5230  0.3176 -1.9682
17454TIP3    H273854   2.292   2.670   4.781  0.9640 -0.3104 -2.2109
17455TIP3   OH273855   2.962   1.984   2.694 -0.2158  0.1055  0.1635
17455TIP3    H173856   3.031   1.972   2.759 -1.5222  0.1070  1.5592
17455TIP3    H273857   2.894   1.921   2.718  0.1101 -1.2743 -2.3499
17456TIP3   OH273858   3.586   1.601   2.419  0.1172  0.1377 -0.0547
17456TIP3    H173859   3.508   1.615   2.472 -0.4892  1.3857 -1.2400
17456TIP3    H273860   3.603   1.507   2.425 -0.3523  0.1510  1.7428
17457TIP3   OH273861   2.582   1.085  17.064 -0.0274 -0.4049 -0.4665
17457TIP3    H173862   2.563   1.016  17.001  0.5546 -1.3582  0.3942
17457TIP3    H273863   2.674   1.073  17.086  0.2797  1.1086 -0.8639
17458TIP3   OH273864   4.209   3.752   0.104  0.1931 -0.1517 -0.1405
17458TIP3    H173865   4.292   3.798   0.091 -0.2240 -0.0206 -2.4747
17458TIP3    H273866   4.215   3.676   0.045  0.0931 -2.0880  2.2678
17459TIP3   OH273867   0.140   5.838   3.664 -0.0692  0.0720 -0.6158
17459TIP3    H173868   0.152   5.845   3.569 -1.3093  2.2384 -0.6260
17459TIP3    H273869   0.046   5.847   3.677  0.0541 -0.5926  0.8115
17460TIP3   OH273870   0.652   0.587  16.070 -0.1703 -0.4371  0.3753
17460TIP3    H173871   0.628   0.535  16.147 -0.7043  0.0195  0.5155
17460TIP3    H273872   0.637   0.677  16.096 -2.9023 -0.4199 -1.1576
17461TIP3   OH273873   5.777   4.942   5.427 -1.0787  0.4976  0.1311
17461TIP3    H173874   5.719   4.959   5.502  0.7276  3.0352  1.0337
17461TIP3    H273875   5.821   4.860   5.449 -2.1388  0.1059  0.8484
17462TIP3   OH273876   2.078   4.458   0.750  0.4342  0.1404  0.4555
17462TIP3    H173877   1.993   4.416   0.764  0.6527  0.1869  2.1142
17462TIP3    H273878   2.059   4.535   0.697 -0.4121 -0.4205 -0.0526
17463TIP3   OH273879   0.022   6.083   4.243  0.1898  0.0478 -0.2887
17463TIP3    H173880   0.037   6.032   4.322 -0.1354 -0.2334 -0.4054
17463TIP3    H273881  -0.029   6.025   4.187  1.5735 -0.2526 -1.2593
17464TIP3   OH273882   2.208   5.923   6.722 -0.3693  0.0960  0.0867
17464TIP3    H173883   2.199   5.977   6.644 -0.3765 -0.1953 -0.1136
17464TIP3    H273884   2.301   5.930   6.746 -0.2135 -0.3960 -0.3664
17465TIP3   OH273885   6.164   0.634   1.596  0.2390 -0.0942 -0.2314
17465TIP3    H173886   6.146   0.689   1.672  2.1562  0.1236  0.0934
17465TIP3    H273887   6.114   0.674   1.524 -0.3170  0.6289  0.5511
17466TIP3   OH273888   3.806   3.680   0.811 -0.7356 -0.0926  0.0658
17466TIP3    H173889   3.880   3.663   0.752 -1.8143 -1.1300 -1.0397
17466TIP3    H273890   3.738   3.717   0.754 -0.6098  2.1801  1.3219
17467TIP3   OH273891   5.914   0.046   5.734  0.5336 -0.4420  0.1216
17467TIP3    H173892   5.982   0.070   5.798  0.8731 -0.9123 -0.0585
17467TIP3    H273893   5.838   0.022   5.788  0.1452  1.1289  0.3015
17468TIP3   OH273894   4.792   3.919  14.893 -0.0193 -0.3832 -0.5961
17468TIP3    H173895   4.730   3.884  14.830  0.2187 -0.8509 -0.5746
17468TIP3    H273896   4.738   3.960  14.961 -0.2558  0.8155 -1.4934
17469TIP3   OH273897   2.617   2.008  16.115 -0.3129 -0.5099  0.2726
17469TIP3    H173898   2.537   2.043  16.076  0.3779 -0.8664 -1.5259
17469TIP3    H273899   2.646   1.940  16.054  1.2638 -0.5048  0.9833
17470TIP3   OH273900   2.900   1.628  12.442 -1.4533 -0.6317  0.4482
17470TIP3    H173901   2.808   1.628  12.415 -0.7636 -0.6501 -2.0374
17470TIP3    H273902   2.947   1.663  12.366  0.3078  2.3067  2.8203
17471TIP3   OH273903   4.353   3.730  13.288  0.1752 -0.2412 -0.0571
17471TIP3    H173904   4.369   3.706  13.196  1.0318  0.6873 -0.1536
17471TIP3    H273905   4.321   3.820  13.284  0.7750  0.0003  0.6074
17472TIP3   OH273906   6.075   3.257   4.619 -0.2763 -0.5504  0.1550
17472TIP3    H173907   5.986   3.226   4.639 -0.2949 -2.0418 -2.0149
17472TIP3    H273908   6.075   3.348   4.647 -2.1062 -0.8687  1.3286
17473TIP3   OH273909   4.919   1.098  12.498  0.3539 -0.4479 -0.2585
17473TIP3    H173910   4.907   1.025  12.559  0.0207  0.4161  0.7224
17473TIP3    H273911   5.009   1.128  12.513  0.7593 -1.1593 -1.2256
17474TIP3   OH273912   1.922   2.491  16.050  0.4794 -0.5201  0.0613
17474TIP3    H173913   1.941   2.496  15.956 -1.3254  0.9038 -0.2672
17474TIP3    H273914   1.941   2.401  16.074 -0.1406 -1.2117 -1.9461
17475TIP3   OH273915   2.138   4.762  10.946  0.4328  0.2536 -0.7553
17475TIP3    H173916   2.200   4.762  10.872  0.7858 -0.0210 -0.4611
17475TIP3    H273917   2.068   4.821  10.918 -1.4335 -2.8762 -2.9958
17476TIP3   OH273918   3.916   2.103   5.718  0.0236  0.2453 -0.3145
17476TIP3    H173919   3.922   2.112   5.623  0.5727 -0.2722 -0.3266
17476TIP3    H273920   3.922   2.009   5.734 -1.3082  0.2280  0.1431
17477TIP3   OH273921   4.684   5.866   3.185  0.0371 -0.9593 -0.0705
17477TIP3    H173922   4.644   5.952   3.174  0.5772 -0.8633 -1.2924
17477TIP3    H273923   4.659   5.817   3.107  1.9085 -1.0491 -0.6333
17478TIP3   OH273924   1.130   2.685   0.235  0.3407 -0.2845  0.4746
17478TIP3    H173925   1.068   2.633   0.286 -0.1302 -1.9668 -1.7643
17478TIP3    H273926   1.075   2.751   0.191 -0.0156 -2.2435 -2.0999
17479TIP3   OH273927   4.968   1.473  10.774  0.4459  0.5540 -0.0114
17479TIP3    H173928   4.999   1.436  10.857 -0.0869  0.7045  0.2533
17479TIP3    H273929   5.005   1.415  10.707 -0.4907 -0.5380  0.4116
17480TIP3   OH273930   1.694   0.190  12.957 -0.4415 -0.2086  0.4323
17480TIP3    H173931   1.784   0.182  12.925 -0.3540 -1.0232  0.8653
17480TIP3    H273932   1.660   0.267  12.913  0.4739  0.1104  0.2656
17481TIP3   OH273933   5.477   1.897   3.324 -0.6045  0.2413  0.3805
17481TIP3    H173934   5.499   1.808   3.353 -0.5366  0.1416  0.0324
17481TIP3    H273935   5.485   1.893   3.229 -0.5131  0.6461  0.3713
17482TIP3   OH273936   4.338   3.980  12.736 -0.1618 -0.3653  0.1930
17482TIP3    H173937   4.394   3.904  12.749 -0.7369 -0.7379  0.5018
17482TIP3    H273938   4.259   3.960  12.785 -0.2007  0.5593  0.5136
17483TIP3   OH273939   2.073   4.720  14.130 -0.4840 -0.2193  0.6321
17483TIP3    H173940   2.159   4.727  14.089  0.6522 -0.9369  2.8348
17483TIP3    H273941   2.013   4.705  14.057  1.4072 -0.9679 -0.8061
17484TIP3   OH273942   2.670   1.984   6.500  0.0869 -0.2290 -0.4590
17484TIP3    H173943   2.674   1.970   6.406 -0.9253  1.2449 -0.7386
17484TIP3    H273944   2.761   1.975   6.529  0.7331  1.3024 -1.8933
17485TIP3   OH273945   3.147   2.144   0.354  0.3444 -0.3254 -0.3071
17485TIP3    H173946   3.226   2.181   0.394 -0.1272  0.7964 -0.3993
17485TIP3    H273947   3.075   2.185   0.401 -0.2086 -0.0094 -1.4186
17486TIP3   OH273948   0.567   1.132   6.021  0.2816 -0.1444  0.3166
17486TIP3    H173949   0.622   1.159   5.948 -1.2326 -0.5183 -1.0130
17486TIP3    H273950   0.491   1.191   6.016  0.5029  0.3060  2.0456
17487TIP3   OH273951   5.837   0.434  16.731  0.3507  0.0651 -0.3379
17487TIP3    H173952   5.802   0.438  16.820 -1.0895 -0.8932 -0.8409
17487TIP3    H273953   5.922   0.389  16.741  1.3959  2.2274  0.8561
17488TIP3   OH273954   5.954   0.369  15.760 -0.3927  0.6564  0.4224
17488TIP3    H173955   5.943   0.320  15.842  0.6437 -1.4393 -0.6489
17488TIP3    H273956   5.962   0.460  15.788 -1.1994  0.1129  2.5667
17489TIP3   OH273957   3.222   6.591  14.163 -0.1302 -0.7953  0.0950
17489TIP3    H173958   3.162   6.569  14.091 -1.4721 -1.5618  1.4313
17489TIP3    H273959   3.306   6.608  14.119 -0.6385 -2.3449 -1.5482
17490TIP3   OH273960   2.826   2.878  11.976 -0.3328  0.5600  0.0708
17490TIP3    H173961   2.882   2.956  11.976  1.4828 -0.6518 -2.4134
17490TIP3    H273962   2.814   2.858  12.069  3.8510  0.5885  0.7343
17491TIP3   OH273963   4.914   5.120  13.699 -0.9093 -0.6129 -0.1563
17491TIP3    H173964   4.937   5.133  13.608 -1.3396 -1.5363 -0.4034
17491TIP3    H273965   4.997   5.113  13.745 -0.5334  4.8247  0.3164
17492TIP3   OH273966   1.599   6.375   0.140 -0.4766  0.4803  0.0435
17492TIP3    H173967   1.694   6.381   0.126 -0.3693  0.3766  0.7158
17492TIP3    H273968   1.581   6.282   0.147 -0.9593  0.3666 -2.2461
17493TIP3   OH273969   0.658   3.672  14.510  0.2479 -0.1322 -0.2846
17493TIP3    H173970   0.673   3.637  14.423 -0.1193 -1.5116  0.1953
17493TIP3    H273971   0.746   3.681  14.548  0.3567 -0.3732 -0.4764
17494TIP3   OH273972   6.654   6.010   2.109 -0.3256  0.2224  0.0770
17494TIP3    H173973   6.711   6.088   2.110 -0.0595  0.0214  0.7673
17494TIP3    H273974   6.698   5.948   2.167 -0.7729 -0.2810 -0.1252
17495TIP3   OH273975   2.452   2.345   4.265  0.0023 -0.6638 -0.0493
17495TIP3    H173976   2.542   2.316   4.252 -0.1968 -0.5375 -1.8448
17495TIP3    H273977   2.457   2.441   4.256 -0.5323 -0.7696 -1.7768
17496TIP3   OH273978   6.418   1.604   0.147  0.6065 -0.3439  0.4941
17496TIP3    H173979   6.452   1.693   0.157 -0.7169  0.0093  2.1702
17496TIP3    H273980   6.323   1.614   0.153  0.4951 -1.9985  1.9129
17497TIP3   OH273981   0.656   1.459   0.314 -0.2762  0.0580 -0.1441
17497TIP3    H173982   0.572   1.423   0.286 -0.8307 -2.0910  3.8670
17497TIP3    H273983   0.633   1.529   0.375  0.8758  1.5441 -1.3709
17498TIP3   OH273984   4.264   2.843  11.837  0.2085  0.4601  0.3808
17498TIP3    H173985   4.186   2.898  11.842 -0.3197 -0.0090 -2.0547
17498TIP3    H273986   4.332   2.901  11.802  0.2846  0.2090  0.1091
17499TIP3   OH273987   1.948   5.759   5.768 -0.2167  0.3072 -0.1581
17499TIP3    H173988   2.023   5.812   5.742  0.1338  1.1873  2.4840
17499TIP3    H273989   1.976   5.669   5.754  0.1821  0.7176 -2.1063
17500TIP3   OH273990   3.940   1.756  12.923 -0.2590 -0.5249  0.1551
17500TIP3    H173991   3.868   1.808  12.885 -0.6822 -0.6823  0.7420
17500TIP3    H273992   3.911   1.736  13.012  0.3899 -0.8357  0.2984
17501TIP3   OH273993   0.310   5.280  14.131  0.3168  0.1573  0.2123
17501TIP3    H173994   0.313   5.352  14.194  0.2092 -1.5158  2.1951
17501TIP3    H273995   0.241   5.222  14.165  0.8420 -1.1915 -0.9805
17502TIP3   OH273996   5.816   5.362   3.072  0.5893  0.2398 -0.4063
17502TIP3    H173997   5.780   5.276   3.094  0.7734  0.4222  0.6382
17502TIP3    H273998   5.902   5.344   3.035  0.5597 -0.0410 -0.3348
17503TIP3   OH273999   0.554   5.820   0.876  0.1190  0.2961  0.3716
17503TIP3    H174000   0.502   5.867   0.810  0.9340  0.5266 -0.1169
17503TIP3    H274001   0.643   5.822   0.841  0.0721 -2.1655  0.0131
17504TIP3   OH274002   1.916   3.287   0.531  0.2884  0.5162 -0.0407
17504TIP3    H174003   2.001   3.284   0.576 -0.2413  0.4752  0.9706
17504TIP3    H274004   1.932   3.245   0.447  1.0378 -0.4008  0.5514
17505TIP3   OH274005   0.790   4.782   3.620  0.6363 -0.2487  0.0223
17505TIP3    H174006   0.864   4.741   3.665 -0.8934 -1.1652  1.7323
17505TIP3    H274007   0.739   4.708   3.585  0.0036  0.3482 -0.3285
17506TIP3   OH274008   2.382   4.669   0.565  0.2025  0.1848  0.0496
17506TIP3    H174009   2.350   4.674   0.475  1.1738  0.8357 -0.2737
17506TIP3    H274010   2.309   4.700   0.618 -0.2644  0.1066 -0.5371
17507TIP3   OH274011   2.481   1.115  11.241 -0.2255 -0.3941 -0.2716
17507TIP3    H174012   2.412   1.152  11.185  0.1397 -0.5283 -0.8100
17507TIP3    H274013   2.503   1.031  11.201  0.0059 -0.5116  0.0982
17508TIP3   OH274014   2.670   0.148   1.668  0.8721 -0.6355 -0.0555
17508TIP3    H174015   2.738   0.106   1.722  1.0005  0.1404  0.4011
17508TIP3    H274016   2.715   0.171   1.587  1.1710 -0.0991  0.2574
17509TIP3   OH274017   0.192   2.831  15.825 -0.6966  0.4954  0.4411
17509TIP3    H174018   0.163   2.760  15.883  2.6293 -1.2630  0.0877
17509TIP3    H274019   0.127   2.831  15.754 -1.8077 -0.9254  1.4125
17510TIP3   OH274020   3.992   6.653   4.501  0.3768  0.6002  0.0842
17510TIP3    H174021   4.008   6.727   4.442  1.6429 -1.1621 -1.8533
17510TIP3    H274022   4.053   6.585   4.471 -2.9360 -2.3645 -0.2628
17511TIP3   OH274023   4.050   5.029  14.141 -0.3570 -0.1153  0.4853
17511TIP3    H174024   4.036   5.054  14.049  0.4407 -0.3492  0.2929
17511TIP3    H274025   3.968   5.049  14.184 -0.3543  1.1136 -0.0468
17512TIP3   OH274026   6.061   4.453   5.285  0.1736 -0.4474  0.0745
17512TIP3    H174027   6.018   4.418   5.207 -1.9717  1.2185  0.4434
17512TIP3    H274028   6.074   4.546   5.265 -2.3715  0.4942  2.4505
17513TIP3   OH274029   3.222   3.365   2.690  0.0242 -0.0305  0.0966
17513TIP3    H174030   3.312   3.334   2.676  0.1399  0.1069  0.5336
17513TIP3    H274031   3.230   3.460   2.697 -0.1346 -0.0331  0.3052
17514TIP3   OH274032   5.643   1.525  13.316  0.1518 -0.0190  0.0323
17514TIP3    H174033   5.677   1.566  13.396  0.8902  0.6525 -0.6174
17514TIP3    H274034   5.565   1.576  13.294 -0.4725 -0.6551  0.7133
17515TIP3   OH274035   5.625   6.113  14.788  0.7520  0.6960 -0.6437
17515TIP3    H174036   5.626   6.022  14.759 -0.7712  0.9484 -1.5422
17515TIP3    H274037   5.693   6.118  14.855 -0.3177 -1.5119  0.6625
17516TIP3   OH274038   2.221   0.971  11.341 -0.2944 -0.6590  0.7238
17516TIP3    H174039   2.247   1.044  11.398  0.6374 -0.6285  0.2722
17516TIP3    H274040   2.126   0.979  11.332  0.0258  1.7072 -0.9732
17517TIP3   OH274041   6.518   1.684   2.844 -0.0307 -0.7095  0.0788
17517TIP3    H174042   6.453   1.729   2.898 -1.2547 -0.2363 -1.7400
17517TIP3    H274043   6.476   1.675   2.758  2.0703 -0.9417 -0.9584
17518TIP3   OH274044   0.772   3.537  17.057  0.3204  0.2437  0.1014
17518TIP3    H174045   0.851   3.589  17.039 -0.4171  1.4684  0.3522
17518TIP3    H274046   0.751   3.556  17.148 -0.1369 -0.2511  0.1006
17519TIP3   OH274047   0.581   3.730  16.175  0.4539 -0.1932 -0.0758
17519TIP3    H174048   0.562   3.714  16.268  1.4943  0.6069  0.2808
17519TIP3    H274049   0.625   3.651  16.145 -0.0432 -0.5262  0.0562
17520TIP3   OH274050   2.968   2.678  12.994  0.5828 -0.1690 -0.2718
17520TIP3    H174051   2.898   2.657  13.056  0.5889  0.6292 -0.0020
17520TIP3    H274052   2.998   2.765  13.019  1.3465 -0.3051 -0.6966
17521TIP3   OH274053   1.143   3.123  17.138 -0.2820  0.5801 -0.0298
17521TIP3    H174054   1.127   3.105  17.045  0.7978  1.6947 -0.4375
17521TIP3    H274055   1.213   3.063  17.162 -1.5141 -0.7058  0.4510
17522TIP3   OH274056   5.905   0.552   3.538 -0.0747 -0.0340  1.0217
17522TIP3    H174057   5.935   0.586   3.622  1.3940 -0.3027  0.6217
17522TIP3    H274058   5.837   0.613   3.510 -0.1888  0.3554  2.1478
17523TIP3   OH274059   5.760   2.590   0.599  0.7416 -0.1087  0.4107
17523TIP3    H174060   5.854   2.595   0.582  0.6771  1.5166  0.4363
17523TIP3    H274061   5.722   2.658   0.543 -0.3440 -0.3605  0.8350
17524TIP3   OH274062   2.396   3.545   5.239  0.3486  0.3987 -0.2343
17524TIP3    H174063   2.344   3.465   5.247  1.6019 -0.4327 -0.1216
17524TIP3    H274064   2.486   3.516   5.256  0.6412  2.0989  1.2494
17525TIP3   OH274065   0.065   3.895   1.440  0.7501 -0.0606 -0.2421
17525TIP3    H174066  -0.005   3.918   1.501  1.3603 -1.9751  1.2405
17525TIP3    H274067   0.020   3.884   1.355 -0.5270  0.0191  0.4114
17526TIP3   OH274068   3.590   5.712   4.383 -0.9380 -0.3694 -0.4719
17526TIP3    H174069   3.658   5.666   4.433  1.0866  1.8215 -1.1112
17526TIP3    H274070   3.572   5.791   4.434 -0.5219  0.7400 -2.0024
17527TIP3   OH274071   2.247   6.381   3.795  0.2419 -0.2151  0.1051
17527TIP3    H174072   2.270   6.303   3.745  0.4891 -0.0302 -0.0757
17527TIP3    H274073   2.243   6.351   3.886  1.3509 -0.2308  0.1617
17528TIP3   OH274074   4.534   6.405  17.043  0.5574 -0.8048  0.2960
17528TIP3    H174075   4.446   6.405  17.083  0.5579  0.6030  0.3418
17528TIP3    H274076   4.593   6.394  17.117  0.4758 -0.2075  0.4547
17529TIP3   OH274077   3.634   5.539  11.986 -0.4794 -0.3781  0.0450
17529TIP3    H174078   3.655   5.590  12.064 -0.3972 -0.2382 -0.0690
17529TIP3    H274079   3.602   5.455  12.020 -1.9567  0.2468  0.2605
17530TIP3   OH274080   6.497   1.443   2.184 -0.2081  0.0223  0.1800
17530TIP3    H174081   6.493   1.536   2.159  0.6823  1.1537  3.9621
17530TIP3    H274082   6.406   1.416   2.191 -0.4774  0.7060 -0.5631
17531TIP3   OH274083   0.807   1.430   1.961 -0.3517  0.0794 -0.0303
17531TIP3    H174084   0.842   1.429   2.050 -0.9966 -1.8267  0.2113
17531TIP3    H274085   0.828   1.518   1.929  1.3908  0.2183  1.3852
17532TIP3   OH274086   4.579   1.878   2.262 -0.4321  0.1385 -0.2117
17532TIP3    H174087   4.610   1.916   2.345 -0.7119  0.6100 -0.3179
17532TIP3    H274088   4.622   1.793   2.257  0.7120  0.7038 -0.2800
17533TIP3   OH274089   2.759   6.006   1.518  0.2615  0.2229 -0.4118
17533TIP3    H174090   2.802   6.088   1.543 -0.4016  0.5189 -0.2402
17533TIP3    H274091   2.666   6.027   1.517  0.0822 -0.5548 -0.2786
17534TIP3   OH274092   5.056   2.859   5.166 -0.1528 -0.3094 -0.1397
17534TIP3    H174093   5.091   2.948   5.162  1.1949 -0.8539 -0.8388
17534TIP3    H274094   4.988   2.863   5.234 -1.6152  1.7307 -1.6755
17535TIP3   OH274095   0.489   5.401   4.418 -0.1447  0.0225 -0.0058
17535TIP3    H174096   0.498   5.431   4.328 -2.2335 -0.7416 -0.4792
17535TIP3    H274097   0.460   5.311   4.411 -2.4968  0.6317  1.4045
17536TIP3   OH274098   6.618   2.135   0.846  0.0120  0.1732  0.5860
17536TIP3    H174099   6.644   2.162   0.757 -1.4531  1.0091  0.4050
17536TIP3    H274100   6.680   2.180   0.903 -1.2789  2.5553  0.1782
17537TIP3   OH274101   1.634   3.073  16.002 -0.1113  0.3966 -0.6355
17537TIP3    H174102   1.644   3.127  16.081  2.3428  0.4073 -0.9257
17537TIP3    H274103   1.607   2.987  16.035  0.4858  0.5196  0.1858
17538TIP3   OH274104   0.745   2.061  13.965 -0.2054 -0.0398  0.2385
17538TIP3    H174105   0.832   2.038  13.934  1.2731  1.7461  2.8548
17538TIP3    H274106   0.712   1.981  14.006  0.3945 -0.5779 -0.3252
17539TIP3   OH274107   6.219   4.364   5.700  0.5480 -0.2699 -0.7700
17539TIP3    H174108   6.301   4.407   5.675  0.6600 -0.0866 -0.1071
17539TIP3    H274109   6.154   4.434   5.699  0.4862 -0.3275 -0.8664
17540TIP3   OH274110   4.090   1.197   0.646 -0.0635 -0.3567  0.6344
17540TIP3    H174111   4.053   1.280   0.617  0.5783 -0.2916 -0.0324
17540TIP3    H274112   4.167   1.221   0.698  0.0848 -0.5295  0.4974
17541TIP3   OH274113   5.079   2.736   5.795  0.6638 -0.0307 -0.0009
17541TIP3    H174114   5.032   2.718   5.714 -1.7463  1.0495  1.1128
17541TIP3    H274115   5.080   2.653   5.841  1.2156 -0.4203 -0.7003
17542TIP3   OH274116   0.232   6.320   6.128 -0.1496 -0.2082  0.0567
17542TIP3    H174117   0.184   6.401   6.109  0.5820  0.3684  0.6505
17542TIP3    H274118   0.170   6.266   6.177 -1.0562 -0.5127 -1.3805
17543TIP3   OH274119   2.348   3.577   4.028  0.2821  0.1793  0.5987
17543TIP3    H174120   2.390   3.496   4.057 -1.1049 -0.8345 -0.1658
17543TIP3    H274121   2.260   3.572   4.064 -1.0519 -0.4803 -2.5555
17544TIP3   OH274122   2.859   2.408  16.416 -0.0271 -0.1936 -0.2289
17544TIP3    H174123   2.768   2.384  16.432  0.0409 -0.5895 -0.4539
17544TIP3    H274124   2.894   2.339  16.360  0.9559 -1.0583  1.4106
17545TIP3   OH274125   4.390   5.720  11.891  0.1046  0.4159 -0.6219
17545TIP3    H174126   4.424   5.778  11.822  0.1455  1.3568  0.1810
17545TIP3    H274127   4.310   5.763  11.922 -0.8246 -0.8492 -1.2155
17546TIP3   OH274128   5.999   2.410   2.486  0.2495  0.5402  0.1303
17546TIP3    H174129   6.036   2.375   2.567  1.7150  1.4900 -0.1061
17546TIP3    H274130   5.904   2.398   2.495  0.5837 -1.9495  0.7572
17547TIP3   OH274131   6.163   4.275  16.769  0.8640 -0.2558  0.1058
17547TIP3    H174132   6.120   4.211  16.826  1.1385  0.6597  1.3641
17547TIP3    H274133   6.205   4.336  16.830 -2.0534  2.9957 -1.0110
17548TIP3   OH274134   3.856   6.538  12.386  0.1748  0.4876 -0.2563
17548TIP3    H174135   3.782   6.561  12.330  0.8771  0.8810 -1.0286
17548TIP3    H274136   3.925   6.511  12.325  0.3520 -0.8069  0.4998
17549TIP3   OH274137   6.246   3.657  11.309 -0.1615  0.7739  0.1650
17549TIP3    H174138   6.238   3.711  11.387 -0.5179  1.1193 -0.1049
17549TIP3    H274139   6.247   3.720  11.236  1.2128  0.5244 -0.0526
17550TIP3   OH274140   2.086   2.478   0.119 -0.2033  0.0655 -0.2560
17550TIP3    H174141   2.083   2.453   0.212  0.8622 -1.7717 -0.6998
17550TIP3    H274142   2.021   2.548   0.112 -0.8226 -0.2597  1.7344
17551TIP3   OH274143   5.815   3.593  16.212 -0.0992  0.2503  0.0164
17551TIP3    H174144   5.778   3.655  16.275 -0.5465 -0.3277  0.3386
17551TIP3    H274145   5.738   3.550  16.174  0.2123 -0.2773 -0.0207
17552TIP3   OH274146   4.529   6.552   3.088 -0.2179 -0.5970 -0.3276
17552TIP3    H174147   4.460   6.608   3.055 -0.3020  0.2273  1.2137
17552TIP3    H274148   4.546   6.490   3.017 -3.5578 -1.7537 -0.1975
17553TIP3   OH274149   4.608   3.799  12.100 -0.3749  0.1908  0.8062
17553TIP3    H174150   4.677   3.809  12.166 -0.3272 -0.5427  0.8701
17553TIP3    H274151   4.577   3.710  12.112  0.8274 -0.5547 -1.3255
17554TIP3   OH274152   2.438   1.165  14.734  0.0467  0.0088  0.2605
17554TIP3    H174153   2.400   1.197  14.652  0.1885  0.3672  0.3370
17554TIP3    H274154   2.506   1.228  14.756 -0.2593  0.1316  0.8674
17555TIP3   OH274155   3.592   1.688  16.119  0.0106  0.2906 -0.3201
17555TIP3    H174156   3.575   1.701  16.212  0.7484 -0.0809 -0.1265
17555TIP3    H274157   3.681   1.652  16.115  1.0089  2.7654 -1.3239
17556TIP3   OH274158   0.802   4.077  12.765  0.2508 -0.1364 -0.8941
17556TIP3    H174159   0.843   4.083  12.851 -1.0090  1.5242 -0.3830
17556TIP3    H274160   0.873   4.098  12.704  1.5601 -2.9292 -0.4117
17557TIP3   OH274161   2.358   5.811   5.828 -0.1684 -0.3481  0.1938
17557TIP3    H174162   2.407   5.730   5.814  0.6353  0.3715 -1.2404
17557TIP3    H274163   2.279   5.800   5.775 -0.3306 -0.4093  0.4425
17558TIP3   OH274164   2.348   6.232  11.512  0.4571  0.2172  1.0340
17558TIP3    H174165   2.428   6.193  11.548  0.2023 -1.7001 -0.3572
17558TIP3    H274166   2.379   6.285  11.439  0.3673 -2.0220 -0.7042
17559TIP3   OH274167   2.773   0.266  15.807 -0.1773  0.1548 -0.5153
17559TIP3    H174168   2.721   0.327  15.755  0.2114  1.3324  0.4551
17559TIP3    H274169   2.719   0.248  15.884 -0.0016 -0.1965 -0.4724
17560TIP3   OH274170   3.450   1.106  12.356  0.0926 -0.1316  0.1533
17560TIP3    H174171   3.538   1.078  12.331  0.3023 -0.6439  1.4481
17560TIP3    H274172   3.434   1.185  12.304  1.6039  0.3848  0.4647
17561TIP3   OH274173   1.158   2.580   1.473 -0.5022  0.0023  0.1204
17561TIP3    H174174   1.103   2.569   1.550 -0.3665 -0.7750  0.1099
17561TIP3    H274175   1.247   2.566   1.505 -0.2803  1.5374  0.1949
17562TIP3   OH274176   2.647   4.116  17.164 -0.5602  0.1355 -1.0168
17562TIP3    H174177   2.555   4.099  17.146 -0.8746  2.0086 -1.2071
17562TIP3    H274178   2.677   4.173  17.093  0.6323 -0.0853 -0.7148
17563TIP3   OH274179   5.971   2.950   1.724 -0.7067 -0.4996 -0.6724
17563TIP3    H174180   5.901   2.907   1.676 -0.9927 -1.3955  0.5309
17563TIP3    H274181   5.974   2.904   1.808 -1.3417  2.1056  0.8274
17564TIP3   OH274182   4.049   2.004   3.075  0.6410  0.8175 -0.2589
17564TIP3    H174183   4.132   2.038   3.109  0.3058  0.7896  0.5898
17564TIP3    H274184   4.030   1.927   3.129 -0.0206  0.9196 -0.3381
17565TIP3   OH274185   5.001   5.771  13.270  0.2104 -0.1464 -0.7519
17565TIP3    H174186   5.064   5.833  13.235  0.6647 -0.1509  0.0492
17565TIP3    H274187   5.002   5.786  13.364 -2.1402  0.9306 -0.8731
17566TIP3   OH274188   4.684   5.403  15.940  0.3449  0.0450  0.3715
17566TIP3    H174189   4.763   5.426  15.891 -0.7520  2.4575 -0.3235
17566TIP3    H274190   4.717   5.376  16.026  1.9237  1.1576  0.1389
17567TIP3   OH274191   3.871   2.663   2.218 -0.0124  0.1642 -0.6244
17567TIP3    H174192   3.782   2.670   2.184  0.4532  0.9908 -1.6859
17567TIP3    H274193   3.873   2.578   2.263 -1.4073  0.2727 -0.3467
17568TIP3   OH274194   3.842   3.976  15.341  0.4040 -0.1491  0.6412
17568TIP3    H174195   3.788   4.051  15.317  1.0697  0.5233  1.1951
17568TIP3    H274196   3.804   3.902  15.293  0.2379  0.6967 -0.5633
17569TIP3   OH274197   6.454   0.706  15.656 -0.1240 -0.2173 -0.5782
17569TIP3    H174198   6.427   0.618  15.629  0.0103  0.1870 -2.0632
17569TIP3    H274199   6.416   0.764  15.591 -0.1697  0.8303  0.3774
17570TIP3   OH274200   0.276   2.127   1.218 -0.5589 -0.1987  0.3803
17570TIP3    H174201   0.228   2.114   1.300 -1.0951 -0.3716  0.0346
17570TIP3    H274202   0.258   2.218   1.194  0.3493  0.1426  0.9359
17571TIP3   OH274203   3.473   1.885  12.950  0.2147 -0.3952  0.6671
17571TIP3    H174204   3.383   1.879  12.919  0.4037 -0.4606  0.1117
17571TIP3    H274205   3.466   1.913  13.041 -0.3175  1.3666  0.1098
17572TIP3   OH274206   5.375   0.558   0.721  0.4525  0.5250 -0.2678
17572TIP3    H174207   5.458   0.520   0.691 -0.5814 -1.2859 -0.9009
17572TIP3    H274208   5.388   0.573   0.815  0.8637 -1.5514  0.0405
17573TIP3   OH274209   1.610   4.151   4.192 -0.3417 -0.0681  0.5729
17573TIP3    H174210   1.659   4.179   4.115 -1.4081  2.4045  0.7332
17573TIP3    H274211   1.665   4.084   4.232  2.5735  2.0254  0.3023
17574TIP3   OH274212   2.656   1.723   5.689  0.7056 -0.2141  0.2014
17574TIP3    H174213   2.729   1.783   5.684 -0.2502  0.9511  0.0567
17574TIP3    H274214   2.578   1.779   5.686 -0.1914 -1.4405  0.1353
17575TIP3   OH274215   1.196   0.142   1.033 -0.4479  0.1875 -0.2249
17575TIP3    H174216   1.275   0.128   0.981  1.4918  1.9284  2.1072
17575TIP3    H274217   1.227   0.147   1.123 -3.2531  0.8102  0.7756
17576TIP3   OH274218   1.388   3.513  12.502  0.2240  0.0654 -0.5644
17576TIP3    H174219   1.459   3.575  12.483  0.0088  0.3828 -0.3542
17576TIP3    H274220   1.432   3.429  12.514  0.6861  0.4553  0.5969
17577TIP3   OH274221   1.946   3.026   3.251 -0.3243 -0.3858  0.3180
17577TIP3    H174222   2.031   3.018   3.293 -0.1734 -0.6152 -0.0278
17577TIP3    H274223   1.887   2.974   3.305 -0.2818 -0.0825  0.6566
17578TIP3   OH274224   5.638   3.630  10.231 -0.1219  0.4489  0.3034
17578TIP3    H174225   5.651   3.561  10.296 -1.8726  1.4537  1.7612
17578TIP3    H274226   5.724   3.672  10.223  0.8979 -1.6523 -0.3842
17579TIP3   OH274227   5.665   4.435  13.467 -0.2639 -0.7764  0.0453
17579TIP3    H174228   5.573   4.428  13.441  0.6851 -2.8703 -3.0096
17579TIP3    H274229   5.712   4.455  13.386  2.1057 -0.8624  1.3389
17580TIP3   OH274230   0.242   4.808  12.770  0.7000  0.5950  0.5191
17580TIP3    H174231   0.317   4.860  12.799  0.2784  0.7720  1.3113
17580TIP3    H274232   0.252   4.725  12.817  1.1102  0.1303 -0.3760
17581TIP3   OH274233   4.265   4.182  16.068  0.2964  0.2811 -0.0545
17581TIP3    H174234   4.330   4.229  16.120 -1.4402  2.0456  0.5601
17581TIP3    H274235   4.190   4.172  16.126 -0.0882 -1.5231 -0.8325
17582TIP3   OH274236   0.890   4.428  15.925  0.2482 -0.0924 -0.0702
17582TIP3    H174237   0.814   4.425  15.983  0.6977  1.3252  0.6000
17582TIP3    H274238   0.951   4.489  15.967  1.0414  0.1116 -1.4760
17583TIP3   OH274239   1.640   6.265  12.620  0.0548  0.4018 -0.3030
17583TIP3    H174240   1.556   6.306  12.599  0.2751 -0.0354 -2.1346
17583TIP3    H274241   1.705   6.317  12.573  0.6127 -0.4219 -0.4559
17584TIP3   OH274242   0.982   4.022  15.168  0.2457 -0.0361 -0.1459
17584TIP3    H174243   0.952   3.958  15.233 -0.0502  0.0403 -0.2047
17584TIP3    H274244   1.054   3.978  15.122  0.0844 -0.3045 -0.1429
17585TIP3   OH274245   1.665   6.421  17.095 -0.0844 -0.3157 -0.2864
17585TIP3    H174246   1.654   6.494  17.156  0.3224 -0.6337  0.1720
17585TIP3    H274247   1.656   6.460  17.008 -1.9274 -0.0765 -0.0018
17586TIP3   OH274248   4.963   6.318   1.745 -0.4693  0.3394 -0.5368
17586TIP3    H174249   4.900   6.246   1.739 -0.8030  0.7578 -2.2272
17586TIP3    H274250   4.978   6.329   1.839 -1.6577 -0.8591 -0.1991
17587TIP3   OH274251   2.994   4.675   2.454  0.4260  0.0620 -0.0157
17587TIP3    H174252   2.996   4.715   2.367  0.7020  1.1566  0.4789
17587TIP3    H274253   3.073   4.621   2.457  1.0263  0.9261 -0.0378
17588TIP3   OH274254   6.427   6.494  14.344  0.1742  0.4806 -0.4684
17588TIP3    H174255   6.426   6.421  14.282  0.9181  1.6426 -1.8892
17588TIP3    H274256   6.336   6.502  14.372  0.2376 -1.5742  0.4281
17589TIP3   OH274257   0.837   3.786   0.088  0.5114 -0.0196 -0.0679
17589TIP3    H174258   0.897   3.848   0.046  1.7626 -1.0772  0.1406
17589TIP3    H274259   0.824   3.822   0.176 -0.6405  1.1950 -0.7094
17590TIP3   OH274260   1.151   2.256   0.767  0.3548  0.2062  0.1312
17590TIP3    H174261   1.196   2.307   0.699 -1.8809  1.6332 -0.3156
17590TIP3    H274262   1.136   2.170   0.727  1.1574  0.2684 -0.3167
17591TIP3   OH274263   1.023   0.016  12.519 -0.3194 -0.1699  0.3010
17591TIP3    H174264   0.945   0.042  12.567  0.6609  1.4388  1.0745
17591TIP3    H274265   0.994   0.004  12.429 -1.5332 -0.0039  0.6682
17592TIP3   OH274266   0.269   0.947  13.669 -0.1279 -0.6438  0.1835
17592TIP3    H174267   0.342   0.885  13.671  1.1650  0.8149 -0.3828
17592TIP3    H274268   0.285   1.000  13.591 -2.4423 -1.0457 -0.5952
17593TIP3   OH274269   0.640   5.387   4.917 -0.6814  0.1534 -0.1633
17593TIP3    H174270   0.723   5.405   4.871  0.3901 -0.1734  1.5962
17593TIP3    H274271   0.630   5.292   4.910 -0.5960  0.1215  0.1544
17594TIP3   OH274272   3.392   5.824  16.852 -0.1277  0.2444  0.1078
17594TIP3    H174273   3.393   5.803  16.945  2.9208  3.5191  0.9138
17594TIP3    H274274   3.475   5.790  16.818  0.0793  1.6003 -0.7856
17595TIP3   OH274275   4.676   5.299   5.298  0.1175 -0.0112  0.0582
17595TIP3    H174276   4.592   5.344   5.310  1.6109  3.1957 -0.8017
17595TIP3    H274277   4.739   5.352   5.346  1.6240 -2.6135  1.0614
17596TIP3   OH274278   6.816   2.345   0.329 -0.1419 -0.2705  0.2408
17596TIP3    H174279   6.866   2.297   0.263 -0.7477 -1.1294  0.4089
17596TIP3    H274280   6.793   2.428   0.286  1.6494  0.2736  0.2435
17597TIP3   OH274281   3.126   3.760  11.550  0.4218 -0.3125  0.1149
17597TIP3    H174282   3.181   3.711  11.611  0.4298 -0.6028 -0.1266
17597TIP3    H274283   3.173   3.843  11.537 -1.2318  1.2026  3.1637
17598TIP3   OH274284   5.248   0.928  16.936  0.4735 -0.3185  0.0436
17598TIP3    H174285   5.295   0.859  16.983 -0.1496  1.0402  2.7705
17598TIP3    H274286   5.294   1.009  16.962 -1.3214  0.6838  0.1644
17599TIP3   OH274287   4.646   5.821   4.721  0.7580 -0.3311  0.3577
17599TIP3    H174288   4.655   5.825   4.816 -0.2924 -1.4029  0.5090
17599TIP3    H274289   4.722   5.770   4.692  1.5880  0.7707  0.5074
17600TIP3   OH274290   6.787   4.456   4.999 -0.9177  0.6491 -0.2264
17600TIP3    H174291   6.799   4.441   4.905 -1.1526 -0.7253 -0.0500
17600TIP3    H274292   6.864   4.418   5.040 -1.3392  0.2440  0.2086
17601TIP3   OH274293   2.625   3.216   1.835  0.2143  0.4484 -0.5191
17601TIP3    H174294   2.584   3.284   1.890 -0.3704  0.7736 -1.3456
17601TIP3    H274295   2.681   3.264   1.774  1.0032  0.0743 -0.0985
17602TIP3   OH274296   3.697   0.039  16.920 -0.1021 -0.5313 -0.1222
17602TIP3    H174297   3.655  -0.046  16.906 -1.3812 -0.0703  0.8009
17602TIP3    H274298   3.763   0.022  16.987 -1.7668 -0.3982  1.5957
17603TIP3   OH274299   1.588   5.483  16.134  0.4893 -0.5356  0.2496
17603TIP3    H174300   1.510   5.518  16.177  1.4241  0.9121  0.7906
17603TIP3    H274301   1.658   5.542  16.159  1.2920 -0.3216 -2.2858
17604TIP3   OH274302   1.653   5.236   0.258 -0.1867  0.5958  0.3191
17604TIP3    H174303   1.575   5.190   0.228  0.5263 -0.6024  0.2918
17604TIP3    H274304   1.726   5.195   0.211  0.6713  0.3782  1.7922
17605TIP3   OH274305   2.042   3.085  16.628 -0.1339  0.0171  0.5026
17605TIP3    H174306   2.109   3.154  16.618 -1.7939  1.5057 -0.6800
17605TIP3    H274307   2.021   3.060  16.539 -1.1877 -0.4057  0.8667
17606TIP3   OH274308   2.634   3.862   2.710 -0.4114 -0.1401 -0.3495
17606TIP3    H174309   2.726   3.845   2.731 -0.2198  0.0748 -0.9894
17606TIP3    H274310   2.617   3.804   2.635 -0.8330 -0.2674 -0.1540
17607TIP3   OH274311   1.671   3.338  11.936 -0.2028  0.2466  0.5837
17607TIP3    H174312   1.749   3.384  11.907 -0.5558 -1.4121 -3.3959
17607TIP3    H274313   1.690   3.245  11.921 -1.7917 -0.4255  2.4808
17608TIP3   OH274314   4.066   5.175  11.028  0.2354 -0.3080 -0.0387
17608TIP3    H174315   3.999   5.123  10.984  1.4421 -3.1559  1.3572
17608TIP3    H274316   4.035   5.182  11.119  0.6646  0.3839  0.0540
17609TIP3   OH274317   1.221   2.558  16.117 -0.2041  0.2925 -0.1975
17609TIP3    H174318   1.243   2.483  16.173 -0.4912  0.0716 -0.3852
17609TIP3    H274319   1.303   2.607  16.110  0.0547 -0.1624 -0.3193
17610TIP3   OH274320   5.591   0.702   6.124 -0.1247  0.1945 -0.5327
17610TIP3    H174321   5.514   0.689   6.179  0.9461  2.0489  1.4703
17610TIP3    H274322   5.654   0.637   6.154 -0.4932 -0.5828 -1.4178
17611TIP3   OH274323   4.105   0.541   1.597  0.0838 -0.1047  0.3992
17611TIP3    H174324   4.190   0.520   1.560 -0.2409  0.3207 -0.6083
17611TIP3    H274325   4.042   0.500   1.537 -0.3910 -2.3328  2.3362
17612TIP3   OH274326   0.137   3.449   0.351 -0.0460 -0.6019  0.4449
17612TIP3    H174327   0.215   3.464   0.404 -1.2499 -1.2642  2.4516
17612TIP3    H274328   0.142   3.514   0.281  3.2779 -1.8819 -0.5858
17613TIP3   OH274329   0.013   6.611   4.138 -0.6195 -0.3202 -0.0968
17613TIP3    H174330   0.101   6.635   4.167 -0.7032 -0.3959  0.2277
17613TIP3    H274331   0.025   6.527   4.093 -0.0594  1.1599 -2.7932
17614TIP3   OH274332   5.040   2.006   1.322 -0.3063 -0.8744 -0.0539
17614TIP3    H174333   5.011   2.092   1.354 -0.8186 -0.8810 -0.4971
17614TIP3    H274334   5.042   1.951   1.401 -0.0035 -0.4642  0.2273
17615TIP3   OH274335   4.014   6.606  11.538  0.7117 -0.2399 -0.5800
17615TIP3    H174336   4.107   6.618  11.560  0.4767  0.2455  0.1874
17615TIP3    H274337   3.977   6.564  11.616  0.0471  0.6437 -0.4106
17616TIP3   OH274338   4.954   6.474   0.906 -0.1542  0.6911 -0.0580
17616TIP3    H174339   4.986   6.553   0.948  1.8704  0.2417 -0.6918
17616TIP3    H274340   5.003   6.469   0.824  0.1160 -1.4840  0.2116
17617TIP3   OH274341   5.115   3.273  17.002  0.1126  0.7377  0.2816
17617TIP3    H174342   5.054   3.342  16.978  0.3546  0.4487 -1.2051
17617TIP3    H274343   5.132   3.287  17.095 -1.6694  1.2395  0.5504
17618TIP3   OH274344   1.061   0.069   2.486 -0.0451  0.4586  0.1060
17618TIP3    H174345   1.151   0.080   2.456 -0.4279  0.0923 -1.2413
17618TIP3    H274346   1.019   0.153   2.466 -0.1490  0.4209  0.1642
17619TIP3   OH274347   0.430   3.527   5.327  0.5256  0.6448  0.7491
17619TIP3    H174348   0.347   3.542   5.373  0.3721  0.0497  0.6756
17619TIP3    H274349   0.405   3.520   5.235  0.7480  1.1636  0.6495
17620TIP3   OH274350   5.416   4.356   1.397  0.3861 -0.3933 -0.3593
17620TIP3    H174351   5.340   4.340   1.342  0.7671 -0.1762 -0.9483
17620TIP3    H274352   5.471   4.414   1.345  0.0021  1.1255  0.8810
17621TIP3   OH274353   5.049   4.056  15.221  0.3089 -0.1526 -0.7167
17621TIP3    H174354   5.049   4.126  15.156 -0.6118  0.3639 -0.1614
17621TIP3    H274355   4.981   4.080  15.283  2.8424  0.6495  1.8576
17622TIP3   OH274356   3.382   4.265  14.745 -0.3704  0.0649  0.2209
17622TIP3    H174357   3.338   4.343  14.713  1.3800  1.0011  0.0092
17622TIP3    H274358   3.337   4.192  14.701  0.8238  1.2228 -3.0752
17623TIP3   OH274359   2.226   0.343  13.919  0.4507 -0.4260 -0.4921
17623TIP3    H174360   2.159   0.405  13.950  0.5951  0.0721 -1.1712
17623TIP3    H274361   2.289   0.338  13.990 -0.8389 -1.7054  0.6088
17624TIP3   OH274362   4.513   0.966  12.624  0.1687 -0.9368  0.3830
17624TIP3    H174363   4.418   0.951  12.625  0.3416 -2.0395  1.0075
17624TIP3    H274364   4.551   0.879  12.613  1.1189 -0.5318  0.4059
17625TIP3   OH274365   2.668   4.355   3.298 -0.3745 -0.3950  0.0001
17625TIP3    H174366   2.707   4.293   3.361  0.7063 -1.2282 -1.4692
17625TIP3    H274367   2.734   4.423   3.289  0.4024 -1.3718 -1.8446
17626TIP3   OH274368   6.031   3.359  11.749 -0.0583 -0.0862 -0.2229
17626TIP3    H174369   6.019   3.445  11.709 -0.8061 -0.8169 -1.6196
17626TIP3    H274370   6.110   3.368  11.803  2.4057  0.3188 -3.6911
17627TIP3   OH274371   3.310   2.359   5.850 -0.1851  0.2153 -0.0521
17627TIP3    H174372   3.288   2.417   5.777 -1.0823  0.1358  0.1400
17627TIP3    H274373   3.361   2.413   5.910  1.8093 -0.1284 -1.4258
17628TIP3   OH274374   0.070   1.975   3.204  0.0241  0.1293 -0.0609
17628TIP3    H174375   0.094   1.984   3.111 -0.3600  1.2187 -0.0704
17628TIP3    H274376  -0.017   2.016   3.209 -0.6202 -1.2970  0.4890
17629TIP3   OH274377   5.584   1.387   2.258 -0.0909  0.6804  0.0911
17629TIP3    H174378   5.573   1.293   2.269  0.0189  0.6286 -0.2558
17629TIP3    H274379   5.669   1.406   2.299  0.0190  0.5856 -0.0937
17630TIP3   OH274380   5.750   2.885   1.540  0.0759  0.0880 -0.1771
17630TIP3    H174381   5.816   2.828   1.500  0.5584  0.1119  0.5688
17630TIP3    H274382   5.734   2.953   1.475  0.9608  0.2138 -0.2746
17631TIP3   OH274383   1.272   1.301   0.755 -0.1938  0.0963  0.0130
17631TIP3    H174384   1.240   1.232   0.697  1.0729  0.2662 -0.8993
17631TIP3    H274385   1.303   1.255   0.832  0.3963 -0.3456 -0.4796
17632TIP3   OH274386   4.109   1.986   6.778 -0.5611 -0.4601 -0.3999
17632TIP3    H174387   4.045   1.925   6.816 -1.2192  0.1689 -0.4780
17632TIP3    H274388   4.186   1.933   6.762  0.2462 -0.4681  3.0959
17633TIP3   OH274389   4.853   1.703   5.232 -0.1781  0.4118 -0.0083
17633TIP3    H174390   4.775   1.668   5.190 -0.7851 -0.6521  1.9362
17633TIP3    H274391   4.925   1.682   5.172 -1.0871 -0.6781 -0.7250
17634TIP3   OH274392   1.658   1.172   1.413  0.2115  0.6538 -0.5748
17634TIP3    H174393   1.664   1.228   1.336 -1.8998 -0.3377 -1.4912
17634TIP3    H274394   1.616   1.092   1.381 -1.8408  0.7211  1.8665
17635TIP3   OH274395   5.385   1.162   0.283  0.4524  0.5792 -1.6458
17635TIP3    H174396   5.392   1.068   0.298 -0.2832  0.8040  0.3083
17635TIP3    H274397   5.472   1.189   0.254  1.2431 -0.3718 -0.2142
17636TIP3   OH274398   2.019   6.157  11.004 -0.1978  0.3130  0.0461
17636TIP3    H174399   2.041   6.249  10.991  1.3649 -0.3762 -2.6160
17636TIP3    H274400   2.013   6.147  11.099 -1.2488  3.3320  0.3456
17637TIP3   OH274401   6.589   4.516  16.466  0.3480 -0.2568 -0.3362
17637TIP3    H174402   6.550   4.603  16.457  2.2132  0.4338 -2.0216
17637TIP3    H274403   6.611   4.509  16.559 -0.8469  0.5961  0.0197
17638TIP3   OH274404   5.211   2.747   1.248  0.4210 -0.1374  0.1653
17638TIP3    H174405   5.292   2.789   1.276  0.6652 -1.3613  1.3508
17638TIP3    H274406   5.162   2.733   1.329 -0.5617 -0.2587 -0.4418
17639TIP3   OH274407   5.772   4.169   6.611  0.1289 -0.3155  0.1867
17639TIP3    H174408   5.778   4.120   6.693 -0.0944 -0.6152  0.0263
17639TIP3    H274409   5.683   4.154   6.580  0.4204 -0.7670 -0.4565
17640TIP3   OH274410   1.056   1.707  14.079 -0.3629  0.4287 -0.2357
17640TIP3    H174411   1.055   1.687  13.985 -3.0635 -1.0757  0.0626
17640TIP3    H274412   1.017   1.794  14.085 -1.2931  0.0262 -0.4135
17641TIP3   OH274413   1.779   6.501  16.834  0.1605 -0.2616  0.4662
17641TIP3    H174414   1.825   6.581  16.810 -1.6413  0.9751  1.0328
17641TIP3    H274415   1.798   6.440  16.762  1.6678  0.6009  0.1100
17642TIP3   OH274416   2.443   2.859   5.344  0.2758  0.3668  0.7737
17642TIP3    H174417   2.362   2.863   5.395 -0.0793  0.1409  0.2288
17642TIP3    H274418   2.422   2.802   5.270  1.0905 -0.1443  0.9231
17643TIP3   OH274419   2.851   0.483  15.650  0.5292 -0.2220  0.0113
17643TIP3    H174420   2.798   0.520  15.580  0.2935 -0.3835  0.1038
17643TIP3    H274421   2.917   0.430  15.605  1.7160  1.3827 -0.1928
17644TIP3   OH274422   0.796   6.528   1.584  0.3651 -0.0860 -0.3460
17644TIP3    H174423   0.767   6.456   1.640  1.2725  0.3169  0.6601
17644TIP3    H274424   0.740   6.523   1.507  0.1623 -1.6268 -0.1048
17645TIP3   OH274425   3.623   2.630   1.974 -0.2351 -0.0440 -0.0142
17645TIP3    H174426   3.596   2.563   2.037  4.0972 -1.6415  0.3808
17645TIP3    H274427   3.618   2.587   1.889  0.4648 -0.1985  0.0147
17646TIP3   OH274428   5.230   0.623   2.086  0.0327  0.0785 -0.2915
17646TIP3    H174429   5.165   0.552   2.081 -1.4377  1.3468  0.3575
17646TIP3    H274430   5.314   0.578   2.082 -0.8683 -1.6727 -0.4100
17647TIP3   OH274431   3.794   4.584  17.236 -0.1637  0.1831 -0.1839
17647TIP3    H174432   3.731   4.615  17.301  2.1489  0.9481  1.7697
17647TIP3    H274433   3.845   4.517  17.282  2.3389  1.6216 -0.7690
17648TIP3   OH274434   1.266   0.752   3.994 -0.2705 -0.1412 -0.1003
17648TIP3    H174435   1.296   0.820   4.055 -0.0010  0.2929 -0.7106
17648TIP3    H274436   1.341   0.737   3.936  0.1543 -1.9424  0.8684
17649TIP3   OH274437   3.746   5.727   3.720  0.2415 -0.1863 -0.0036
17649TIP3    H174438   3.737   5.632   3.720 -0.9741 -0.0830  0.9091
17649TIP3    H274439   3.840   5.743   3.708  0.4933 -1.4998  0.2219
17650TIP3   OH274440   6.574   3.502  14.583 -0.2639 -0.1121 -0.4432
17650TIP3    H174441   6.660   3.542  14.566 -1.5956  2.0352 -2.3874
17650TIP3    H274442   6.518   3.576  14.606 -1.9277 -1.3336 -0.5413
17651TIP3   OH274443   6.806   4.947   3.608  0.2706  0.6646  0.1864
17651TIP3    H174444   6.801   5.027   3.661  1.3841  1.1452 -0.4071
17651TIP3    H274445   6.805   4.876   3.671  1.3492  1.2259  0.8634
17652TIP3   OH274446   6.752   2.097   4.383  0.2286  0.0914  0.0981
17652TIP3    H174447   6.844   2.074   4.374 -0.5522 -2.1640 -2.6406
17652TIP3    H274448   6.716   2.086   4.295 -3.0815 -1.0294  1.5359
17653TIP3   OH274449   5.101   6.245   4.072 -0.1324  0.1878  0.6409
17653TIP3    H174450   5.158   6.318   4.049  0.2793 -0.5713 -0.8442
17653TIP3    H274451   5.027   6.285   4.117  0.9310  1.3201  1.4154
17654TIP3   OH274452   5.837   5.952   2.112 -0.2076 -0.5960  0.1937
17654TIP3    H174453   5.851   5.909   2.028 -0.8319 -0.8251  0.2021
17654TIP3    H274454   5.916   6.004   2.127 -0.3414 -0.1109 -0.7937
17655TIP3   OH274455   6.503   4.008   3.936 -0.3165  0.5974  0.3764
17655TIP3    H174456   6.474   3.922   3.905  1.4618  0.2290 -0.2981
17655TIP3    H274457   6.480   4.068   3.865 -0.0047  0.4018  0.1070
17656TIP3   OH274458   1.524   6.084   5.193 -0.5529 -0.3898 -0.3203
17656TIP3    H174459   1.447   6.076   5.137 -0.3220 -0.8473 -0.5757
17656TIP3    H274460   1.507   6.024   5.266 -0.4697 -0.4403 -0.3419
17657TIP3   OH274461   1.330   4.312   3.732 -0.0779  0.2255 -0.1655
17657TIP3    H174462   1.402   4.322   3.669  0.3415  2.6229  0.6341
17657TIP3    H274463   1.364   4.347   3.814 -2.0876  1.2451  0.2793
17658TIP3   OH274464   6.675   3.188  13.329 -0.0804  0.3315 -0.3508
17658TIP3    H174465   6.591   3.232  13.344 -0.3872 -0.6951  1.1347
17658TIP3    H274466   6.726   3.250  13.278 -1.4600  1.3078 -0.5803
17659TIP3   OH274467   6.602   1.960  14.514  0.0645 -0.3116  0.0537
17659TIP3    H174468   6.666   1.978  14.445  0.1245 -1.6702 -0.2545
17659TIP3    H274469   6.529   2.018  14.494  1.3053  1.5216  0.6089
17660TIP3   OH274470   6.324   2.215  12.902  0.3586 -0.1350  0.2222
17660TIP3    H174471   6.412   2.180  12.917  0.2717 -1.3713 -2.0280
17660TIP3    H274472   6.331   2.307  12.928  1.8504 -0.6309  1.6777
17661TIP3   OH274473   1.613   3.292   6.355 -0.0119  0.5672 -0.0458
17661TIP3    H174474   1.665   3.289   6.435 -1.4681 -2.5498  0.8327
17661TIP3    H274475   1.523   3.301   6.385 -0.4497  0.7920 -1.3921
17662TIP3   OH274476   1.428   0.279   2.806  0.2982  0.1303 -0.4160
17662TIP3    H174477   1.400   0.347   2.868 -1.1187 -1.0182  0.2447
17662TIP3    H274478   1.510   0.311   2.771  0.1511  1.7260  0.6316
17663TIP3   OH274479   5.409   5.625  10.451  0.1774 -0.6441  0.3516
17663TIP3    H174480   5.489   5.583  10.480  2.7538  1.9173 -2.6556
17663TIP3    H274481   5.366   5.560  10.396  0.6367 -1.6792  1.1890
17664TIP3   OH274482   4.300   6.677   5.993 -0.2605 -0.4423 -0.3809
17664TIP3    H174483   4.364   6.608   6.007 -0.8912 -0.9887 -0.1336
17664TIP3    H274484   4.230   6.635   5.942 -1.6437 -0.6003  1.5553
17665TIP3   OH274485   3.502   6.491  16.092 -0.5400 -0.3038  0.3269
17665TIP3    H174486   3.566   6.548  16.135 -1.2759 -0.0454  1.0995
17665TIP3    H274487   3.520   6.502  15.999 -1.3159  1.9930  0.4119
17666TIP3   OH274488   1.623   4.487  13.379 -0.2224  0.4064  0.5100
17666TIP3    H174489   1.609   4.578  13.355  0.0812  0.8952  2.1027
17666TIP3    H274490   1.717   4.474  13.369 -0.4590 -0.1708 -1.1281
17667TIP3   OH274491   2.698   1.419  15.317  0.2774  0.2392  0.3864
17667TIP3    H174492   2.687   1.437  15.223  1.4701 -0.5534  0.0815
17667TIP3    H274493   2.781   1.459  15.340  0.2355 -0.0131  0.9935
17668TIP3   OH274494   1.815   4.723   2.136 -0.1732 -0.0165 -0.1759
17668TIP3    H174495   1.778   4.644   2.175 -0.2621  0.4998  0.8070
17668TIP3    H274496   1.796   4.715   2.043 -0.4254 -1.0220 -0.0436
17669TIP3   OH274497   6.185   6.287  12.234  0.1704 -0.7998  0.2112
17669TIP3    H174498   6.232   6.211  12.200  2.6720  0.9706 -0.4365
17669TIP3    H274499   6.113   6.300  12.171 -0.4283 -2.7202  0.4561
17670TIP3   OH274500   6.807   1.082   0.209  0.0892  0.3618  0.2407
17670TIP3    H174501   6.835   0.993   0.230  0.9113  0.8262  1.1650
17670TIP3    H274502   6.737   1.071   0.145  2.1053 -0.8538 -1.8273
17671TIP3   OH274503   2.147   6.599   5.728 -0.0641  0.2218  0.1476
17671TIP3    H174504   2.155   6.646   5.645  1.0246  1.2666  0.8358
17671TIP3    H274505   2.165   6.508   5.705 -1.9443  0.1484 -1.1451
17672TIP3   OH274506   6.343   2.976  14.085  0.1153 -0.1103  0.0882
17672TIP3    H174507   6.324   2.890  14.049 -1.0594 -1.2898  3.3781
17672TIP3    H274508   6.375   2.959  14.174 -1.6957  2.8606  1.4050
17673TIP3   OH274509   5.081   6.740   0.159  0.4130 -0.6147  0.5714
17673TIP3    H174510   5.081   6.644   0.163  0.7901 -0.6320  0.2619
17673TIP3    H274511   5.048   6.768   0.244 -0.1472 -1.0276  0.4932
17674TIP3   OH274512   5.692   6.590  15.713 -0.4736 -0.3943  0.1549
17674TIP3    H174513   5.732   6.513  15.753  0.1917 -0.7638 -1.2050
17674TIP3    H274514   5.722   6.663  15.767  0.2030 -0.9127  0.4806
17675TIP3   OH274515   0.658   1.918   6.343  0.0686  0.5900 -0.1630
17675TIP3    H174516   0.570   1.951   6.324 -0.1223 -1.4920 -3.3665
17675TIP3    H274517   0.644   1.851   6.410 -0.7104  0.7738 -0.1358
17676TIP3   OH274518   2.619   4.333   0.068 -0.2964  0.5558 -0.1297
17676TIP3    H174519   2.600   4.274  -0.005 -0.0266  0.2433  0.0494
17676TIP3    H274520   2.539   4.383   0.081 -0.8005 -0.3368  0.2444
17677TIP3   OH274521   2.776   2.966   1.864 -0.7183 -0.1750  0.0104
17677TIP3    H174522   2.827   2.968   1.944 -1.6084 -4.1526  0.7830
17677TIP3    H274523   2.716   3.041   1.872  1.6388  1.6267  1.3158
17678TIP3   OH274524   5.738   5.976  10.843 -0.3505  0.7913 -0.4065
17678TIP3    H174525   5.826   6.002  10.872  0.5268 -1.7035 -0.6822
17678TIP3    H274526   5.688   5.967  10.924 -0.2249  1.7873 -0.2143
17679TIP3   OH274527   4.571   5.518  13.448  0.0478 -0.1520 -0.0385
17679TIP3    H174528   4.560   5.563  13.532 -1.6892 -0.1735 -0.2340
17679TIP3    H274529   4.548   5.427  13.468  0.3549 -0.3022 -0.3788
17680TIP3   OH274530   2.982   5.555  15.525  0.5455  0.0696 -0.0143
17680TIP3    H174531   3.051   5.507  15.571  0.5312 -0.9191 -1.0010
17680TIP3    H274532   2.957   5.497  15.453 -0.0935  1.1861 -0.6989
17681TIP3   OH274533   2.908   3.651  15.307  0.1381 -0.1665  0.5570
17681TIP3    H174534   2.998   3.685  15.306  0.0564  0.0713  1.3912
17681TIP3    H274535   2.889   3.636  15.399 -0.4444 -0.8675  0.3215
17682TIP3   OH274536   2.629   2.492  13.025  0.0656 -0.3635  0.2973
17682TIP3    H174537   2.536   2.490  13.048  0.4914 -1.5338  1.9522
17682TIP3    H274538   2.669   2.550  13.090  0.2274  1.6362 -1.5174
17683TIP3   OH274539   0.042   5.561   5.403 -0.0942 -0.3245  0.3616
17683TIP3    H174540  -0.005   5.620   5.462  0.3678 -0.8981  1.3077
17683TIP3    H274541   0.114   5.527   5.455 -0.1265 -1.4300 -0.3076
17684TIP3   OH274542   2.810   6.326   2.055  0.4408  0.4833 -0.5122
17684TIP3    H174543   2.733   6.275   2.031 -0.2479  1.1611  0.2227
17684TIP3    H274544   2.884   6.278   2.016 -0.0471 -1.7603  1.2096
17685TIP3   OH274545   1.760   4.242  13.826 -0.2216 -0.3195 -0.0895
17685TIP3    H174546   1.741   4.275  13.738 -0.1630  0.8542  0.3330
17685TIP3    H274547   1.674   4.242  13.870  0.1486  1.6100  0.6854
17686TIP3   OH274548   4.254   2.168   5.467  0.5026 -0.0627  0.7056
17686TIP3    H174549   4.309   2.163   5.389  0.7803 -0.8455  0.9441
17686TIP3    H274550   4.292   2.104   5.527 -0.1219  0.0441  1.2208
17687TIP3   OH274551   2.295   3.247   5.031  0.5182  0.7012  0.0045
17687TIP3    H174552   2.207   3.243   4.995  1.4117 -1.0145 -2.1207
17687TIP3    H274553   2.326   3.335   5.011 -0.5669  1.1818  0.4357
17688TIP3   OH274554   0.560   4.549  10.972  0.8281  0.6256 -0.1852
17688TIP3    H174555   0.651   4.525  10.987  0.6012  0.8572  1.8100
17688TIP3    H274556   0.564   4.625  10.914  2.0244  1.9487  1.5713
17689TIP3   OH274557   6.148   0.396  16.804  0.3062  0.4877 -0.3071
17689TIP3    H174558   6.187   0.332  16.864 -1.5255 -0.7877 -0.4488
17689TIP3    H274559   6.220   0.421  16.747  1.5685  0.1439  1.0841
17690TIP3   OH274560   5.558   5.346   6.023 -0.3396  0.2002  0.1618
17690TIP3    H174561   5.618   5.415   5.995  0.0614 -0.4902 -0.6899
17690TIP3    H274562   5.604   5.300   6.093  0.2130 -0.4493 -0.6204
17691TIP3   OH274563   6.466   5.698   0.175  0.2262  0.4556  0.4510
17691TIP3    H174564   6.481   5.604   0.180 -2.2102 -0.0406 -0.7151
17691TIP3    H274565   6.453   5.716   0.081 -0.3300  1.7600  0.7578
17692TIP3   OH274566   4.808   0.345   6.635 -0.9787  0.6074  0.0964
17692TIP3    H174567   4.774   0.380   6.553 -1.8264  0.1945  0.2722
17692TIP3    H274568   4.752   0.271   6.656 -0.0127 -0.0405  0.4276
17693TIP3   OH274569   6.366   1.244  15.200  0.0002  0.0449 -0.4276
17693TIP3    H174570   6.432   1.198  15.148  0.8692 -0.8202  1.3995
17693TIP3    H274571   6.384   1.337  15.185 -1.5101 -0.1546 -3.8132
17694TIP3   OH274572   0.128   5.620  15.256  0.2479 -0.4064 -0.3389
17694TIP3    H174573   0.143   5.606  15.163 -4.9102  1.4654 -1.5969
17694TIP3    H274574   0.143   5.714  15.269  0.0073 -0.4802  0.5173
17695TIP3   OH274575   2.586   4.528  15.482  0.1828 -0.1808 -0.0687
17695TIP3    H174576   2.659   4.551  15.540  1.1179 -1.2575 -0.8060
17695TIP3    H274577   2.612   4.562  15.397 -0.6410  0.3225 -0.1187
17696TIP3   OH274578   1.114   0.370   3.978 -0.0875 -0.2030  0.1293
17696TIP3    H174579   1.039   0.325   3.939  0.2982 -0.0829 -0.7729
17696TIP3    H274580   1.087   0.391   4.067 -1.1394 -0.1175 -0.2116
17697TIP3   OH274581   5.747   5.622   1.018 -0.4764 -0.0825  0.5347
17697TIP3    H174582   5.790   5.659   0.941 -0.5880 -1.5629 -0.2423
17697TIP3    H274583   5.658   5.657   1.014 -1.2922 -2.2615 -1.5082
17698TIP3   OH274584   5.971   1.350  16.555 -0.3014  0.3072  0.5824
17698TIP3    H174585   5.992   1.302  16.635 -1.2625 -2.2738 -0.6485
17698TIP3    H274586   5.880   1.325  16.535 -1.0900  3.2143  0.2674
17699TIP3   OH274587   5.877   1.507   0.015  0.8259  0.1563 -0.1497
17699TIP3    H174588   5.881   1.546  -0.072 -1.4550 -0.0894 -0.3929
17699TIP3    H274589   5.864   1.414   0.000 -2.0013  0.4083  0.3957
17700TIP3   OH274590   4.699   3.723  12.868 -0.1409 -0.2655 -0.1619
17700TIP3    H174591   4.756   3.666  12.817 -2.1430 -3.1381  0.7114
17700TIP3    H274592   4.756   3.757  12.938  1.6626  0.7796 -2.0774
17701TIP3   OH274593   3.572   5.944  11.564 -1.1092 -0.3539  0.0588
17701TIP3    H174594   3.558   6.039  11.565 -2.1845 -0.5046 -0.2345
17701TIP3    H274595   3.513   5.910  11.632  1.8232 -0.5037  2.6808
17702TIP3   OH274596   5.669   0.125  12.212 -0.3210  0.0932  0.1462
17702TIP3    H174597   5.719   0.128  12.294 -0.3097 -0.2600  0.1536
17702TIP3    H274598   5.684   0.211  12.172 -0.1341  0.1813  0.4005
17703TIP3   OH274599   3.148   4.511  16.940  0.5450  0.0462 -0.2853
17703TIP3    H174600   3.146   4.546  17.029 -1.4868 -0.0971 -0.2498
17703TIP3    H274601   3.215   4.562  16.896  1.1938  0.4881  1.1827
17704TIP3   OH274602   0.229   3.117  16.630 -0.1380 -0.2769  0.5175
17704TIP3    H174603   0.266   3.122  16.542 -1.0202  0.6128  0.1835
17704TIP3    H274604   0.273   3.188  16.678 -1.2494  0.6600  0.1711
17705TIP3   OH274605   0.129   5.318   0.627  0.1757  0.0612 -0.1558
17705TIP3    H174606   0.049   5.278   0.592  0.5347  0.9814 -2.1006
17705TIP3    H274607   0.101   5.404   0.658  0.2111 -0.0361  0.1466
17706TIP3   OH274608   0.322   3.014   4.036 -0.1173 -0.1716 -0.3180
17706TIP3    H174609   0.354   3.071   3.966  0.6796  0.1576  0.3034
17706TIP3    H274610   0.366   2.931   4.021  1.4158  0.4221  0.8147
17707TIP3   OH274611   2.371   5.505   0.689 -0.0724 -0.3130 -0.4245
17707TIP3    H174612   2.285   5.545   0.675  0.9902  2.7019  1.2597
17707TIP3    H274613   2.428   5.546   0.625  0.7325 -0.1291  0.3877
17708TIP3   OH274614   0.698   4.898   2.931 -0.1476 -0.1525 -0.1644
17708TIP3    H174615   0.688   4.991   2.912 -2.3122  0.0644  1.7702
17708TIP3    H274616   0.654   4.854   2.858 -0.8785  0.4218 -0.0832
17709TIP3   OH274617   0.057   1.578   4.808 -0.0176  0.1916 -0.0359
17709TIP3    H174618  -0.038   1.578   4.794 -0.0084 -0.7371 -0.0973
17709TIP3    H274619   0.068   1.585   4.903 -0.1958 -3.0212  0.2569
17710TIP3   OH274620   3.279   6.513  16.281 -0.9428 -0.1653 -0.3623
17710TIP3    H174621   3.307   6.466  16.360 -0.8687  0.7283  0.1453
17710TIP3    H274622   3.353   6.504  16.221 -0.1021  1.0025  0.4726
17711TIP3   OH274623   5.947   2.419  11.101  0.0976 -0.0620  0.1709
17711TIP3    H174624   5.945   2.486  11.032 -0.1165  1.0522  1.2449
17711TIP3    H274625   6.021   2.444  11.156  0.0754 -0.7760  0.5345
17712TIP3   OH274626   5.262   0.021  13.576 -0.5275 -0.3790 -0.7020
17712TIP3    H174627   5.209   0.071  13.514 -0.2867  1.9525  0.9411
17712TIP3    H274628   5.351   0.025  13.540 -0.6720 -0.4250 -1.0658
17713TIP3   OH274629   3.209   0.842  16.474 -0.3640  0.5126 -0.0785
17713TIP3    H174630   3.205   0.932  16.504  0.0478  0.4954  0.0308
17713TIP3    H274631   3.261   0.797  16.540  0.0591  0.3533 -0.5236
17714TIP3   OH274632   3.340   2.401   1.852 -0.1908 -0.8347  0.2449
17714TIP3    H174633   3.288   2.477   1.879  0.1603 -0.0461 -1.3009
17714TIP3    H274634   3.311   2.331   1.912 -1.6684  0.0774  0.6365
17715TIP3   OH274635   0.329   3.492  13.254  0.1530 -0.0059  0.4007
17715TIP3    H174636   0.264   3.484  13.325  0.4854 -0.3538  0.6652
17715TIP3    H274637   0.355   3.402  13.235  0.4976  0.1292  0.2353
17716TIP3   OH274638   2.760   6.303  16.708 -0.7387  0.0515 -0.4254
17716TIP3    H174639   2.715   6.351  16.639 -0.9017  1.0241  0.3448
17716TIP3    H274640   2.700   6.307  16.783 -0.2283 -0.3206  0.0072
17717TIP3   OH274641   5.418   2.919  12.844  0.3477 -0.0193 -0.9708
17717TIP3    H174642   5.510   2.892  12.853  0.3930 -0.1741 -1.8179
17717TIP3    H274643   5.404   2.925  12.749 -0.2944  0.7797 -0.8376
17718TIP3   OH274644   6.290   4.850  15.903 -0.4850  0.3434 -0.1235
17718TIP3    H174645   6.248   4.778  15.950  0.4370  0.5478  1.0248
17718TIP3    H274646   6.327   4.808  15.825  0.1266 -0.4554  0.5813
17719TIP3   OH274647   6.724   5.704   2.856  0.2562  0.5853  0.7000
17719TIP3    H174648   6.667   5.752   2.915  0.5177  0.3744  1.1238
17719TIP3    H274649   6.803   5.687   2.907  1.2420  2.0263 -0.2981
17720TIP3   OH274650   3.768   6.322  10.703 -0.1402 -0.1642 -0.2549
17720TIP3    H174651   3.745   6.356  10.617 -0.6933 -0.1654 -0.1108
17720TIP3    H274652   3.780   6.228  10.689  2.8430  0.2562 -0.9497
17721TIP3   OH274653   3.774   4.154   5.776 -0.6628  0.3101 -0.4472
17721TIP3    H174654   3.766   4.240   5.734  3.5334 -0.3387 -2.8815
17721TIP3    H274655   3.807   4.174   5.864 -3.4863  1.3319  0.4324
17722TIP3   OH274656   0.805   5.368   5.578  0.1510  0.5087 -0.5089
17722TIP3    H174657   0.786   5.461   5.591  2.0038  0.6246  1.6065
17722TIP3    H274658   0.890   5.354   5.619  0.4508 -1.8905 -1.8349
17723TIP3   OH274659   3.727   3.400  13.458  0.1008  0.1191  1.2659
17723TIP3    H174660   3.783   3.361  13.525  1.7981  0.3717  0.0342
17723TIP3    H274661   3.644   3.354  13.466  0.4830 -0.3087  3.0954
17724TIP3   OH274662   6.534   4.429   1.218  0.9651  0.1569 -0.8948
17724TIP3    H174663   6.450   4.405   1.256  1.1454  1.7846  0.6039
17724TIP3    H274664   6.599   4.399   1.282  1.4067  0.7293 -1.0644
17725TIP3   OH274665   5.006   1.645  16.386  0.0932 -0.4576  0.1314
17725TIP3    H174666   4.952   1.724  16.378  2.3014  1.2432  1.5556
17725TIP3    H274667   4.983   1.609  16.472  0.0827 -0.6298  0.0581
17726TIP3   OH274668   1.091   1.449  11.362 -0.0841  0.1337  0.0230
17726TIP3    H174669   1.090   1.519  11.296 -0.4191 -1.5770 -1.8472
17726TIP3    H274670   1.000   1.440  11.389 -0.5450 -1.5302 -1.9283
17727TIP3   OH274671   3.548   3.831  13.057  0.0328 -0.3694  0.4067
17727TIP3    H174672   3.584   3.750  13.021 -1.6406 -1.3736  0.9865
17727TIP3    H274673   3.623   3.891  13.060  1.1534 -1.7032 -0.5460
17728TIP3   OH274674   5.582   5.162   3.118  0.0458  0.3996  0.3542
17728TIP3    H174675   5.563   5.236   3.061  1.3650  0.1328 -0.4487
17728TIP3    H274676   5.573   5.085   3.061 -0.8422 -0.0366  1.0623
17729TIP3   OH274677   4.668   5.998  15.883 -0.2092  0.3685 -0.5592
17729TIP3    H174678   4.676   6.060  15.956  1.8949  0.0573 -0.5006
17729TIP3    H274679   4.576   6.004  15.857 -0.5008  2.0382  0.7457
17730TIP3   OH274680   5.043   2.368  13.194  0.0361 -0.3080 -0.4261
17730TIP3    H174681   4.948   2.361  13.183  0.1774  0.0304 -2.0079
17730TIP3    H274682   5.057   2.457  13.227 -0.1372 -0.1061 -0.9002
17731TIP3   OH274683   1.217   1.339   6.708 -0.2955 -0.6803 -0.4389
17731TIP3    H174684   1.286   1.273   6.700 -0.4107 -1.1352  2.0407
17731TIP3    H274685   1.264   1.420   6.729 -0.4892 -0.9806  1.2043
17732TIP3   OH274686   3.829   6.455  13.477 -0.3432  0.0295  0.2146
17732TIP3    H174687   3.891   6.386  13.454 -0.0784  0.0629  0.8337
17732TIP3    H274688   3.802   6.435  13.566 -0.0853  0.8591  0.4843
17733TIP3   OH274689   0.312   2.631  13.804 -0.1131 -0.3445  0.0768
17733TIP3    H174690   0.376   2.578  13.757  0.1870 -0.3371  0.4746
17733TIP3    H274691   0.300   2.709  13.750 -0.7232 -0.9131 -0.6275
17734TIP3   OH274692   0.402   1.053   3.937  0.3908 -0.4279  0.5330
17734TIP3    H174693   0.334   1.077   3.874  1.2863  1.3424  0.2033
17734TIP3    H274694   0.354   1.029   4.016 -0.6159  2.1109  0.7449
17735TIP3   OH274695   5.095   1.678   5.374 -0.1650  0.0680 -0.0685
17735TIP3    H174696   5.081   1.651   5.283  1.3529 -0.0705 -0.2717
17735TIP3    H274697   5.027   1.745   5.389 -0.7678 -0.2853 -1.1243
17736TIP3   OH274698   4.403   1.879   0.274 -0.1034  0.7431  0.7059
17736TIP3    H174699   4.488   1.844   0.299  0.4722  0.0392 -2.0564
17736TIP3    H274700   4.411   1.974   0.288  1.5916  0.8343 -0.6556
17737TIP3   OH274701   3.682   3.968   3.237 -0.3672  0.2355  0.5269
17737TIP3    H174702   3.677   3.873   3.238  1.7542  0.0684 -0.9722
17737TIP3    H274703   3.635   3.995   3.158  1.2458  0.2401 -0.4502
17738TIP3   OH274704   5.662   6.042  16.425 -0.6143  0.2672  0.5746
17738TIP3    H174705   5.586   6.037  16.483 -0.0936  0.8651  1.3173
17738TIP3    H274706   5.692   5.952  16.419 -1.2957  0.0461  0.3950
17739TIP3   OH274707   2.137   0.828   5.812  0.0838  0.1946  0.6927
17739TIP3    H174708   2.081   0.754   5.789  2.1547 -1.4071  0.6650
17739TIP3    H274709   2.095   0.904   5.771 -0.3822 -1.4412 -1.9584
17740TIP3   OH274710   4.954   2.067   0.975  0.0628 -0.2509 -0.0775
17740TIP3    H174711   5.033   2.073   1.029 -0.4338 -0.0983  0.6376
17740TIP3    H274712   4.897   2.136   1.008 -0.8271 -1.0972  0.1720
17741TIP3   OH274713   0.106   2.372   0.854 -0.8524  0.0294 -0.5231
17741TIP3    H174714   0.056   2.434   0.907  2.2993  3.0828 -0.9510
17741TIP3    H274715   0.115   2.295   0.909 -3.1617  0.6648  0.8172
17742TIP3   OH274716   5.405   2.618  13.022  0.3305 -0.0087  0.0388
17742TIP3    H174717   5.447   2.674  12.956  0.8257 -0.8528 -0.3837
17742TIP3    H274718   5.319   2.658  13.037  1.1172  1.4990  0.5933
17743TIP3   OH274719   5.461   5.070  11.472 -0.5778 -0.3824 -0.1006
17743TIP3    H174720   5.520   5.081  11.397 -0.7454  0.6428 -0.0799
17743TIP3    H274721   5.376   5.048  11.433 -0.6513  0.0906 -0.2049
17744TIP3   OH274722   6.561   3.273   5.535 -0.0546  0.1541 -0.2685
17744TIP3    H174723   6.487   3.330   5.557 -0.3263 -0.7292  1.1535
17744TIP3    H274724   6.614   3.270   5.616  2.2351  1.8106 -1.6444
17745TIP3   OH274725   5.664   0.844   5.559 -0.6637 -0.0813  0.3998
17745TIP3    H174726   5.617   0.895   5.493  0.3287  1.0915  0.5827
17745TIP3    H274727   5.664   0.900   5.637  0.4767 -0.3355  0.5923
17746TIP3   OH274728   1.665   3.522  15.981  0.5218 -0.8967  0.1584
17746TIP3    H174729   1.668   3.520  15.885 -0.4284 -0.6057  0.1113
17746TIP3    H274730   1.717   3.599  16.005 -0.6541  0.0256 -0.2099
17747TIP3   OH274731   6.316   6.445  12.415 -0.1137  0.3996 -0.1498
17747TIP3    H174732   6.246   6.466  12.477 -0.1196  0.2708 -0.1124
17747TIP3    H274733   6.274   6.390  12.348 -0.3380  1.3523 -0.7996
17748TIP3   OH274734   2.920   1.088  14.732 -0.0677  1.0033  0.1195
17748TIP3    H174735   2.949   1.064  14.820 -0.9380  1.1139  0.4408
17748TIP3    H274736   3.001   1.109  14.685  0.4781  0.0997  0.6345
17749TIP3   OH274737   3.439   6.573  14.804 -0.2851  0.2389  0.1163
17749TIP3    H174738   3.482   6.492  14.830 -0.2516 -0.0375 -0.7834
17749TIP3    H274739   3.358   6.545  14.761 -1.3242  0.7469  1.6944
17750TIP3   OH274740   0.294   2.135  11.043  0.4153 -0.4551  0.0851
17750TIP3    H174741   0.274   2.083  10.965 -1.7710  0.8191 -0.2352
17750TIP3    H274742   0.387   2.117  11.060  0.6268 -1.6700 -2.1046
17751TIP3   OH274743   2.477   1.890  12.296 -0.2854  0.0538 -0.0989
17751TIP3    H174744   2.466   1.909  12.203  0.6391  0.1424 -0.1937
17751TIP3    H274745   2.455   1.971  12.341  0.3938  0.3664 -0.3156
17752TIP3   OH274746   4.249   4.987   3.365 -0.4010  0.4992 -0.0484
17752TIP3    H174747   4.211   5.042   3.434 -1.0905  0.3162 -0.2831
17752TIP3    H274748   4.330   4.953   3.403  0.0577  1.7084  0.0947
17753TIP3   OH274749   0.514   5.542  12.971  0.7091  0.1864  0.5380
17753TIP3    H174750   0.483   5.623  13.011  0.7033  0.2527  0.3982
17753TIP3    H274751   0.441   5.480  12.981  0.6886  0.2178  0.5831
17754TIP3   OH274752   6.294   0.834   4.990 -0.4440 -0.7642  0.5900
17754TIP3    H174753   6.242   0.847   5.070 -2.5434 -1.3896 -0.6184
17754TIP3    H274754   6.318   0.742   4.992  0.7422 -0.4473  1.2053
17755TIP3   OH274755   6.034   0.157  14.699 -0.2880 -0.7257 -0.0581
17755TIP3    H174756   5.983   0.237  14.687  0.4551 -0.5993 -2.5486
17755TIP3    H274757   5.985   0.090  14.652  0.6477 -1.0976 -0.5158
17756TIP3   OH274758   5.624   2.667  17.112  0.2324 -0.3818  0.4561
17756TIP3    H174759   5.583   2.752  17.122 -2.6991 -1.6868  0.0251
17756TIP3    H274760   5.639   2.637  17.202  0.2628  0.1240  0.6222
17757TIP3   OH274761   5.880   3.960   3.703  0.0573 -0.2896  0.8119
17757TIP3    H174762   5.823   3.903   3.753  1.4427 -2.2305  0.2428
17757TIP3    H274763   5.840   3.965   3.616  0.4642 -1.2242  0.5660
17758TIP3   OH274764   0.157   0.034   1.346  0.1711 -0.3170  0.0559
17758TIP3    H174765   0.067   0.064   1.358  0.5541  0.8364  0.1082
17758TIP3    H274766   0.199   0.046   1.432  0.1192 -1.7753  0.3030
17759TIP3   OH274767   0.357   2.649  16.876 -0.5808 -0.1705  0.8166
17759TIP3    H174768   0.369   2.632  16.783  2.7181  0.4711  1.0857
17759TIP3    H274769   0.330   2.740  16.881  3.4370  1.1325  0.6502
17760TIP3   OH274770   0.045   3.664   4.010  0.4627 -0.2611  0.3441
17760TIP3    H174771   0.009   3.739   3.961  1.4680  0.6256  0.9353
17760TIP3    H274772   0.011   3.675   4.098 -0.7962 -1.4858  0.0279
17761TIP3   OH274773   5.132   6.564  16.783 -0.6718 -0.3964  0.0323
17761TIP3    H174774   5.043   6.593  16.800 -0.3513 -0.6346  2.2231
17761TIP3    H274775   5.187   6.630  16.825  0.1396 -1.3611  0.5165
17762TIP3   OH274776   1.851   2.357  14.489 -0.3032  0.1236  0.0477
17762TIP3    H174777   1.826   2.430  14.432 -0.5835 -0.9966 -1.3056
17762TIP3    H274778   1.800   2.370  14.569 -2.3665 -0.0570 -1.2091
17763TIP3   OH274779   3.515   2.169  16.638 -0.3960  0.2830  0.1483
17763TIP3    H174780   3.448   2.212  16.585 -0.2807 -0.9738 -1.0672
17763TIP3    H274781   3.553   2.239  16.691 -1.1916  1.3948 -0.7236
17764TIP3   OH274782   4.445   0.601   2.141 -0.4511  0.0666  0.4650
17764TIP3    H174783   4.431   0.696   2.140  2.8827  0.7375 -4.6782
17764TIP3    H274784   4.528   0.589   2.187  0.4066 -0.0169 -1.0549
17765TIP3   OH274785   1.047   4.942   5.549 -0.7854  0.1958  0.2393
17765TIP3    H174786   1.009   4.856   5.528 -1.4466  0.6919 -0.6782
17765TIP3    H274787   1.063   4.939   5.643 -3.0539 -0.0716  0.6496
17766TIP3   OH274788   5.185   6.654  11.050  0.6369  0.1472 -0.2099
17766TIP3    H174789   5.158   6.623  10.964 -1.5401  0.0970  0.4538
17766TIP3    H274790   5.192   6.574  11.102  0.6839  0.2760 -0.0177
17767TIP3   OH274791   5.272   2.295  12.618  0.1282  0.9046  0.3164
17767TIP3    H174792   5.216   2.299  12.696  0.8683 -0.4882  0.9436
17767TIP3    H274793   5.289   2.386  12.596 -1.0988  1.3368  1.0519
17768TIP3   OH274794   3.550   2.544   5.440  0.6788  0.1434  0.6014
17768TIP3    H174795   3.635   2.540   5.397  1.3049 -1.0841  1.9240
17768TIP3    H274796   3.571   2.562   5.532 -0.3845 -1.7943  1.2508
17769TIP3   OH274797   5.013   4.653   5.594  0.5515 -0.3130  0.2444
17769TIP3    H174798   4.924   4.671   5.625  0.2695 -1.8707  0.3969
17769TIP3    H274799   5.001   4.593   5.521  1.3891  0.9004 -0.9080
17770TIP3   OH274800   0.833   1.031   0.840  0.3061 -0.4848  0.3823
17770TIP3    H174801   0.846   1.002   0.930  1.3450  0.5366  0.5685
17770TIP3    H274802   0.887   1.109   0.832 -1.5866  0.7666 -0.4443
17771TIP3   OH274803   5.850   0.686  14.034  0.0498  0.9725  0.2121
17771TIP3    H174804   5.881   0.774  14.058  2.3441 -0.4077  2.5001
17771TIP3    H274805   5.812   0.651  14.114  0.2587 -0.5940 -0.3681
17772TIP3   OH274806   5.920   5.479   2.546 -0.3340  0.2826  0.8295
17772TIP3    H174807   5.938   5.385   2.553 -0.0738  0.2988  0.3896
17772TIP3    H274808   6.003   5.518   2.519 -0.0757  0.8195  2.3111
17773TIP3   OH274809   5.470   4.661   3.592 -0.0456  0.2074 -0.0582
17773TIP3    H174810   5.559   4.683   3.563 -0.2533  0.7049 -0.3386
17773TIP3    H274811   5.476   4.571   3.622  1.2055  1.1359  2.6352
17774TIP3   OH274812   1.660   5.854  12.413  0.2759 -0.0279  1.1585
17774TIP3    H174813   1.742   5.872  12.460  1.0900  1.3265 -0.7197
17774TIP3    H274814   1.664   5.760  12.393  2.3947  0.4301 -0.7519
17775TIP3   OH274815   6.198   1.725  11.750 -0.3778  0.0947  0.3889
17775TIP3    H174816   6.175   1.707  11.659 -0.9336 -1.0306  0.7515
17775TIP3    H274817   6.287   1.762  11.745  0.3507 -1.7269 -0.4574
17776TIP3   OH274818   3.853   4.992   4.273 -0.7614  0.1237 -0.3207
17776TIP3    H174819   3.816   4.920   4.222 -0.5875 -0.0207 -0.2455
17776TIP3    H274820   3.873   5.060   4.209  1.5478 -0.9169 -0.7750
17777TIP3   OH274821   1.969   2.914   1.962 -0.3084 -0.0139  0.7206
17777TIP3    H174822   1.989   2.821   1.978  1.5425  0.4302  1.0650
17777TIP3    H274823   2.048   2.950   1.924 -0.5669  1.7228  1.7509
17778TIP3   OH274824   0.120   3.943   6.419 -0.1025 -0.3738 -0.0913
17778TIP3    H174825   0.067   3.865   6.405 -0.8878  0.2282 -0.4628
17778TIP3    H274826   0.101   4.000   6.344  0.0676  0.3951  0.4404
17779TIP3   OH274827   2.439   6.806   5.010 -0.3453  0.2762 -0.4597
17779TIP3    H174828   2.360   6.766   5.046 -0.6908 -0.4078 -1.9207
17779TIP3    H274829   2.511   6.757   5.050 -0.5875  1.8407  1.9821
17780TIP3   OH274830   6.578   1.493   3.923  0.8999  0.0327  0.2183
17780TIP3    H174831   6.581   1.418   3.982  0.8755 -1.3109 -1.4349
17780TIP3    H274832   6.488   1.493   3.889  0.5997  1.4431  0.9973
17781TIP3   OH274833   3.243   2.629  15.000 -0.1948  0.3768 -0.0423
17781TIP3    H174834   3.184   2.683  14.948 -1.4066  1.6773  2.5678
17781TIP3    H274835   3.296   2.692  15.050 -1.0535 -0.7667  2.4190
17782TIP3   OH274836   1.500   3.000   4.333  0.1928  0.1363  0.2710
17782TIP3    H174837   1.431   3.063   4.314 -1.1364 -1.0310  1.0740
17782TIP3    H274838   1.562   3.048   4.387  1.0291  1.7612 -2.0547
17783TIP3   OH274839   0.476   0.471   1.843 -0.3151  0.0584 -0.2088
17783TIP3    H174840   0.395   0.479   1.793 -0.8082  0.2839  0.6037
17783TIP3    H274841   0.524   0.552   1.825 -1.1729  0.8222  0.8583
17784TIP3   OH274842   2.352   3.999   1.690  0.1224 -0.1648 -0.0334
17784TIP3    H174843   2.288   3.964   1.628 -0.0895 -1.1803  0.7371
17784TIP3    H274844   2.317   3.977   1.776 -0.6350  3.1125  0.5401
17785TIP3   OH274845   4.435   0.721   5.889 -1.1018 -0.0607 -0.5773
17785TIP3    H174846   4.440   0.815   5.905  0.4953 -0.1816 -0.2777
17785TIP3    H274847   4.395   0.685   5.968  1.0609  0.0485  0.6065
17786TIP3   OH274848   1.557   6.025   3.163 -0.4341  0.0717  0.2998
17786TIP3    H174849   1.645   6.025   3.200 -1.4518  0.5126  2.8131
17786TIP3    H274850   1.511   5.955   3.210 -1.9516  1.0674  0.3435
17787TIP3   OH274851   4.961   2.261  12.134  0.2045  0.0917 -0.8983
17787TIP3    H174852   4.953   2.188  12.072  0.3833  0.7237 -1.6801
17787TIP3    H274853   4.973   2.338  12.078 -0.6728  0.8110 -0.1005
17788TIP3   OH274854   0.032   0.822  16.376 -0.0951 -0.4666 -0.4926
17788TIP3    H174855   0.066   0.826  16.287 -0.6675  0.3710 -0.6853
17788TIP3    H274856   0.039   0.911  16.408  0.5286 -0.8592  0.4673
17789TIP3   OH274857   3.435   4.425   3.979  0.2184 -0.1191 -0.1179
17789TIP3    H174858   3.389   4.509   3.990  1.5396  0.4844  0.9718
17789TIP3    H274859   3.463   4.425   3.887 -1.3718 -0.1994 -0.6175
17790TIP3   OH274860   2.134   1.262  16.526 -0.6064 -0.0826 -0.2493
17790TIP3    H174861   2.055   1.313  16.508  0.1741  0.6593 -1.6419
17790TIP3    H274862   2.171   1.303  16.604 -1.6706 -0.5372  0.5086
17791TIP3   OH274863   2.901   3.467  10.842 -0.5298 -0.1337  0.5214
17791TIP3    H174864   2.934   3.465  10.752  0.7559  0.0407  0.9864
17791TIP3    H274865   2.813   3.505  10.834 -0.1331  0.5775 -0.5710
17792TIP3   OH274866   1.623   2.337   3.584  0.0043  0.5945  0.6973
17792TIP3    H174867   1.543   2.294   3.615  0.0179 -0.8832 -1.1867
17792TIP3    H274868   1.605   2.431   3.591 -1.7741  0.2701  0.6043
17793TIP3   OH274869   4.815   3.728   1.329 -0.5708  0.1231  0.2479
17793TIP3    H174870   4.835   3.771   1.246 -1.5352 -0.2763 -0.2008
17793TIP3    H274871   4.862   3.645   1.325 -0.4655  0.1859  0.1786
17794TIP3   OH274872   2.795   0.482   1.371  0.3819  0.3515  0.2587
17794TIP3    H174873   2.861   0.417   1.349  0.1040  0.0580  0.2996
17794TIP3    H274874   2.841   0.566   1.362  0.6029  0.1784 -0.2759
17795TIP3   OH274875   3.344   5.533   2.367  0.1168  0.2246  0.8326
17795TIP3    H174876   3.262   5.569   2.402 -0.2302  0.1025  0.1625
17795TIP3    H274877   3.406   5.605   2.370 -0.3498  0.6511  0.2557
17796TIP3   OH274878   0.710   1.521   0.028  0.5480 -0.6991 -0.3568
17796TIP3    H174879   0.752   1.481   0.104 -0.3744 -0.7421  0.1285
17796TIP3    H274880   0.618   1.495   0.034 -0.0909  1.4550 -0.0299
17797TIP3   OH274881   0.493   1.104   0.877 -0.0142 -0.0461 -0.0198
17797TIP3    H174882   0.457   1.053   0.949 -0.7282  0.3460 -0.0913
17797TIP3    H274883   0.583   1.073   0.868 -0.3536 -1.1004  0.1108
17798TIP3   OH274884   3.240   4.649  12.465  0.3432 -0.1850 -1.0818
17798TIP3    H174885   3.318   4.701  12.446 -0.0212  0.9287  0.4367
17798TIP3    H274886   3.275   4.564  12.492  1.0756  0.5673  0.3992
17799TIP3   OH274887   2.730   3.763  13.985  0.0741  0.4738  0.6139
17799TIP3    H174888   2.805   3.792  13.932  0.6568  0.1048  1.2175
17799TIP3    H274889   2.708   3.677  13.949 -1.0712  1.2509 -0.5822
17800TIP3   OH274890   0.491   6.404   5.959  0.2701 -0.4613 -0.6629
17800TIP3    H174891   0.571   6.450   5.987  1.0570 -1.8277 -0.6205
17800TIP3    H274892   0.515   6.364   5.876 -0.7259  0.0152 -1.1800
17801TIP3   OH274893   3.677   0.991   3.894 -0.0622 -0.4061 -0.1856
17801TIP3    H174894   3.743   1.006   3.826  0.7842 -0.3444  0.6407
17801TIP3    H274895   3.687   0.899   3.917 -0.8654 -0.6205 -0.6745
17802TIP3   OH274896   6.493   0.333  14.759  0.6320 -0.7790  0.0165
17802TIP3    H174897   6.428   0.340  14.690 -0.5066  0.3928  1.1710
17802TIP3    H274898   6.565   0.285  14.720  0.0313 -0.0846 -1.9947
17803TIP3   OH274899   0.170   5.454   2.378  0.5468 -0.9688  0.1562
17803TIP3    H174900   0.105   5.516   2.413  1.0909  0.9712 -2.0992
17803TIP3    H274901   0.121   5.374   2.363 -1.1555  0.1640 -0.5835
17804TIP3   OH274902   5.101   5.674   3.743  0.5782 -0.0338 -0.4303
17804TIP3    H174903   5.025   5.725   3.715  0.1743 -0.6301 -0.4188
17804TIP3    H274904   5.094   5.671   3.839  1.2377  0.8789 -0.3501
17805TIP3   OH274905   3.809   2.616   5.381  0.2810  0.4690  0.5479
17805TIP3    H174906   3.844   2.637   5.468  1.2209 -0.2784  0.3511
17805TIP3    H274907   3.825   2.695   5.330  2.6162 -0.1924  0.1838
17806TIP3   OH274908   6.065   0.752  11.641 -0.3530  0.1904 -0.5463
17806TIP3    H174909   6.064   0.779  11.549 -0.4169 -2.3713 -1.3206
17806TIP3    H274910   5.994   0.688  11.648  2.2274 -2.6849  0.3212
17807TIP3   OH274911   6.416   2.064   3.787  0.2561  0.6094  0.0239
17807TIP3    H174912   6.473   1.987   3.782 -0.7081 -0.0859 -0.7016
17807TIP3    H274913   6.338   2.032   3.832  0.4891  1.5759  1.1009
17808TIP3   OH274914   3.669   0.035  13.914  0.1701 -0.6830  0.2363
17808TIP3    H174915   3.640   0.118  13.876  0.7356 -1.4800 -1.9720
17808TIP3    H274916   3.625   0.032  14.000 -1.2520  1.0599 -0.3879
17809TIP3   OH274917   5.612   4.005  14.876 -0.4795 -0.4010 -0.2506
17809TIP3    H174918   5.519   3.995  14.899 -0.6530  0.2871 -0.6434
17809TIP3    H274919   5.658   4.004  14.960 -0.9135 -0.0015 -0.0047
17810TIP3   OH274920   0.475   4.220  14.105  0.4525  0.0967 -0.0368
17810TIP3    H174921   0.534   4.207  14.031  1.2896  1.3529  0.3920
17810TIP3    H274922   0.525   4.274  14.166 -0.9096  0.6469  0.6193
17811TIP3   OH274923   2.770   2.471  16.753 -0.4118 -0.0256  0.2228
17811TIP3    H174924   2.786   2.472  16.659  0.6930 -0.1124  0.4085
17811TIP3    H274925   2.832   2.407  16.788 -0.1214  0.7375  1.1292
17812TIP3   OH274926   4.608   1.864  15.947  0.0320  0.5692 -0.2642
17812TIP3    H174927   4.613   1.788  15.888  2.0948  0.1326  0.4152
17812TIP3    H274928   4.561   1.832  16.024 -0.8123  0.5424 -0.7856
17813TIP3   OH274929   0.528   1.334  13.344  0.5944  0.8240 -0.8197
17813TIP3    H174930   0.503   1.344  13.435 -0.9283  2.0228 -1.3415
17813TIP3    H274931   0.557   1.243  13.336 -2.5138 -0.3205  0.1195
17814TIP3   OH274932   3.629   0.380   3.654  0.3052  0.0372 -0.2956
17814TIP3    H174933   3.546   0.336   3.634 -0.1892  0.8963 -0.1579
17814TIP3    H274934   3.696   0.322   3.618 -0.4066 -0.1213 -1.3861
17815TIP3   OH274935   1.082   6.485   6.256  0.0857 -0.0114 -0.0808
17815TIP3    H174936   1.100   6.549   6.187 -0.2278 -1.7444 -1.8158
17815TIP3    H274937   1.148   6.502   6.323 -0.1318  2.2579 -0.4148
17816TIP3   OH274938   1.916   5.507  11.797  0.2256  0.2232 -0.1708
17816TIP3    H174939   1.823   5.525  11.811  0.5512 -0.1235  2.8391
17816TIP3    H274940   1.945   5.577  11.738 -1.5936  1.2820  0.1444
17817TIP3   OH274941   6.674   1.699  12.352  0.0399 -0.1801  0.2011
17817TIP3    H174942   6.704   1.785  12.323  1.6853 -0.9368 -0.3854
17817TIP3    H274943   6.685   1.642  12.275  0.1539 -1.1950  0.9552
17818TIP3   OH274944   3.567   0.987  11.759 -0.9497  0.2856 -0.1008
17818TIP3    H174945   3.580   0.979  11.854  0.7855  2.3958 -0.1356
17818TIP3    H274946   3.572   1.081  11.742  0.1608 -0.1774 -2.4850
17819TIP3   OH274947   5.372   2.503  11.334 -0.6791 -0.3320 -0.2285
17819TIP3    H174948   5.395   2.463  11.250 -0.8737  0.7147 -0.7870
17819TIP3    H274949   5.456   2.514  11.379 -0.2026  2.0440 -1.6151
17820TIP3   OH274950   4.175   5.390   4.102  0.7892 -0.3126  0.2714
17820TIP3    H174951   4.144   5.460   4.046  0.3209  1.3925  2.5576
17820TIP3    H274952   4.270   5.389   4.090  0.7630  0.5445  0.0183
17821TIP3   OH274953   1.087   2.352   4.024  0.2374  0.1455  0.3778
17821TIP3    H174954   1.128   2.419   3.969 -0.5285  0.8171  0.6046
17821TIP3    H274955   1.080   2.393   4.110  0.8334 -0.6580  0.8126
17822TIP3   OH274956   0.678   1.261  16.243 -0.2473 -0.2394 -0.3706
17822TIP3    H174957   0.743   1.269  16.313  0.2464 -0.3504 -0.8101
17822TIP3    H274958   0.695   1.336  16.186 -0.4520 -0.3129 -0.5280
17823TIP3   OH274959   0.015   0.124  16.742  0.4147 -0.3165 -0.2788
17823TIP3    H174960   0.077   0.169  16.799  2.6078 -1.2251 -1.8806
17823TIP3    H274961  -0.029   0.195  16.694  1.4383  0.2545 -0.3761
17824TIP3   OH274962   1.465   1.136  15.166  0.0532  0.9090 -0.7486
17824TIP3    H174963   1.536   1.106  15.108  0.2392  0.4545 -0.2856
17824TIP3    H274964   1.483   1.094  15.250 -2.2053 -1.2692 -1.3024
17825TIP3   OH274965   6.629   3.999   6.290  0.0678 -0.0345 -0.1052
17825TIP3    H174966   6.649   3.908   6.270 -1.0064  0.2181 -2.5100
17825TIP3    H274967   6.712   4.046   6.279  0.3577 -0.5278 -0.0098
17826TIP3   OH274968   6.789   4.488   0.004  0.3741  0.9768  0.1795
17826TIP3    H174969   6.860   4.507  -0.058  1.2151 -0.8107  0.5681
17826TIP3    H274970   6.729   4.432  -0.045  1.4403 -1.0996  1.1913
17827TIP3   OH274971   5.011   3.604   0.433  0.0624  0.2310  0.5004
17827TIP3    H174972   4.942   3.556   0.387  1.8996  0.2603 -2.3789
17827TIP3    H274973   4.964   3.668   0.486 -2.2358 -1.7698  0.9588
17828TIP3   OH274974   3.730   3.697  12.650  0.0132 -0.1733  0.2373
17828TIP3    H174975   3.738   3.641  12.573  0.6979 -0.0964  0.2495
17828TIP3    H274976   3.642   3.734  12.643  0.0737 -0.1534 -0.5150
17829TIP3   OH274977   1.232   6.744  16.237 -0.3861 -0.6864  0.0642
17829TIP3    H174978   1.218   6.751  16.143  0.6158 -0.9086 -0.1001
17829TIP3    H274979   1.144   6.754  16.274 -0.8940 -1.3195 -0.9288
17830TIP3   OH274980   3.316   3.559  16.086 -0.4426 -0.3086 -0.6716
17830TIP3    H174981   3.256   3.581  16.157 -1.3251  1.1239 -1.8189
17830TIP3    H274982   3.375   3.634  16.081 -0.1898 -0.5448 -1.2297
17831TIP3   OH274983   5.165   5.098  16.611  0.5762 -0.5492 -0.0715
17831TIP3    H174984   5.091   5.051  16.650  0.8526  0.0195  1.1598
17831TIP3    H274985   5.160   5.186  16.649  1.9513 -0.5474  0.1116
17832TIP3   OH274986   6.632   0.844  16.611 -0.6417  0.1152 -0.2924
17832TIP3    H174987   6.611   0.774  16.672  0.9305 -0.9767 -0.9629
17832TIP3    H274988   6.584   0.822  16.531  0.4802 -0.6307 -0.7637
17833TIP3   OH274989   2.058   1.900   2.845  0.0468 -0.9124  0.3406
17833TIP3    H174990   2.017   1.963   2.904 -2.0793 -0.8929 -1.1085
17833TIP3    H274991   2.133   1.947   2.808 -1.3002  0.6627 -0.4399
17834TIP3   OH274992   3.875   2.685  16.437 -0.3214  0.4917 -0.4138
17834TIP3    H174993   3.797   2.722  16.477 -0.8005  0.1418 -1.0121
17834TIP3    H274994   3.842   2.630  16.366  0.4426 -0.0994 -0.3184
17835TIP3   OH274995   0.188   3.214  11.815  0.0308  0.1846  0.0100
17835TIP3    H174996   0.269   3.176  11.780 -0.1593 -0.0399 -0.1870
17835TIP3    H274997   0.184   3.301  11.776  0.4074  0.3669  0.3732
17836TIP3   OH274998   6.011   3.535   1.212 -0.5699 -0.1961 -0.3358
17836TIP3    H174999   5.919   3.519   1.233 -0.9222  1.7396 -0.3786
17836TIP3    H275000   6.010   3.570   1.123  0.2908 -0.8504 -0.6152
17837TIP3   OH275001   4.652   4.324   0.153 -0.4744 -0.4762 -0.4407
17837TIP3    H175002   4.709   4.321   0.231 -1.8932  1.0752  0.6921
17837TIP3    H275003   4.570   4.360   0.185 -1.2943 -0.3921 -2.5699
17838TIP3   OH275004   5.326   3.036  15.397  0.0235 -0.4014 -0.2016
17838TIP3    H175005   5.254   3.092  15.369  1.3113  1.0027 -0.7681
17838TIP3    H275006   5.338   3.057  15.490  0.4392  0.1759 -0.3877
17839TIP3   OH275007   1.975   5.297  12.715 -0.0298  0.1544  0.6082
17839TIP3    H175008   1.921   5.276  12.639 -0.7164  1.3207  0.7627
17839TIP3    H275009   1.945   5.239  12.784 -0.3328  0.0345  0.3744
17840TIP3   OH275010   5.096   5.215   5.356  0.0936 -0.0281 -0.1572
17840TIP3    H175011   5.135   5.191   5.272  1.5492  2.3333 -0.2158
17840TIP3    H275012   5.091   5.311   5.353  1.1011  0.1694  2.8166
17841TIP3   OH275013   4.330   6.707  15.085 -0.4836 -0.1187  0.2190
17841TIP3    H175014   4.423   6.719  15.065  0.1503 -1.7386  2.0442
17841TIP3    H275015   4.321   6.613  15.104 -2.3274  0.1772  0.9430
17842TIP3   OH275016   1.461   3.965  12.230  0.1538  0.2961 -0.5061
17842TIP3    H175017   1.389   4.016  12.265  0.0588  0.1882 -0.5440
17842TIP3    H275018   1.421   3.908  12.164 -0.2314 -1.8878  1.5436
17843TIP3   OH275019   2.653   6.702  16.865  0.6272 -0.2839 -0.2662
17843TIP3    H175020   2.616   6.790  16.862  0.6742 -0.1977  1.1195
17843TIP3    H275021   2.599   6.650  16.806 -1.2266  0.0175  1.1248
17844TIP3   OH275022   0.362   0.020  14.198 -0.2681  0.2777  0.0938
17844TIP3    H175023   0.443  -0.012  14.160 -0.4219  0.5189 -0.4473
17844TIP3    H275024   0.351  -0.029  14.279  0.8318  0.8208  0.5760
17845TIP3   OH275025   0.234   2.072   4.376 -0.4447  0.0392 -0.0706
17845TIP3    H175026   0.307   2.009   4.374  0.0629  0.6572 -2.9609
17845TIP3    H275027   0.277   2.158   4.376 -1.1688  0.3996 -0.1611
17846TIP3   OH275028   4.998   0.092  12.700 -0.3950 -0.0809  0.3120
17846TIP3    H175029   5.082   0.074  12.657 -0.9276 -3.9798  0.6637
17846TIP3    H275030   5.020   0.103  12.792 -0.0743  0.7519  0.1365
17847TIP3   OH275031   5.881   4.682   5.399 -0.4186 -0.0763  0.1739
17847TIP3    H175032   5.829   4.623   5.342 -1.7676  0.2125  1.0839
17847TIP3    H275033   5.946   4.720   5.340 -0.8201 -0.9411 -0.8621
17848TIP3   OH275034   2.461   3.250   1.331 -0.2772  0.4397  0.6801
17848TIP3    H175035   2.402   3.226   1.259  1.1172  1.8346 -0.9909
17848TIP3    H275036   2.548   3.253   1.290  0.3648  2.5043  2.1447
17849TIP3   OH275037   2.963   2.300  16.850 -0.6170  0.1321  0.6507
17849TIP3    H175038   2.940   2.210  16.873 -0.0442 -0.3985 -0.8239
17849TIP3    H275039   3.053   2.294  16.817 -0.6536  1.2184  0.3380
17850TIP3   OH275040   3.279   3.641   3.036 -0.5008  0.2617 -0.0369
17850TIP3    H175041   3.350   3.595   2.991 -0.8682  0.7730 -1.1324
17850TIP3    H275042   3.316   3.661   3.122  0.7287  0.6229 -0.6318
17851TIP3   OH275043   3.761   2.949  11.149 -0.1933  0.0063 -0.0440
17851TIP3    H175044   3.759   2.863  11.107 -2.2463  0.7323 -1.5375
17851TIP3    H275045   3.765   2.931  11.243 -0.6363 -1.7278 -0.3519
17852TIP3   OH275046   0.428   1.711   2.796 -0.0385 -0.0705  0.2778
17852TIP3    H175047   0.518   1.732   2.770  0.2586 -0.8661  0.6291
17852TIP3    H275048   0.403   1.780   2.857  0.2293  0.3097 -0.0392
17853TIP3   OH275049   5.938   4.916  14.813 -0.1482  0.3942  0.6599
17853TIP3    H175050   5.981   4.881  14.891 -0.1222  1.7503  1.2618
17853TIP3    H275051   5.881   4.845  14.784  0.1736 -0.2881  1.6589
17854TIP3   OH275052   1.930   5.524  14.758 -0.7012  0.7896  0.1633
17854TIP3    H175053   1.866   5.559  14.696 -0.0868 -0.1922 -1.0372
17854TIP3    H275054   1.895   5.549  14.844 -1.9500  1.5077 -0.5262
17855TIP3   OH275055   6.230   0.380  12.314  0.1598  0.5404  0.5695
17855TIP3    H175056   6.192   0.373  12.401  0.9879  1.9468  1.0555
17855TIP3    H275057   6.202   0.300  12.269  1.0657 -0.9686  2.6323
17856TIP3   OH275058   5.185   6.196  13.458 -0.3301 -0.1569  0.5376
17856TIP3    H175059   5.260   6.137  13.455  0.8318  1.3604 -1.7720
17856TIP3    H275060   5.212   6.267  13.516 -0.1367  0.1924  0.0177
17857TIP3   OH275061   5.056   3.123   2.478  0.0216  0.2693 -0.2215
17857TIP3    H175062   5.065   3.190   2.547  1.8124 -0.4880  0.2993
17857TIP3    H275063   4.965   3.095   2.485 -0.1106  0.9607  1.1509
17858TIP3   OH275064   0.265   1.884  14.347  0.4109  0.0851  0.4968
17858TIP3    H175065   0.296   1.877  14.437  1.4847 -0.5220  0.0795
17858TIP3    H275066   0.285   1.974  14.321 -0.6273  0.5070  1.1233
17859TIP3   OH275067   5.523   5.948   0.525  0.1155 -0.1137 -0.1889
17859TIP3    H175068   5.489   5.862   0.548 -0.1030  0.2791  0.9792
17859TIP3    H275069   5.501   6.004   0.600 -0.1563  1.0658 -1.1248
17860TIP3   OH275070   0.527   2.187  14.726 -0.5197 -0.4770 -0.0027
17860TIP3    H175071   0.477   2.174  14.807  1.4221 -0.6457  1.2166
17860TIP3    H275072   0.617   2.199  14.756  0.2598 -0.7339 -2.1799
17861TIP3   OH275073   1.665   5.227   4.641 -0.0894 -0.3090 -0.5778
17861TIP3    H175074   1.629   5.255   4.726 -0.0396  0.3969 -0.7887
17861TIP3    H275075   1.760   5.234   4.652 -0.1187  1.0570 -1.1213
17862TIP3   OH275076   5.031   3.812   6.627  0.5572 -0.2394  0.0514
17862TIP3    H175077   4.999   3.879   6.687  1.1891  1.1894 -1.1676
17862TIP3    H275078   4.963   3.805   6.560  0.7923 -0.3311 -0.1792
17863TIP3   OH275079   1.511   0.944   3.084 -0.0334 -0.6791 -0.1276
17863TIP3    H175080   1.434   0.996   3.108  1.6120  0.8799  1.8865
17863TIP3    H275081   1.474   0.862   3.052 -2.6429  1.1204 -1.9655
17864TIP3   OH275082   4.395   2.245  12.493  0.4327  0.0525  0.0406
17864TIP3    H175083   4.376   2.167  12.441  0.6664 -1.2278  1.8619
17864TIP3    H275084   4.311   2.269  12.533  0.7661 -0.4024  1.0191
17865TIP3   OH275085   5.273   1.489   4.553 -0.0136  0.5058 -0.1626
17865TIP3    H175086   5.189   1.532   4.570  0.0560  0.5099  0.1787
17865TIP3    H275087   5.329   1.517   4.626 -0.5143 -1.6553  1.0804
17866TIP3   OH275088   5.255   6.188   1.901 -0.0462  0.6194 -0.4245
17866TIP3    H175089   5.260   6.263   1.842  0.2743  1.3847  0.5424
17866TIP3    H275090   5.244   6.112   1.844 -1.7370  1.5344 -1.3471
17867TIP3   OH275091   2.838   2.471   0.651  0.3393  0.1617  0.1160
17867TIP3    H175092   2.883   2.548   0.616 -0.0156  0.6048  0.6249
17867TIP3    H275093   2.893   2.442   0.724 -1.2284  1.9241  2.0484
17868TIP3   OH275094   1.234   2.456   2.568 -0.3102  0.0499  0.1097
17868TIP3    H175095   1.157   2.431   2.516  0.6088  2.2208 -2.4152
17868TIP3    H275096   1.213   2.542   2.603  0.3504 -0.0421  0.7501
17869TIP3   OH275097   5.063   2.047   4.206  0.5160 -0.0421  0.1608
17869TIP3    H175098   5.029   2.127   4.165  0.0628  0.2609  1.1152
17869TIP3    H275099   5.149   2.071   4.239  1.3912 -0.6141 -1.6319
17870TIP3   OH275100   1.703   0.165  13.905 -0.3906 -0.1992 -0.4466
17870TIP3    H175101   1.643   0.198  13.971 -1.0482 -2.1445 -0.0383
17870TIP3    H275102   1.650   0.158  13.825 -0.5476 -1.2774 -0.2558
17871TIP3   OH275103   2.405   3.926   5.346 -0.0054 -0.3562 -0.5478
17871TIP3    H175104   2.459   3.885   5.413 -0.6691 -1.4552 -0.6833
17871TIP3    H275105   2.394   3.859   5.279 -1.0811  0.0432 -0.7775
17872TIP3   OH275106   4.497   6.203   5.761  0.2390 -0.1603  0.5068
17872TIP3    H175107   4.550   6.177   5.685  0.1938  0.9348  0.0745
17872TIP3    H275108   4.554   6.189   5.836  0.2921 -1.2401  0.2694
17873TIP3   OH275109   5.165   3.845   1.807  0.6227 -0.3299  0.1274
17873TIP3    H175110   5.089   3.810   1.762  1.4150 -1.1405 -0.5968
17873TIP3    H275111   5.188   3.924   1.759 -1.4549  1.5238  2.0466
17874TIP3   OH275112   0.316   6.263   0.324  0.6117 -0.1294  0.8965
17874TIP3    H175113   0.235   6.294   0.284  1.2839  0.0478 -0.3533
17874TIP3    H275114   0.338   6.183   0.275 -0.4184 -1.9046  3.2383
17875TIP3   OH275115   0.168   2.448   2.037  0.2166 -0.2062 -0.3445
17875TIP3    H175116   0.250   2.490   2.009 -0.0470 -0.3955 -1.4201
17875TIP3    H275117   0.146   2.389   1.965 -0.6426 -0.4762  0.1371
17876TIP3   OH275118   3.420   1.894   1.150  0.0935 -0.5407  0.0314
17876TIP3    H175119   3.380   1.931   1.071  0.7399  1.7593  0.7284
17876TIP3    H275120   3.514   1.899   1.132  0.1773 -2.8493 -0.2672
17877TIP3   OH275121   1.142   3.207  11.805 -0.6205 -0.4504  0.1665
17877TIP3    H175122   1.110   3.121  11.774 -0.7136 -0.9462  1.6115
17877TIP3    H275123   1.230   3.214  11.769 -1.2895 -0.3323 -1.4920
17878TIP3   OH275124   6.250   1.015   0.368  0.4686 -0.6707  0.0758
17878TIP3    H175125   6.294   1.000   0.452 -0.0358 -0.6414  0.3505
17878TIP3    H275126   6.185   0.945   0.362  0.5792 -0.7376 -0.3438
17879TIP3   OH275127   6.744   5.036  13.798 -0.3798 -0.2626 -0.2491
17879TIP3    H175128   6.705   4.949  13.801 -1.8871  0.3954 -0.1669
17879TIP3    H275129   6.719   5.070  13.712  1.8254 -0.6313 -1.0532
17880TIP3   OH275130   3.984   5.122  16.648  0.6921  0.2011  0.4809
17880TIP3    H175131   3.906   5.172  16.674  0.7609  0.5543 -0.0042
17880TIP3    H275132   4.038   5.184  16.601  1.3689  0.0081  0.9968
17881TIP3   OH275133   5.399   2.842  16.401  0.0470 -0.1734 -0.0240
17881TIP3    H175134   5.370   2.752  16.419  1.4751 -0.4823  0.7689
17881TIP3    H275135   5.411   2.881  16.488  1.2577  0.1963 -0.3520
17882TIP3   OH275136   4.749   3.861   6.772  0.2423  0.2358  0.3888
17882TIP3    H175137   4.752   3.855   6.677 -0.2021 -0.5342  0.4138
17882TIP3    H275138   4.670   3.811   6.796  1.2828 -1.0177  1.2719
17883TIP3   OH275139   1.127   0.671   6.624  0.5144  0.2003  0.8855
17883TIP3    H175140   1.138   0.750   6.572  1.0547 -0.5582 -0.1916
17883TIP3    H275141   1.216   0.638   6.636  0.1342 -1.5020 -0.7119
17884TIP3   OH275142   3.722   3.715  16.740 -0.1366  0.4633  0.5870
17884TIP3    H175143   3.632   3.685  16.724  0.1871 -1.0633  1.4645
17884TIP3    H275144   3.711   3.799  16.784 -1.2158 -0.4670  2.2087
17885TIP3   OH275145   4.782   6.505   5.194  0.9135  0.1101 -0.0837
17885TIP3    H175146   4.781   6.504   5.098  1.8673  1.4119 -0.1188
17885TIP3    H275147   4.853   6.565   5.217 -1.9477  3.0552  1.4312
17886TIP3   OH275148   1.310   5.024  11.512 -0.2574  0.0151 -0.0597
17886TIP3    H175149   1.235   5.082  11.514 -1.1565 -1.1493  1.5046
17886TIP3    H275150   1.310   4.986  11.424 -1.0051  0.6510 -0.3335
17887TIP3   OH275151   1.942   0.628   5.785 -0.4943  0.1263  0.9118
17887TIP3    H175152   1.952   0.617   5.880 -0.6424 -0.1899  0.8907
17887TIP3    H275153   1.929   0.540   5.752  1.1860  0.0578  0.3905
17888TIP3   OH275154   0.943   5.006  16.392  0.2906 -0.0866  0.1822
17888TIP3    H175155   1.038   4.993  16.401  0.2125 -1.2048 -0.5026
17888TIP3    H275156   0.905   4.920  16.409 -0.5954  0.3186  0.2916
17889TIP3   OH275157   0.128   6.739   4.565 -0.0083  0.0727 -0.6225
17889TIP3    H175158   0.098   6.720   4.654  1.5067  1.0429  0.1041
17889TIP3    H275159   0.104   6.830   4.550  2.0170  0.6765 -0.2532
17890TIP3   OH275160   0.506   4.104  11.438  0.2508 -0.2851  0.5501
17890TIP3    H175161   0.423   4.149  11.452 -0.1138 -1.5506  2.6256
17890TIP3    H275162   0.484   4.032  11.378 -0.0625 -0.3744  0.7728
17891TIP3   OH275163   1.847   2.515  12.268 -0.3213 -0.3663  0.0448
17891TIP3    H175164   1.755   2.521  12.293 -0.2914  0.5245 -0.0731
17891TIP3    H275165   1.894   2.500  12.351 -0.4573  0.2843  0.2376
17892TIP3   OH275166   1.718   2.579  13.389 -0.1503  0.2588  0.8182
17892TIP3    H175167   1.725   2.666  13.349 -0.3684  0.1289  0.4928
17892TIP3    H275168   1.801   2.566  13.434  0.8105 -0.3550 -1.1127
17893TIP3   OH275169   4.990   4.080   2.498 -0.6389  0.2032  0.7744
17893TIP3    H175170   4.983   4.118   2.411  2.3562 -0.6464  0.0943
17893TIP3    H275171   4.920   4.014   2.501 -3.0940  2.6994  0.4203
17894TIP3   OH275172   2.916   1.864   3.861 -0.0119 -0.4196 -0.1778
17894TIP3    H175173   2.969   1.938   3.891 -1.1381  0.2878  0.1188
17894TIP3    H275174   2.979   1.796   3.840  0.8988 -0.5606  2.7638
17895TIP3   OH275175   0.343   0.212   0.186  0.2316 -0.0733  0.1221
17895TIP3    H175176   0.368   0.231   0.095 -0.7018 -0.1121 -0.1509
17895TIP3    H275177   0.378   0.124   0.202 -0.4025 -0.4541 -0.5203
17896TIP3   OH275178   6.726   6.550   0.192  0.7546 -0.1467 -0.1008
17896TIP3    H175179   6.785   6.477   0.169  1.6709  0.2836  0.8408
17896TIP3    H275180   6.722   6.548   0.288 -0.6786 -0.0834 -0.1441
17897TIP3   OH275181   1.383   2.512   4.030 -0.0387  0.0656 -0.0224
17897TIP3    H175182   1.454   2.570   4.001 -0.4197  0.1985 -0.6934
17897TIP3    H275183   1.334   2.492   3.951 -0.5015 -0.3776  0.3712
17898TIP3   OH275184   3.632   3.432  11.404  0.0945  0.1431 -0.4714
17898TIP3    H175185   3.621   3.524  11.379  1.9258  0.3716 -0.5320
17898TIP3    H275186   3.661   3.389  11.323  1.1252 -0.1020  0.0257
17899TIP3   OH275187   5.673   4.988  15.700 -0.0994 -0.1712  0.0265
17899TIP3    H175188   5.614   5.060  15.723 -0.5959 -0.8580  0.9688
17899TIP3    H275189   5.694   4.947  15.785  3.9192  1.7172  0.0662
17900TIP3   OH275190   4.887   0.282  13.304  0.0854 -0.0602 -0.2054
17900TIP3    H175191   4.893   0.344  13.376 -1.4802  2.0644 -1.8374
17900TIP3    H275192   4.809   0.230  13.323 -1.7528  2.0943 -1.4775
17901TIP3   OH275193   6.198   4.551   3.172  0.2597 -0.3234  0.1847
17901TIP3    H175194   6.180   4.485   3.104  1.1227 -0.6213  0.2399
17901TIP3    H275195   6.181   4.634   3.128 -1.2421 -0.5911  0.2374
17902TIP3   OH275196   5.536   5.240   1.779 -0.8677 -0.4660  0.1039
17902TIP3    H175197   5.463   5.301   1.766  0.9033  1.5434 -0.6578
17902TIP3    H275198   5.538   5.188   1.699 -0.7892  0.1982 -0.3268
17903TIP3   OH275199   2.471   0.338   3.074  0.5185 -0.2737  0.2838
17903TIP3    H175200   2.528   0.354   3.149  1.2205  0.0979 -0.3262
17903TIP3    H275201   2.526   0.291   3.011 -0.2324 -1.1142  0.2356
17904TIP3   OH275202   5.722   0.091   2.761 -0.2098 -0.1869  0.5905
17904TIP3    H175203   5.676   0.013   2.729 -1.1649  0.2855  0.7964
17904TIP3    H275204   5.701   0.094   2.855 -0.6177  0.6172  0.4791
17905TIP3   OH275205   5.028   4.734  16.652  0.0599 -0.1417  0.5123
17905TIP3    H175206   4.956   4.673  16.666 -1.3498  1.0968 -1.1257
17905TIP3    H275207   5.005   4.810  16.705  0.2015  0.2398  0.0193
17906TIP3   OH275208   0.717   4.379  12.363 -0.4099  0.2966  0.5831
17906TIP3    H175209   0.696   4.332  12.283  2.9064  2.2056 -1.5047
17906TIP3    H275210   0.694   4.470  12.345  2.7204  1.1862  0.7883
17907TIP3   OH275211   2.616   0.371  12.593 -0.0554 -0.4475  0.4860
17907TIP3    H175212   2.578   0.313  12.659 -0.1657 -1.2844 -0.2995
17907TIP3    H275213   2.679   0.316  12.546 -0.6709 -0.1403 -0.7275
17908TIP3   OH275214   0.620   3.953   5.034 -0.1653  0.5467 -0.4613
17908TIP3    H175215   0.637   4.040   5.070  0.3332  0.5209 -0.6338
17908TIP3    H275216   0.669   3.950   4.952 -0.2752  0.1430 -0.5152
17909TIP3   OH275217   4.279   0.222  11.789  0.2344  0.4542  0.5663
17909TIP3    H175218   4.371   0.200  11.773  0.2333  0.2329  0.8645
17909TIP3    H275219   4.279   0.317  11.801  0.7127  0.2227  2.5677
17910TIP3   OH275220   4.430   6.535   2.657  0.2428  0.2435 -0.4988
17910TIP3    H175221   4.427   6.566   2.566  0.7201 -0.7336 -0.8589
17910TIP3    H275222   4.375   6.457   2.657  0.7305 -0.1036 -0.0955
17911TIP3   OH275223   6.167   4.287   4.916 -0.6237  0.2682 -0.4722
17911TIP3    H175224   6.120   4.204   4.901  0.4213 -0.5327  0.5658
17911TIP3    H275225   6.214   4.273   4.998  0.9182  1.2961 -1.1527
17912TIP3   OH275226   4.917   5.909   2.534  0.1289 -0.6100 -0.4599
17912TIP3    H175227   4.862   5.860   2.473  1.3152 -1.2392 -1.0242
17912TIP3    H275228   4.937   5.990   2.487  0.9881 -1.0655 -0.8910
17913TIP3   OH275229   1.802   2.902  11.688  0.0559 -0.1842  0.1865
17913TIP3    H175230   1.779   2.817  11.725 -0.8639 -0.0985 -0.1530
17913TIP3    H275231   1.728   2.959  11.711  0.7763  0.5891  0.6216
17914TIP3   OH275232   5.005   1.882   2.375 -0.5144  0.0497 -0.1202
17914TIP3    H175233   5.097   1.859   2.372 -0.7373 -0.7750 -0.9751
17914TIP3    H275234   5.003   1.976   2.355  0.1943  0.2439  0.7050
17915TIP3   OH275235   3.500   1.460  14.763  0.2120  0.4792 -0.2477
17915TIP3    H175236   3.543   1.376  14.745 -1.1521 -0.4841  0.8346
17915TIP3    H275237   3.407   1.437  14.771 -0.0969  2.0113  0.6707
17916TIP3   OH275238   6.706   2.565   2.016  0.3419  0.3011 -0.6525
17916TIP3    H175239   6.791   2.522   2.026  0.1707 -0.3057 -1.6770
17916TIP3    H275240   6.642   2.495   2.029  0.0042  0.6941 -0.1831
17917TIP3   OH275241   5.989   6.607   4.670 -0.2203  0.5438 -0.6636
17917TIP3    H175242   6.062   6.575   4.616 -0.3458 -1.0796  0.1020
17917TIP3    H275243   5.998   6.702   4.668 -0.2741  0.5278 -3.6021
17918TIP3   OH275244   3.347   3.609  12.885  0.6306  0.4073 -0.2550
17918TIP3    H175245   3.347   3.516  12.862 -1.6186  1.0652 -3.1313
17918TIP3    H275246   3.325   3.610  12.979  1.5927 -1.9709  0.0290
17919TIP3   OH275247   4.807   6.797   4.939  0.6056  0.0003  0.3636
17919TIP3    H175248   4.884   6.816   4.886  1.0340  0.8362  1.2682
17919TIP3    H275249   4.734   6.837   4.891  0.8830  0.1313  0.0479
17920TIP3   OH275250   5.598   3.086   5.817  0.0841  1.0647 -0.0949
17920TIP3    H175251   5.518   3.122   5.781 -0.3622  1.7847  1.5988
17920TIP3    H275252   5.572   3.043   5.898  1.4011  1.3269  0.4916
17921TIP3   OH275253   2.176   2.958  12.566 -0.1302 -0.4716  0.1828
17921TIP3    H175254   2.237   2.886  12.551 -0.1600 -0.3994 -0.2684
17921TIP3    H275255   2.222   3.036  12.537  0.4675 -0.1050  2.0250
17922TIP3   OH275256   6.019   5.163  12.414 -0.1838  0.2160  0.4414
17922TIP3    H175257   6.084   5.098  12.438 -1.0082 -0.3796  1.0604
17922TIP3    H275258   6.065   5.247  12.420  1.0913 -0.3481 -1.0827
17923TIP3   OH275259   1.578   5.576   0.813  0.1197  0.0380  0.6235
17923TIP3    H175260   1.665   5.573   0.854  0.2687  0.4733  0.3309
17923TIP3    H275261   1.517   5.583   0.887  0.4152  1.2536  0.7525
17924TIP3   OH275262   6.585   4.660  11.650  0.6429  0.0904  0.2610
17924TIP3    H175263   6.541   4.625  11.727  1.3738 -0.2510  0.5251
17924TIP3    H275264   6.534   4.738  11.627  0.2895  0.0626  0.9456
17925TIP3   OH275265   4.247   2.822  13.996  0.8391  0.2916 -0.0962
17925TIP3    H175266   4.163   2.807  14.039  1.0079  3.3464  1.4246
17925TIP3    H275267   4.307   2.761  14.041 -0.5237 -2.0080 -1.3018
17926TIP3   OH275268   1.085   0.337  12.867 -0.1623  0.7027  0.0151
17926TIP3    H175269   1.129   0.327  12.783 -0.7107  2.1726 -0.4535
17926TIP3    H275270   1.035   0.256  12.878 -0.0105  0.4676 -1.0160
17927TIP3   OH275271   2.884   1.743   4.425 -0.1331  0.1945  0.7349
17927TIP3    H175272   2.970   1.727   4.463  0.8081  1.0839 -0.9868
17927TIP3    H275273   2.887   1.703   4.339 -1.6128 -0.1890  0.8434
17928TIP3   OH275274   5.221   1.826   0.869  0.5893 -0.1926 -0.1232
17928TIP3    H175275   5.228   1.731   0.861 -0.5624 -0.4029  1.2313
17928TIP3    H275276   5.249   1.859   0.783  1.4529 -1.7147 -0.4514
17929TIP3   OH275277   6.321   4.929  17.084 -0.0913 -0.0497 -0.0082
17929TIP3    H175278   6.235   4.923  17.126  0.5588 -1.5607  1.1245
17929TIP3    H275279   6.328   4.850  17.032  0.0402  0.7558 -1.2436
17930TIP3   OH275280   0.671   3.702   6.071 -0.4041 -0.1315  0.2363
17930TIP3    H175281   0.647   3.694   5.979  1.3315 -1.0249 -0.1626
17930TIP3    H275282   0.738   3.635   6.084 -1.1216 -0.4654  2.3180
17931TIP3   OH275283   6.742   3.227  11.331 -0.3890 -0.1617 -0.0237
17931TIP3    H175284   6.700   3.171  11.266 -3.1826  1.9352 -0.1643
17931TIP3    H275285   6.805   3.170  11.376 -1.6997 -2.8425 -1.4690
17932TIP3   OH275286   6.012   1.803   3.014  0.3727 -0.3421  0.1301
17932TIP3    H175287   6.058   1.844   3.087  0.2174 -0.3103  0.2108
17932TIP3    H275288   5.969   1.727   3.053  1.6324 -1.2633 -0.2521
17933TIP3   OH275289   6.420   4.407   2.926 -0.1110  0.2634  0.9903
17933TIP3    H175290   6.348   4.343   2.921 -0.5873  0.7452  1.5906
17933TIP3    H275291   6.394   4.477   2.866  1.4042 -1.0632 -1.2777
17934TIP3   OH275292   5.553   0.606  13.702 -0.0486  0.1238 -0.0812
17934TIP3    H175293   5.464   0.638  13.685 -0.9046  0.0954  3.8480
17934TIP3    H275294   5.541   0.517  13.734  1.2445  0.6316  1.8894
17935TIP3   OH275295   1.807   4.861  12.718 -0.1191 -0.7666 -0.1108
17935TIP3    H175296   1.730   4.878  12.665 -0.1495  1.2183  0.5175
17935TIP3    H275297   1.786   4.898  12.804  2.2239  1.5288 -0.4615
17936TIP3   OH275298   5.887   6.553  15.447 -0.5433  0.2960 -0.7720
17936TIP3    H175299   5.946   6.625  15.422 -0.1777  0.1037 -0.4709
17936TIP3    H275300   5.823   6.550  15.377 -0.9034  1.2970 -0.4979
17937TIP3   OH275301   4.066   4.340  14.125 -0.0566  0.2661 -0.1029
17937TIP3    H175302   4.084   4.343  14.031 -1.9949 -1.6551 -0.5800
17937TIP3    H275303   3.971   4.341  14.131  0.0615  2.5096  1.9817
17938TIP3   OH275304   3.034   0.591   5.234 -0.4562  0.0493  0.1005
17938TIP3    H175305   3.052   0.645   5.157 -2.1434 -0.3164 -0.5604
17938TIP3    H275306   3.108   0.608   5.293 -0.1427  1.8134 -0.7798
17939TIP3   OH275307   4.283   5.728  14.593 -0.1038  0.0643  0.0512
17939TIP3    H175308   4.314   5.679  14.670 -0.7768 -0.5310 -0.0448
17939TIP3    H275309   4.358   5.732  14.535  0.6049  1.0737  1.0111
17940TIP3   OH275310   2.284   4.876   1.267 -0.3068 -0.5855  0.1257
17940TIP3    H175311   2.336   4.951   1.238  0.1104 -0.5212  1.0219
17940TIP3    H275312   2.347   4.817   1.308 -0.9820 -0.3191  1.5984
17941TIP3   OH275313   5.473   3.407   2.795  0.2768 -0.6253  0.0834
17941TIP3    H175314   5.566   3.417   2.817  0.4722 -1.3931 -0.3923
17941TIP3    H275315   5.450   3.320   2.828 -0.4154 -0.2196  0.6917
17942TIP3   OH275316   2.173   4.260   5.203 -0.1012 -0.2112  0.4850
17942TIP3    H175317   2.219   4.325   5.257 -1.0926  0.0940  0.9794
17942TIP3    H275318   2.229   4.248   5.127  2.1351 -1.8337  2.3326
17943TIP3   OH275319   0.185   3.213   6.816 -0.2239 -0.3593 -0.6757
17943TIP3    H175320   0.178   3.308   6.806  0.8175 -0.2726 -0.5428
17943TIP3    H275321   0.217   3.201   6.905 -2.1488 -0.9021 -0.0196
17944TIP3   OH275322   3.982   0.107   4.960  0.0620  0.4663  0.7164
17944TIP3    H175323   4.038   0.134   4.886  1.4317  0.4067  1.7124
17944TIP3    H275324   3.918   0.177   4.968 -0.7264  0.0099 -1.1552
17945TIP3   OH275325   1.722   3.813  15.952  0.5116  0.2046 -0.3131
17945TIP3    H175326   1.697   3.894  15.996  0.8377 -0.5068  1.1909
17945TIP3    H275327   1.803   3.836  15.905  1.2254  0.4488  1.0304
17946TIP3   OH275328   0.685   3.976  11.164  0.0351 -0.5795 -0.4949
17946TIP3    H175329   0.683   3.892  11.117 -0.9830 -1.1414  0.5080
17946TIP3    H275330   0.724   4.037  11.102 -0.2326 -1.5521 -1.6558
17947TIP3   OH275331   1.953   2.889   4.235 -0.1998  0.4564  0.1282
17947TIP3    H175332   1.976   2.796   4.240 -0.0828  0.4404 -0.6355
17947TIP3    H275333   2.030   2.930   4.196 -0.4399  0.8031  0.0222
17948TIP3   OH275334   4.811   2.492   3.147  0.0021  0.2176 -0.0041
17948TIP3    H175335   4.795   2.427   3.215  0.8125  0.6215  0.5836
17948TIP3    H275336   4.739   2.480   3.085 -0.6891 -0.2309  0.8691
17949TIP3   OH275337   2.937   5.079   1.511 -0.7003 -0.4711 -0.3901
17949TIP3    H175338   3.020   5.124   1.496 -0.2065 -1.3124 -0.1777
17949TIP3    H275339   2.897   5.128   1.583 -0.1124 -0.4298 -0.0872
17950TIP3   OH275340   5.043   2.115  11.934 -0.1149  0.4265 -0.3682
17950TIP3    H175341   5.080   2.197  11.901 -0.6917  0.4647 -0.9345
17950TIP3    H275342   5.115   2.052  11.930  0.0914  0.6866 -0.7431
17951TIP3   OH275343   4.945   6.119   2.386  0.6879  0.0718  0.5769
17951TIP3    H175344   5.031   6.089   2.357  0.1214 -0.6152 -0.4490
17951TIP3    H275345   4.895   6.129   2.305 -0.2521  0.2988  1.1733
17952TIP3   OH275346   1.523   0.761  15.414 -0.0957  0.1622  0.2390
17952TIP3    H175347   1.531   0.744  15.320 -0.6762 -0.0764  0.2273
17952TIP3    H275348   1.526   0.856  15.421  1.3416  0.1357  0.1184
17953TIP3   OH275349   0.490   3.707  16.672 -0.3657 -0.5320 -0.0023
17953TIP3    H175350   0.406   3.705  16.719 -0.8650 -0.6413 -0.8827
17953TIP3    H275351   0.548   3.651  16.724 -0.9957 -0.8836  0.3317
17954TIP3   OH275352   6.486   0.550   1.524  0.1830 -0.4766  0.4318
17954TIP3    H175353   6.470   0.617   1.591 -0.6775 -0.3138  0.0677
17954TIP3    H275354   6.398   0.525   1.494  0.5402 -1.0817 -0.1080
17955TIP3   OH275355   5.414   6.510  14.708  0.5619  0.1699 -0.1103
17955TIP3    H175356   5.402   6.417  14.728 -0.7640  0.0214 -1.5799
17955TIP3    H275357   5.326   6.542  14.689  1.0114  1.7475  0.4362
17956TIP3   OH275358   4.350   2.003   6.381  0.2538  0.1460 -0.3277
17956TIP3    H175359   4.395   1.999   6.465  0.4034 -1.7575 -0.4632
17956TIP3    H275360   4.337   1.911   6.357 -1.2408  0.6696 -1.6075
17957TIP3   OH275361   6.517   3.990   1.010 -0.3754  0.6188 -0.2500
17957TIP3    H175362   6.502   3.991   1.104  0.0137  0.7778 -0.1889
17957TIP3    H275363   6.601   4.034   0.999  0.9059 -1.7872 -0.4391
17958TIP3   OH275364   0.258   1.258   1.447  0.2854  0.5682  0.3535
17958TIP3    H175365   0.287   1.213   1.367 -2.8842 -0.4545 -0.2984
17958TIP3    H275366   0.250   1.350   1.421  0.3057  0.4149 -0.2003
17959TIP3   OH275367   0.980   3.397   5.059 -0.1244  0.1126  0.6591
17959TIP3    H175368   0.956   3.307   5.037 -1.5686  1.1297 -2.0702
17959TIP3    H275369   0.896   3.443   5.068  0.6094  1.2765  1.7183
17960TIP3   OH275370   6.820   0.045  15.608 -0.1906  0.3213  0.5774
17960TIP3    H175371   6.739   0.038  15.557 -0.6334  1.2080  1.1363
17960TIP3    H275372   6.824  -0.038  15.656 -0.3611 -0.0496 -0.0364
17961TIP3   OH275373   1.895   5.925  11.168 -0.3755  1.3930 -0.3522
17961TIP3    H175374   1.838   5.882  11.233 -1.4232  1.5490 -1.1521
17961TIP3    H275375   1.967   5.961  11.220 -1.3492  1.7589  0.7750
17962TIP3   OH275376   0.134   5.120   1.167  0.3230 -0.0882  0.5810
17962TIP3    H175377   0.139   5.043   1.111  1.0411 -0.7473  1.5188
17962TIP3    H275378   0.103   5.190   1.110  3.2208 -0.1793 -1.2186
17963TIP3   OH275379   2.888   5.311   4.362 -0.4332 -0.0469  0.2640
17963TIP3    H175380   2.955   5.377   4.378  0.0679 -0.1463 -1.2786
17963TIP3    H275381   2.937   5.229   4.353 -1.0008 -0.5449  1.6203
17964TIP3   OH275382   4.903   3.922   0.512 -0.1252  0.1998  0.0729
17964TIP3    H175383   4.848   3.993   0.546  1.3893  1.7974 -0.7031
17964TIP3    H275384   4.959   3.899   0.586  1.6257  2.1233 -0.5948
17965TIP3   OH275385   6.180   2.118  14.090 -0.5773  0.2941 -0.1915
17965TIP3    H175386   6.264   2.080  14.065  0.0338  1.1783  0.4722
17965TIP3    H275387   6.161   2.079  14.176 -0.2835  0.9614  0.1778
17966TIP3   OH275388   0.711   2.552  14.080 -0.1424  0.1280  0.0982
17966TIP3    H175389   0.754   2.496  14.016  0.3372  2.7842 -2.0018
17966TIP3    H275390   0.758   2.537  14.162  1.3551 -0.8996 -0.9499
17967TIP3   OH275391   6.101   3.706   0.061  0.0107  0.6924  0.3643
17967TIP3    H175392   6.063   3.732   0.145 -0.5588  0.0950  0.2908
17967TIP3    H275393   6.051   3.756  -0.004  1.2651  2.0991  0.4448
17968TIP3   OH275394   1.086   4.112   3.391 -0.2320 -0.2713 -0.2780
17968TIP3    H175395   1.101   4.170   3.466 -1.0897  0.0340 -0.3349
17968TIP3    H275396   1.092   4.170   3.315  0.0069 -0.4635 -0.4049
17969TIP3   OH275397   6.445   5.788   2.749 -0.0956  0.1630  0.0981
17969TIP3    H175398   6.528   5.819   2.782  0.2084 -0.4990 -0.0330
17969TIP3    H275399   6.440   5.697   2.778 -0.9975  0.3440  0.5302
17970TIP3   OH275400   3.406   2.818  12.171  0.3009  0.2591 -0.2264
17970TIP3    H175401   3.334   2.879  12.158  0.4524  0.7601  1.3004
17970TIP3    H275402   3.367   2.743  12.217  0.5210  0.0242 -0.4148
17971TIP3   OH275403   1.308   5.388  17.126 -0.1208 -0.2113  0.1758
17971TIP3    H175404   1.267   5.431  17.200 -1.5919  1.3790 -1.5061
17971TIP3    H275405   1.398   5.421  17.126  0.1065 -0.7971  1.6628
17972TIP3   OH275406   1.741   0.151  11.639 -0.5430 -0.0910  0.5685
17972TIP3    H175407   1.800   0.128  11.711 -0.1593 -2.6212 -0.5244
17972TIP3    H275408   1.796   0.200  11.578  0.1811 -1.4973  0.0706
17973TIP3   OH275409   3.491   2.220  15.726  0.2025 -0.6281  0.0198
17973TIP3    H175410   3.552   2.274  15.777  1.8517 -1.8431 -0.5990
17973TIP3    H275411   3.411   2.272  15.720  1.1103  0.9154  1.0570
17974TIP3   OH275412   3.542   1.770   1.877 -0.1184 -0.1528 -0.0542
17974TIP3    H175413   3.552   1.777   1.972 -0.8474  0.2282 -0.0018
17974TIP3    H275414   3.516   1.679   1.863  1.4063 -0.6136 -0.0251
17975TIP3   OH275415   2.514   4.707   1.267  0.2683 -0.7295  0.0098
17975TIP3    H175416   2.550   4.746   1.346  1.2892 -0.1772 -0.7108
17975TIP3    H275417   2.459   4.636   1.298 -0.5911  0.4761  1.2841
17976TIP3   OH275418   3.505   4.339  14.189  0.2986 -0.1705 -0.5190
17976TIP3    H175419   3.572   4.364  14.252  0.6218  1.9196 -1.6176
17976TIP3    H275420   3.553   4.317  14.109 -0.2774  1.8503 -1.4772
17977TIP3   OH275421   2.398   1.328   5.327  0.0380 -0.2606  0.1458
17977TIP3    H175422   2.382   1.396   5.393 -0.7224  0.6065 -0.9040
17977TIP3    H275423   2.377   1.371   5.244 -2.2451 -2.3394 -0.3975
17978TIP3   OH275424   6.333   2.306  17.073 -0.0837 -0.1937 -0.8416
17978TIP3    H175425   6.404   2.280  17.013 -1.4524 -0.2862 -2.4574
17978TIP3    H275426   6.326   2.401  17.062  1.0901  0.1063  0.7983
17979TIP3   OH275427   2.525   1.213   0.972 -0.4916 -0.1060  0.2780
17979TIP3    H175428   2.564   1.278   0.912  1.8822 -1.3015  0.4655
17979TIP3    H275429   2.461   1.167   0.918 -1.0022  1.2655 -0.3221
17980TIP3   OH275430   2.740   2.279  16.109 -0.7763  0.1224 -0.2018
17980TIP3    H175431   2.835   2.270  16.101 -0.5947  0.2239  1.7445
17980TIP3    H275432   2.708   2.190  16.121 -1.0096  0.0205 -1.4725
17981TIP3   OH275433   1.581   6.549  12.299 -0.6505 -0.6827 -0.1958
17981TIP3    H175434   1.563   6.506  12.215 -0.9231 -0.0184 -0.4766
17981TIP3    H275435   1.526   6.627  12.299 -0.4963 -0.5683  0.5151
17982TIP3   OH275436   2.661   2.280   0.712 -0.0924 -0.2619  0.1734
17982TIP3    H175437   2.729   2.339   0.677 -0.9593  0.0422 -1.0347
17982TIP3    H275438   2.634   2.229   0.636 -1.4872 -0.1236  0.5753
17983TIP3   OH275439   6.159   0.517   4.802 -0.1521 -0.1567  0.1539
17983TIP3    H175440   6.166   0.521   4.898 -1.5396 -1.8282  0.3311
17983TIP3    H275441   6.153   0.609   4.775  0.1122  0.3188  1.6719
17984TIP3   OH275442   3.436   0.095   2.121 -0.6681 -0.0887 -0.4969
17984TIP3    H175443   3.507   0.037   2.149  1.0684  1.3198 -1.8717
17984TIP3    H275444   3.468   0.183   2.140 -2.4561  0.5292 -0.2598
17985TIP3   OH275445   4.146   5.641  13.306  0.2137  0.0819 -0.7051
17985TIP3    H175446   4.086   5.710  13.276 -0.0123  1.0061  1.7756
17985TIP3    H275447   4.206   5.685  13.365  0.4474 -1.7440  0.4473
17986TIP3   OH275448   0.098   0.590  15.311  0.2816  0.6035  0.2076
17986TIP3    H175449   0.095   0.677  15.273 -0.5929  0.8340  0.7854
17986TIP3    H275450   0.019   0.584  15.365  2.1578  0.8322  3.1100
17987TIP3   OH275451   2.376   1.119  15.418  0.0613  0.4079  0.5850
17987TIP3    H175452   2.361   1.101  15.511  0.4659 -1.2000  0.3473
17987TIP3    H275453   2.289   1.135  15.382 -0.3500 -1.3068  0.7731
17988TIP3   OH275454   5.784   1.165   0.524  0.5848  0.4717 -0.0098
17988TIP3    H175455   5.832   1.102   0.579 -0.4900 -0.2461  0.1115
17988TIP3    H275456   5.771   1.241   0.580  0.8236  0.3352  0.2328
17989TIP3   OH275457   5.890   2.912  16.349  0.2804  0.2289  0.2611
17989TIP3    H175458   5.844   2.923  16.432  1.7462  1.1096  0.9823
17989TIP3    H275459   5.947   2.837  16.363 -0.0694 -0.1372 -0.2431
17990TIP3   OH275460   1.900   0.296   4.024  0.1615 -0.1222 -0.4830
17990TIP3    H175461   1.805   0.293   4.021  0.0952 -1.3530  1.5789
17990TIP3    H275462   1.921   0.387   4.043 -0.6609 -0.0968  0.3361
17991TIP3   OH275463   5.911   0.965   2.468  0.2691 -0.5929 -0.5147
17991TIP3    H175464   5.901   1.008   2.553 -0.3097 -3.1855  0.8196
17991TIP3    H275465   5.918   1.036   2.405 -1.9247  1.4160  1.4078
17992TIP3   OH275466   3.106   5.494  10.478  0.1043 -0.5578  0.0665
17992TIP3    H175467   3.024   5.534  10.510  0.8795  0.9764  0.1852
17992TIP3    H275468   3.163   5.568  10.460  0.9779 -1.5744 -1.4009
17993TIP3   OH275469   3.089   0.735   3.697 -0.8661  0.6084 -0.5232
17993TIP3    H175470   3.120   0.645   3.694  1.0596  1.1983  1.1341
17993TIP3    H275471   3.082   0.761   3.605 -1.9855 -1.3821 -1.0205
17994TIP3   OH275472   2.750   0.680  11.824 -0.5839  0.6013  0.2991
17994TIP3    H175473   2.668   0.696  11.777 -1.5637  0.5102  1.9482
17994TIP3    H275474   2.723   0.640  11.907  1.2038 -0.4920  0.3821
17995TIP3   OH275475   6.451   1.547  11.063  0.0345  0.0470  0.5833
17995TIP3    H175476   6.531   1.506  11.097  0.5971  0.8949  0.3150
17995TIP3    H275477   6.448   1.632  11.108  1.0905  1.4311 -1.8583
17996TIP3   OH275478   5.781   0.762  13.756 -0.2819  0.3487  0.1905
17996TIP3    H175479   5.698   0.717  13.740 -1.2706  2.5356 -1.1085
17996TIP3    H275480   5.795   0.755  13.851 -0.4845 -2.4694  0.0462
17997TIP3   OH275481   6.311   3.120  12.826 -0.3098 -0.5269 -0.0677
17997TIP3    H175482   6.268   3.050  12.777  0.9754 -0.8266 -0.7915
17997TIP3    H275483   6.248   3.192  12.825 -1.5900 -1.6175  0.5706
17998TIP3   OH275484   1.698   2.994  15.498 -0.0073 -0.2982 -0.1014
17998TIP3    H175485   1.762   2.997  15.569  0.3584  3.0140 -0.5013
17998TIP3    H275486   1.726   2.919  15.444  2.6967  0.1975  0.5091
17999TIP3   OH275487   3.679   4.637   2.131 -0.3285  0.4595  0.4452
17999TIP3    H175488   3.692   4.616   2.039 -1.4875  1.7571 -0.0392
17999TIP3    H275489   3.646   4.556   2.170 -0.3026  0.0441 -0.3865
18000TIP3   OH275490   5.654   2.391   3.118 -0.5199 -0.1724  0.4221
18000TIP3    H175491   5.566   2.392   3.078  1.1120 -2.1695 -3.4674
18000TIP3    H275492   5.675   2.484   3.130 -2.2323  0.4032 -0.7839
18001TIP3   OH275493   6.422   4.741   1.673  0.4301 -0.5151 -0.4671
18001TIP3    H175494   6.501   4.795   1.684 -2.0340  3.2046 -0.0815
18001TIP3    H275495   6.403   4.708   1.761  0.6091 -0.0043 -0.2342
18002TIP3   OH275496   0.215   5.444  14.351 -0.1292 -0.7498  0.1805
18002TIP3    H175497   0.174   5.531  14.358 -2.6999 -1.8347 -0.8376
18002TIP3    H275498   0.181   5.396  14.426 -1.0376 -1.7675 -0.8599
18003TIP3   OH275499   3.515   5.374   0.878 -0.1169  0.1196  0.2149
18003TIP3    H175500   3.541   5.295   0.926 -0.7195 -0.2978 -0.1267
18003TIP3    H275501   3.442   5.409   0.929  1.4665  1.6307  1.5145
18004TIP3   OH275502   1.545   5.998   3.713  1.0769  0.4496  0.2669
18004TIP3    H175503   1.514   6.034   3.630 -0.0945  0.3582  0.6589
18004TIP3    H275504   1.466   5.964   3.756  1.8550 -0.6516  0.8571
18005TIP3   OH275505   1.215   4.874   2.011  0.3317  0.2853 -0.0266
18005TIP3    H175506   1.212   4.809   2.081  1.8220  0.5356  0.2856
18005TIP3    H275507   1.274   4.836   1.945 -0.7938  0.2000 -1.0010
18006TIP3   OH275508   4.887   0.990   1.549  0.3408 -0.0610 -0.0099
18006TIP3    H175509   4.949   1.062   1.534  1.3059 -1.3378 -2.4261
18006TIP3    H275510   4.856   0.966   1.461 -1.6816 -1.1117  0.9615
18007TIP3   OH275511   0.236   2.912  16.861  0.0344 -0.2656 -0.0875
18007TIP3    H175512   0.218   2.960  16.780 -1.9657 -0.6390  0.1041
18007TIP3    H275513   0.215   2.975  16.931  1.4065 -0.0614  0.1418
18008TIP3   OH275514   0.350   0.630  13.057  0.0223 -0.0668  0.2366
18008TIP3    H175515   0.360   0.588  13.142 -0.6233  1.1268  0.9219
18008TIP3    H275516   0.265   0.674  13.063 -0.1487 -0.2044 -1.1251
18009TIP3   OH275517   4.269   6.366  15.299 -0.0247 -0.0339 -0.0796
18009TIP3    H175518   4.190   6.415  15.321 -1.0271 -0.0775 -3.3798
18009TIP3    H275519   4.268   6.291  15.358 -2.7502 -0.3280 -0.4512
18010TIP3   OH275520   4.870   2.630  16.649 -0.2260 -0.3886  0.4521
18010TIP3    H175521   4.865   2.688  16.725  2.2538 -1.7685  1.7403
18010TIP3    H275522   4.949   2.658  16.603  0.5258 -2.1350  0.6257
18011TIP3   OH275523   4.571   2.531  16.104 -0.0521  0.0717 -0.0071
18011TIP3    H175524   4.522   2.465  16.153  2.5793 -1.7475  0.3086
18011TIP3    H275525   4.564   2.503  16.013  0.5993 -0.3754  0.0702
18012TIP3   OH275526   0.686   4.103   3.357  0.2280  0.5341 -0.1899
18012TIP3    H175527   0.723   4.111   3.269  1.4136  1.6003  0.3908
18012TIP3    H275528   0.633   4.182   3.368 -0.8981 -0.1765 -0.3782
18013TIP3   OH275529   2.706   1.585   6.039 -0.0574 -0.0568 -0.2777
18013TIP3    H175530   2.610   1.584   6.045 -0.1474  0.7619 -1.3585
18013TIP3    H275531   2.724   1.634   5.959  1.2474 -1.1319 -0.6597
18014TIP3   OH275532   3.876   3.214   0.664 -0.1114 -0.3609  0.3358
18014TIP3    H175533   3.901   3.290   0.611 -0.1663  0.0869  0.9450
18014TIP3    H275534   3.898   3.139   0.609 -0.5084  0.1025 -0.4789
18015TIP3   OH275535   2.869   1.267  14.285 -0.1521 -0.0412  0.2820
18015TIP3    H175536   2.862   1.310  14.200  0.8602 -1.1715 -0.3778
18015TIP3    H275537   2.947   1.212  14.279 -1.2366 -1.7615  1.1911
18016TIP3   OH275538   2.696   2.321   4.942  0.1315  0.0509  0.1223
18016TIP3    H175539   2.644   2.331   5.022  1.1377 -1.5049  0.9954
18016TIP3    H275540   2.675   2.233   4.911  0.6730  0.1981 -0.6700
18017TIP3   OH275541   5.073   6.184   2.139  0.3172  0.5995 -0.8040
18017TIP3    H175542   5.127   6.258   2.111 -0.9468  1.6918 -0.3918
18017TIP3    H275543   5.120   6.148   2.214 -0.7050  3.0687  1.1241
18018TIP3   OH275544   2.480   4.660  17.099 -0.0408 -0.4288  0.4075
18018TIP3    H175545   2.476   4.747  17.138 -0.0548 -0.8150  1.2681
18018TIP3    H275546   2.467   4.675  17.005 -2.1020  0.2909  0.7907
18019TIP3   OH275547   3.234   3.125  13.331 -0.3870  0.4268 -0.7988
18019TIP3    H175548   3.223   3.081  13.415  0.8601  1.2637 -0.1727
18019TIP3    H275549   3.177   3.078  13.271 -0.7180 -0.6586  0.3510
18020TIP3   OH275550   2.826   6.178   2.397 -0.5340 -0.5923 -0.6782
18020TIP3    H175551   2.734   6.158   2.415 -0.4980 -0.9106 -0.8364
18020TIP3    H275552   2.852   6.112   2.332  0.2120 -1.3929  0.4183
18021TIP3   OH275553   0.285   6.104   6.572 -0.3286  0.4703 -0.6030
18021TIP3    H175554   0.241   6.186   6.550 -0.1750  0.7096 -0.0154
18021TIP3    H275555   0.263   6.087   6.664  1.3733  0.9696 -0.0809
18022TIP3   OH275556   1.621   0.935  13.507 -0.0372  0.4685 -0.0205
18022TIP3    H175557   1.526   0.936  13.517  0.1830  0.7545  2.3203
18022TIP3    H275558   1.654   0.918  13.596  2.0315 -1.8625 -1.1575
18023TIP3   OH275559   4.809   2.845  12.037  0.0257  0.4512 -0.5754
18023TIP3    H175560   4.829   2.809  11.951  1.3178 -0.6257  0.1537
18023TIP3    H275561   4.751   2.780  12.078 -1.3150  1.3870 -0.9560
18024TIP3   OH275562   0.886   6.061  12.248  0.0194  0.6068 -0.0207
18024TIP3    H175563   0.952   5.995  12.271 -1.1380 -0.7232 -0.4286
18024TIP3    H275564   0.928   6.114  12.180  0.5629 -0.4365 -0.5131
18025TIP3   OH275565   0.261   5.845  11.501 -0.1259 -0.1341 -0.1487
18025TIP3    H175566   0.243   5.933  11.470 -0.7331 -0.4358 -0.6534
18025TIP3    H275567   0.180   5.816  11.542 -0.6038 -1.2321 -1.8204
18026TIP3   OH275568   6.037   3.847  12.525 -0.0577 -0.6550  0.2388
18026TIP3    H175569   5.943   3.856  12.506 -0.2319 -0.5388  1.1198
18026TIP3    H275570   6.044   3.871  12.618  0.8216 -0.8211  0.2115
18027TIP3   OH275571   6.231   4.375  16.457 -0.2044 -0.0726  0.5541
18027TIP3    H175572   6.313   4.345  16.497 -0.9697  0.7929  2.8960
18027TIP3    H275573   6.177   4.401  16.532 -1.8246  1.3475 -1.0728
18028TIP3   OH275574   4.364   4.135   4.237 -0.4062  0.1115 -0.2704
18028TIP3    H175575   4.354   4.040   4.240 -0.4794  0.1895  2.2121
18028TIP3    H275576   4.292   4.169   4.290  1.3025  1.4424  1.2308
18029TIP3   OH275577   0.362   6.698   1.159  0.2440  0.2783 -0.3325
18029TIP3    H175578   0.286   6.745   1.195 -0.2098  1.1838 -2.4316
18029TIP3    H275579   0.369   6.620   1.214 -1.5902  0.6855  0.5341
18030TIP3   OH275580   4.966   1.306  15.760 -1.0449 -0.4936 -0.2552
18030TIP3    H175581   4.877   1.317  15.727 -0.7832  1.1925 -0.4035
18030TIP3    H275582   4.958   1.238  15.827 -2.2060 -1.2869 -1.1671
18031TIP3   OH275583   3.454   0.310  16.650 -0.4874 -0.3435  0.4744
18031TIP3    H175584   3.547   0.287  16.650 -0.9447 -2.4038 -1.6848
18031TIP3    H275585   3.411   0.237  16.694 -1.3213 -0.6613 -0.8253
18032TIP3   OH275586   2.465   1.554   3.463  0.1072  0.3879  0.1004
18032TIP3    H175587   2.441   1.589   3.377 -1.6024  1.0486  0.8432
18032TIP3    H275588   2.482   1.461   3.447  2.7510  1.0922 -1.5085
18033TIP3   OH275589   2.702   4.645   1.072  0.2230  0.4528 -0.5009
18033TIP3    H175590   2.697   4.550   1.078  0.8864  0.3155 -2.0130
18033TIP3    H275591   2.643   4.676   1.141  0.2104 -1.0363  0.1888
18034TIP3   OH275592   2.592   6.448  16.543 -0.2782  0.1547 -0.6449
18034TIP3    H175593   2.622   6.538  16.556  0.2097 -0.2004  0.7924
18034TIP3    H275594   2.503   6.447  16.579  0.2799 -0.3041  0.7456
18035TIP3   OH275595   1.229   1.641  15.069 -0.0863  0.7417 -0.4849
18035TIP3    H175596   1.169   1.569  15.049 -0.4011  1.0759 -0.7408
18035TIP3    H275597   1.291   1.604  15.132 -0.4555  0.3467 -0.3570
18036TIP3   OH275598   2.361   6.302  13.621 -0.3245  0.2798  0.3392
18036TIP3    H175599   2.311   6.382  13.633 -1.2232 -0.0095 -1.3667
18036TIP3    H275600   2.358   6.259  13.707  0.1819  2.0549  1.2566
18037TIP3   OH275601   2.315   6.202  13.865  0.7692 -0.3859 -0.7345
18037TIP3    H175602   2.405   6.189  13.897  0.3570 -1.2724  0.0697
18037TIP3    H275603   2.265   6.223  13.943  0.6052  1.9300 -1.4249
18038TIP3   OH275604   2.546   1.129  12.593 -0.3589  0.0761  0.4504
18038TIP3    H175605   2.600   1.188  12.645 -2.5150  1.2153  1.4670
18038TIP3    H275606   2.461   1.128  12.638 -1.0577 -2.0274 -0.8331
18039TIP3   OH275607   4.463   4.702  14.562 -0.0532  0.4462 -0.0028
18039TIP3    H175608   4.454   4.792  14.593 -1.6566  0.7304 -1.2134
18039TIP3    H275609   4.379   4.683  14.519  1.2068 -0.7410 -1.9863
18040TIP3   OH275610   4.334   4.382  14.296  0.2112 -0.2643  0.0260
18040TIP3    H175611   4.246   4.352  14.275  0.4022 -0.3548 -0.6603
18040TIP3    H275612   4.330   4.408  14.388 -0.2289 -1.3608  0.3233
18041TIP3   OH275613   6.699   5.755  14.305  0.2955 -0.2104 -0.2158
18041TIP3    H175614   6.757   5.734  14.379  0.2392  0.3739 -0.0023
18041TIP3    H275615   6.758   5.786  14.236  0.2250  0.6232  0.0873
18042TIP3   OH275616   0.559   2.262   1.773 -0.4108  0.0096  0.4129
18042TIP3    H175617   0.574   2.226   1.686 -0.1352  1.5234 -0.1780
18042TIP3    H275618   0.627   2.224   1.827 -0.2574 -0.5208 -0.1448
18043TIP3   OH275619   4.133   0.381   5.115  0.4268  0.1361 -0.3612
18043TIP3    H175620   4.218   0.384   5.159  0.0976 -1.6615  0.4350
18043TIP3    H275621   4.150   0.336   5.032  0.1467 -0.7222  0.0464
18044TIP3   OH275622   3.592   1.670  14.622  0.7051  0.0011 -0.1768
18044TIP3    H175623   3.563   1.614  14.695 -1.9649 -0.0645 -1.2443
18044TIP3    H275624   3.529   1.654  14.553  0.7874  3.2171 -1.0614
18045TIP3   OH275625   2.030   6.102  16.385 -0.4637  0.4795  0.3213
18045TIP3    H175626   2.012   6.101  16.291 -1.2767 -0.6538  0.4809
18045TIP3    H275627   1.962   6.047  16.424 -0.2238  1.0457  1.5964
18046TIP3   OH275628   2.957   0.890  11.939 -0.1734 -0.3307  0.8256
18046TIP3    H175629   2.925   0.820  11.884  0.2554  2.2260 -2.8506
18046TIP3    H275630   3.051   0.875  11.945  0.0288  0.3440 -0.5958
18047TIP3   OH275631   5.151   2.232  11.632 -0.9145  0.4579 -0.4851
18047TIP3    H175632   5.194   2.147  11.635 -1.5629  0.0428 -2.2086
18047TIP3    H275633   5.223   2.295  11.632 -0.2873 -0.2100 -2.6857
18048TIP3   OH275634   5.824   5.069  13.476 -0.5346  0.1103 -0.3307
18048TIP3    H175635   5.737   5.029  13.483 -0.8676  0.8999  0.0706
18048TIP3    H275636   5.871   5.037  13.552 -1.3317  1.7613  0.8855
18049TIP3   OH275637   6.023   0.895  11.212 -0.2074 -0.1811  0.1689
18049TIP3    H175638   6.106   0.849  11.198 -0.4066 -0.6012  0.3427
18049TIP3    H275639   5.974   0.838  11.271 -1.7346 -1.3205 -2.1206
18050TIP3   OH275640   2.728   4.694  10.520 -0.1523 -0.1508 -0.8055
18050TIP3    H175641   2.772   4.748  10.455  1.1212  0.8090  0.8238
18050TIP3    H275642   2.752   4.604  10.497  1.3146  0.2644 -0.9111
18051TIP3   OH275643   6.213   5.866   6.651  0.3562  0.4201 -0.2932
18051TIP3    H175644   6.248   5.942   6.604 -0.0257 -0.2046 -1.5892
18051TIP3    H275645   6.276   5.796   6.633 -1.3932 -0.6640 -2.4691
18052TIP3   OH275646   2.465   1.444   1.119  0.7418  0.3099 -0.2795
18052TIP3    H175647   2.457   1.350   1.109 -0.1296  0.4726 -1.2379
18052TIP3    H275648   2.532   1.456   1.186 -0.5503 -1.0280  1.3024
18053TIP3   OH275649   6.565   1.198   5.941 -0.4974  0.1423 -0.2314
18053TIP3    H175650   6.587   1.290   5.945  0.1127 -0.0243  0.3707
18053TIP3    H275651   6.524   1.180   6.026  2.1708 -0.8345  0.9014
18054TIP3   OH275652   6.269   5.436   4.132  0.2744  0.0231  0.0406
18054TIP3    H175653   6.322   5.485   4.196  1.0338 -1.4265  0.5470
18054TIP3    H275654   6.330   5.417   4.060 -0.2519  0.5787 -0.5583
18055TIP3   OH275655   0.333   3.444  16.528 -0.3541  0.0126 -0.1325
18055TIP3    H175656   0.349   3.391  16.606  0.6527  1.4570  0.6755
18055TIP3    H275657   0.241   3.430  16.508 -0.0960 -2.0617  0.0247
18056TIP3   OH275658   4.530   0.860   5.173  0.2487  0.7745  0.5577
18056TIP3    H175659   4.568   0.881   5.258 -0.4087  0.5583  0.9015
18056TIP3    H275660   4.518   0.765   5.175 -0.4958  0.8675  0.5193
18057TIP3   OH275661   6.100   3.411  15.519  0.1472 -0.0213 -1.0112
18057TIP3    H175662   6.058   3.440  15.600  1.3877 -0.5009 -0.1814
18057TIP3    H275663   6.114   3.491  15.469  0.1674  0.3755 -0.3710
18058TIP3   OH275664   6.507   6.358   0.959  0.5524  0.2084 -0.5280
18058TIP3    H175665   6.504   6.277   1.010  1.6097  0.7827  0.4751
18058TIP3    H275666   6.598   6.363   0.929  0.6711  1.3748  0.0023
18059TIP3   OH275667   2.128   6.527  16.031 -0.1575  0.3376 -0.3957
18059TIP3    H175668   2.166   6.614  16.019 -0.0698  0.2580 -0.7151
18059TIP3    H275669   2.181   6.470  15.975  0.4716 -0.1122  0.6438
18060TIP3   OH275670   2.495   3.633   6.259 -0.1092 -0.6053 -0.2837
18060TIP3    H175671   2.450   3.694   6.200 -1.3872 -0.9045  0.3581
18060TIP3    H275672   2.467   3.546   6.229  1.7591 -0.9000 -1.2386
18061TIP3   OH275673   4.020   3.589   3.253  0.7035  0.0940 -0.3239
18061TIP3    H175674   3.931   3.623   3.259  0.1671 -1.2442 -0.4303
18061TIP3    H275675   4.021   3.513   3.312  1.8558  0.2727 -0.0884
18062TIP3   OH275676   4.053   1.936   0.024 -0.0171 -0.3179  0.4363
18062TIP3    H175677   4.038   1.851   0.064  1.0999  0.3550  2.3275
18062TIP3    H275678   4.145   1.934  -0.003 -0.4221 -0.3011 -0.9969
18063TIP3   OH275679   3.605   6.275  13.139 -0.5669  0.6352 -0.4801
18063TIP3    H175680   3.620   6.198  13.084 -0.1004  0.0076  0.5029
18063TIP3    H275681   3.606   6.241  13.229 -1.1933  1.6571 -0.0671
18064TIP3   OH275682   3.249   5.843   3.838  0.1149 -0.4561  0.0765
18064TIP3    H175683   3.343   5.831   3.848  0.3036  0.3320 -0.6821
18064TIP3    H275684   3.239   5.885   3.752 -0.6590  2.5953  1.5725
18065TIP3   OH275685   0.972   4.237  14.201  0.4286  1.0501  0.2596
18065TIP3    H175686   1.007   4.265  14.116  0.0066  1.1854  0.1284
18065TIP3    H275687   0.926   4.314  14.234 -0.9619  0.4296 -0.2237
18066TIP3   OH275688   3.905   2.564  16.040  0.3028 -0.1834  0.5261
18066TIP3    H175689   3.839   2.605  16.096 -0.1102 -0.4784  0.2586
18066TIP3    H275690   3.888   2.602  15.953  0.2355 -0.5486  0.3776
18067TIP3   OH275691   1.386   2.463   1.590  0.0695 -0.3827  0.0611
18067TIP3    H175692   1.445   2.538   1.580 -0.2192 -0.1256  0.2799
18067TIP3    H275693   1.421   2.414   1.664  0.4479 -0.6410 -0.2881
18068TIP3   OH275694   2.101   1.212  15.376  0.0517  0.2577  1.1384
18068TIP3    H175695   2.010   1.204  15.407 -0.3196 -0.7383 -0.1562
18068TIP3    H275696   2.126   1.302  15.397 -1.6729  0.9352  0.3424
18069TIP3   OH275697   0.175   1.981  15.130  0.1665 -0.4770  0.2094
18069TIP3    H175698   0.090   2.026  15.133  0.5306  0.1672  0.8390
18069TIP3    H275699   0.212   1.993  15.217  0.6579 -1.2507  0.1116
18070TIP3   OH275700   2.348   1.648   0.650  0.6511  0.0414 -0.2532
18070TIP3    H175701   2.331   1.675   0.741 -0.9987 -1.0207 -0.2233
18070TIP3    H275702   2.399   1.567   0.659  1.5428  0.5965 -0.2911
18071TIP3   OH275703   1.619   1.616   2.745 -0.5215 -0.0476 -0.3459
18071TIP3    H175704   1.654   1.548   2.687  1.5485  0.2257  0.5347
18071TIP3    H275705   1.692   1.677   2.757 -0.3285 -0.9114  3.7415
18072TIP3   OH275706   5.615   2.245  15.867 -0.4944 -0.3707  0.0244
18072TIP3    H175707   5.634   2.169  15.813 -0.0193  0.4196 -0.9155
18072TIP3    H275708   5.662   2.318  15.826 -2.3590  0.7991 -0.0986
18073TIP3   OH275709   3.153   3.515  16.543  0.0862  0.0244  0.4275
18073TIP3    H175710   3.215   3.442  16.542 -0.4822 -0.4787 -1.8650
18073TIP3    H275711   3.084   3.488  16.604  1.0727 -0.3038  1.4053
18074TIP3   OH275712   5.928   1.078  11.723 -0.2532  0.3185  0.3024
18074TIP3    H175713   5.916   1.088  11.628 -0.1867  0.9085  0.3531
18074TIP3    H275714   6.023   1.083  11.735 -0.3067  0.8946  0.4727
18075TIP3   OH275715   0.601   5.915   3.781 -0.1445  0.3697  0.8850
18075TIP3    H175716   0.666   5.845   3.777  0.5152  0.8841  2.1741
18075TIP3    H275717   0.561   5.906   3.867 -0.7214  0.9816  0.6862
18076TIP3   OH275718   1.406   2.854   1.135  0.1262 -0.0072  0.2126
18076TIP3    H175719   1.377   2.870   1.224 -0.5053 -1.7460  0.3364
18076TIP3    H275720   1.499   2.880   1.134  0.2782 -0.5075  1.5098
18077TIP3   OH275721   4.958   4.390   0.025  0.3764 -0.0529  0.4637
18077TIP3    H175722   4.917   4.347   0.100  0.3940 -0.3198  0.3210
18077TIP3    H275723   4.979   4.478   0.056  0.4766 -0.1974  0.8015
18078TIP3   OH275724   0.548   1.804  16.077  0.6518 -0.2796  0.0715
18078TIP3    H175725   0.631   1.813  16.031  0.2911 -0.4061 -0.6195
18078TIP3    H275726   0.567   1.827  16.168  1.4380 -0.3150 -0.0857
18079TIP3   OH275727   4.693   1.217  13.075  0.4595  0.4536  0.2000
18079TIP3    H175728   4.731   1.260  12.998  1.1738  2.8143  1.8485
18079TIP3    H275729   4.599   1.237  13.070  0.4286  0.2040 -0.2853
18080TIP3   OH275730   0.437   6.737  10.652  0.4589 -0.6831 -0.2856
18080TIP3    H175731   0.456   6.810  10.593  0.0687 -1.5993 -1.5930
18080TIP3    H275732   0.389   6.674  10.597 -3.8234  0.2869  2.1121
18081TIP3   OH275733   4.794   1.844  16.656  1.3450 -0.5320 -0.1887
18081TIP3    H175734   4.709   1.806  16.634  0.5668 -0.1746  2.0484
18081TIP3    H275735   4.850   1.768  16.672  0.6541 -0.7633  1.1690
18082TIP3   OH275736   6.163   6.493   3.293 -0.2737 -0.7044 -0.2825
18082TIP3    H175737   6.174   6.571   3.240  0.3843 -0.4725  0.1836
18082TIP3    H275738   6.201   6.422   3.241  1.9818 -0.1883  0.6033
18083TIP3   OH275739   2.795   5.274   4.706  0.0782 -0.3705  0.4298
18083TIP3    H175740   2.748   5.326   4.641 -0.6415 -0.5669  0.7884
18083TIP3    H275741   2.875   5.323   4.723  0.5996 -0.6636 -1.1171
18084TIP3   OH275742   6.196   5.067  15.754  0.3728 -0.2467  0.5062
18084TIP3    H175743   6.253   5.000  15.790  1.5123  0.1260 -0.5617
18084TIP3    H275744   6.244   5.149  15.768 -0.7461  0.2916  1.2835
18085TIP3   OH275745   6.077   3.216  16.786 -0.2218  0.5641 -0.2644
18085TIP3    H175746   6.100   3.308  16.800  0.6507  0.2909  0.1626
18085TIP3    H275747   6.127   3.169  16.852  1.5892 -0.4797 -2.3333
18086TIP3   OH275748   0.950   2.104   2.359 -0.1617 -0.2836  0.0189
18086TIP3    H175749   0.893   2.068   2.292 -0.7249 -0.6812  0.7089
18086TIP3    H275750   1.038   2.073   2.335  0.0655  1.8329 -2.0754
18087TIP3   OH275751   3.471   2.846   0.860 -0.8400 -0.3226 -0.3623
18087TIP3    H175752   3.493   2.845   0.953  0.9025 -0.0126 -0.7534
18087TIP3    H275753   3.376   2.859   0.858 -1.0321 -1.2946  1.3814
18088TIP3   OH275754   5.969   2.441   1.040  0.2219 -0.4194  0.4951
18088TIP3    H175755   5.929   2.513   1.090  0.5279  0.3578 -0.3677
18088TIP3    H275756   5.908   2.368   1.050 -1.3145  0.6914 -0.6261
18089TIP3   OH275757   5.885   6.148   0.096  0.5282 -0.4530 -0.0401
18089TIP3    H175758   5.864   6.055   0.102 -1.1255 -0.0387  0.8052
18089TIP3    H275759   5.840   6.178   0.017  1.2882 -0.4184 -0.4672
18090TIP3   OH275760   1.251   5.876  12.941  0.4656 -0.0330 -0.5968
18090TIP3    H175761   1.191   5.842  12.875  0.2971 -0.1155 -0.4027
18090TIP3    H275762   1.204   5.865  13.024  1.5451 -1.9333 -0.2204
18091TIP3   OH275763   2.386   1.758  16.645  0.1173 -0.5704 -1.0715
18091TIP3    H175764   2.396   1.795  16.732  0.6284 -1.6385 -0.6578
18091TIP3    H275765   2.318   1.810  16.603  0.8505  0.8383 -0.5315
18092TIP3   OH275766   0.819   0.033  15.812  0.3498  0.1208  1.2828
18092TIP3    H175767   0.869   0.029  15.894 -1.9508 -0.7600  2.6994
18092TIP3    H275768   0.782   0.121  15.811  0.8636  0.3314  0.8948
18093TIP3   OH275769   1.355   1.081  12.591 -0.4953 -0.3918  0.4628
18093TIP3    H175770   1.388   1.019  12.526 -0.9597  1.8543 -2.0185
18093TIP3    H275771   1.272   1.113  12.554 -0.5505  1.2651  1.9281
18094TIP3   OH275772   2.529   0.273  13.806  0.2202  0.1505 -0.5398
18094TIP3    H175773   2.583   0.343  13.770  1.5338 -0.1101  0.8384
18094TIP3    H275774   2.556   0.194  13.759  1.5390 -0.0938  0.5903
18095TIP3   OH275775   2.377   0.735  15.044  0.0677  0.1567  0.0322
18095TIP3    H175776   2.391   0.759  14.953  1.2736 -1.3398 -0.1942
18095TIP3    H275777   2.292   0.773  15.066 -0.9437 -0.7535 -2.1562
18096TIP3   OH275778   6.257   2.356   0.370 -0.6016 -0.4397  0.4332
18096TIP3    H175779   6.213   2.308   0.301 -2.1992 -1.1139  1.8795
18096TIP3    H275780   6.243   2.304   0.449 -0.5128  1.3001  1.6413
18097TIP3   OH275781   6.359   4.637   2.784 -0.7038  0.5338  0.1024
18097TIP3    H175782   6.389   4.694   2.714 -1.1769 -2.4261 -2.6196
18097TIP3    H275783   6.266   4.656   2.794 -0.5886  1.1042  0.1211
18098TIP3   OH275784   0.475   4.314   2.695  0.2552 -0.2873 -0.1888
18098TIP3    H175785   0.408   4.334   2.760 -1.1338 -1.3794 -1.2488
18098TIP3    H275786   0.534   4.254   2.739  0.0051 -0.0720  0.4495
18099TIP3   OH275787   1.659   0.885   1.348 -0.2825 -0.2309  0.4537
18099TIP3    H175788   1.667   0.803   1.299  0.2266 -0.7685  1.4213
18099TIP3    H275789   1.747   0.921   1.349 -0.8438  1.3003 -1.5872
18100TIP3   OH275790   6.377   6.599   4.887 -0.1247  0.0867  0.1451
18100TIP3    H175791   6.385   6.638   4.800  1.2203  1.4972  0.8692
18100TIP3    H275792   6.286   6.615   4.912 -0.1853  0.7945 -0.5073
18101TIP3   OH275793   3.994   2.260  14.596 -0.3117 -0.3978 -0.0143
18101TIP3    H175794   3.933   2.246  14.524 -0.2406 -0.7909  0.0049
18101TIP3    H275795   4.060   2.320  14.561  0.6686 -1.9342 -0.7940
18102TIP3   OH275796   2.010   1.379  14.934  0.4910 -0.0810 -0.2213
18102TIP3    H175797   1.966   1.459  14.964  0.3156  0.5528 -2.1052
18102TIP3    H275798   1.938   1.318  14.916  0.4977  0.0940 -0.8697
18103TIP3   OH275799   6.615   5.691   5.763  0.4423 -0.2230 -0.6127
18103TIP3    H175800   6.524   5.670   5.787  0.8158  1.5082  2.6273
18103TIP3    H275801   6.660   5.607   5.765 -0.4923 -0.7190  0.6162
18104TIP3   OH275802   6.040   0.905  13.833 -0.6804 -0.2914 -0.3163
18104TIP3    H175803   6.103   0.883  13.765 -0.9289  0.7604 -0.9066
18104TIP3    H275804   5.956   0.871  13.801 -0.6890 -0.3214 -0.2623
18105TIP3   OH275805   6.061   3.471   4.186 -0.3338  0.3989  0.2703
18105TIP3    H175806   6.006   3.531   4.136 -2.0626 -0.8763  0.5887
18105TIP3    H275807   6.088   3.404   4.123 -0.5843  0.0730  0.5058
18106TIP3   OH275808   0.567   0.988  11.482 -0.4062  0.2096  0.2177
18106TIP3    H175809   0.550   0.977  11.389  0.2986 -0.0176  0.1068
18106TIP3    H275810   0.569   1.083  11.496 -1.2767  0.2377  0.1524
18107TIP3   OH275811   0.702   2.144  15.618  0.2947  0.0118 -0.1848
18107TIP3    H175812   0.639   2.137  15.690  0.3548 -0.5167 -0.1755
18107TIP3    H275813   0.700   2.236  15.592  1.1410  0.4562  1.2706
18108TIP3   OH275814   2.849   5.943   1.174 -0.1089 -0.0909 -0.2480
18108TIP3    H175815   2.820   5.891   1.249 -0.1243 -0.8602 -0.7820
18108TIP3    H275816   2.919   5.997   1.209  0.3920 -0.9841  0.1606
18109TIP3   OH275817   1.857   1.880   3.064  0.5766 -0.2181 -0.0401
18109TIP3    H175818   1.938   1.856   3.108  0.9705  2.0373  0.5037
18109TIP3    H275819   1.803   1.921   3.131  0.2118  1.0617 -1.0947
18110TIP3   OH275820   2.716   1.294   1.893 -0.1744 -0.1763  0.0614
18110TIP3    H175821   2.631   1.281   1.851 -0.7916  2.6973  0.3505
18110TIP3    H275822   2.737   1.209   1.932 -2.5636 -1.1104 -0.6440
18111TIP3   OH275823   2.239   3.878  13.249  0.4901  0.2969  0.2473
18111TIP3    H175824   2.312   3.918  13.297 -1.1369  1.3633  1.8923
18111TIP3    H275825   2.185   3.952  13.221 -0.1718 -0.5117 -0.6564
18112TIP3   OH275826   4.193   5.595  16.789 -0.7692 -0.3645  0.1386
18112TIP3    H175827   4.119   5.595  16.850 -0.3777 -0.9478  0.6204
18112TIP3    H275828   4.204   5.503  16.765 -0.6185 -0.1941 -0.4466
18113TIP3   OH275829   1.640   3.557   1.886  0.3272 -0.3451  0.6514
18113TIP3    H175830   1.567   3.523   1.938  1.7254 -0.5589  2.5328
18113TIP3    H275831   1.712   3.562   1.948  2.3744 -1.7094 -1.5481
18114TIP3   OH275832   0.610   0.755  14.046  0.2146  0.2965  0.2153
18114TIP3    H175833   0.655   0.840  14.045 -1.3263  1.1471 -1.7928
18114TIP3    H275834   0.680   0.690  14.050  1.5430  1.6307 -0.8648
18115TIP3   OH275835   4.991   1.120  15.301 -0.1838 -0.2007 -0.1337
18115TIP3    H175836   4.909   1.163  15.323 -0.7538 -1.5207  0.3170
18115TIP3    H275837   5.050   1.142  15.373 -0.4714 -0.2049  0.0999
18116TIP3   OH275838   3.623   4.202  11.438 -0.5581 -0.4787  0.0719
18116TIP3    H175839   3.698   4.248  11.401 -0.5401 -0.7224 -0.1969
18116TIP3    H275840   3.551   4.221  11.378 -0.7334 -0.1745  0.3755
18117TIP3   OH275841   5.076   1.917  14.603  0.0214 -0.5341  0.0668
18117TIP3    H175842   5.035   1.831  14.615 -2.0404  0.2907 -0.9109
18117TIP3    H275843   5.105   1.917  14.511  0.8418 -0.5198  0.3204
18118TIP3   OH275844   0.563   1.269  11.467 -0.1640 -0.5820 -0.4239
18118TIP3    H175845   0.580   1.306  11.381  0.6128 -0.5815 -0.2748
18118TIP3    H275846   0.487   1.317  11.500  0.9716  1.0539 -0.1351
18119TIP3   OH275847   4.290   4.371  17.097  0.0430 -0.0589  0.2016
18119TIP3    H175848   4.340   4.294  17.071 -0.0588 -0.4320  1.0888
18119TIP3    H275849   4.343   4.411  17.167  0.0979  0.6707 -0.2585
18120TIP3   OH275850   0.995   4.755   4.057 -0.4329 -0.1563 -0.0334
18120TIP3    H175851   0.995   4.850   4.069  0.5386 -0.3968  1.8880
18120TIP3    H275852   1.029   4.719   4.139 -0.9814 -2.1852 -0.6505
18121TIP3   OH275853   3.379   3.969  11.327 -0.1609  0.2511  0.4684
18121TIP3    H175854   3.320   3.903  11.290 -0.9099  0.4534  1.3051
18121TIP3    H275855   3.422   3.924  11.400  1.8386 -0.3680 -1.0426
18122TIP3   OH275856   1.273   2.756  16.753 -0.3376 -0.0414  0.4381
18122TIP3    H175857   1.201   2.714  16.799  0.3352 -1.7042 -0.0125
18122TIP3    H275858   1.318   2.685  16.707  0.9561  1.1202 -0.1432
18123TIP3   OH275859   1.409   3.391  15.454  0.4483  0.4223  0.2055
18123TIP3    H175860   1.496   3.354  15.466  0.1032 -0.6058 -0.4247
18123TIP3    H275861   1.349   3.318  15.471 -0.3170  1.2680  1.2228
18124TIP3   OH275862   4.659   3.805   4.393  0.1390 -0.1979 -0.0719
18124TIP3    H175863   4.617   3.870   4.450 -0.4697 -0.9778  0.3865
18124TIP3    H275864   4.646   3.839   4.304 -3.9840 -1.7659 -0.1968
18125TIP3   OH275865   1.131   3.966   1.244  0.3163  0.4469 -0.8851
18125TIP3    H175866   1.071   3.953   1.172 -2.6097 -1.0611  1.7195
18125TIP3    H275867   1.178   3.883   1.252 -0.8582 -0.1209  0.2384
18126TIP3   OH275868   5.739   5.988   5.231 -0.0049  0.1901  0.2503
18126TIP3    H175869   5.649   6.008   5.205 -0.1067  0.4278  0.7740
18126TIP3    H275870   5.791   6.058   5.191  0.0961 -0.5857 -1.0118
18127TIP3   OH275871   3.519   4.326  15.448  0.2224  0.0100 -0.2505
18127TIP3    H175872   3.503   4.359  15.360  2.3115 -0.6095 -0.8843
18127TIP3    H275873   3.613   4.338  15.462  0.2433 -1.5812  1.1642
18128TIP3   OH275874   2.263   0.064  14.621  0.1317 -0.5662 -0.1079
18128TIP3    H175875   2.304  -0.010  14.665 -1.4425 -1.4306 -0.0601
18128TIP3    H275876   2.282   0.139  14.677  0.9263 -1.0844  0.3295
18129TIP3   OH275877   3.074   5.028   4.791  0.1764 -0.1343 -0.4558
18129TIP3    H175878   3.152   4.973   4.788 -0.4200 -1.1617  2.1573
18129TIP3    H275879   3.002   4.967   4.776 -0.4053  0.1225  1.2696
18130TIP3   OH275880   4.693   5.631   1.226  0.1280 -0.1160 -0.6221
18130TIP3    H175881   4.753   5.682   1.171  0.3183  0.8103  0.4320
18130TIP3    H275882   4.637   5.697   1.267 -0.5242 -0.8624 -0.3161
18131TIP3   OH275883   2.079   1.457   4.082 -0.6585 -0.0056 -0.2074
18131TIP3    H175884   2.074   1.520   4.011  2.2753  0.9690  0.3567
18131TIP3    H275885   2.046   1.503   4.159  2.8240  1.4536  0.5170
18132TIP3   OH275886   1.999   3.273  15.964 -0.4311  0.0700  0.1179
18132TIP3    H175887   1.956   3.263  16.049 -2.8908 -1.0245 -1.2012
18132TIP3    H275888   2.073   3.331  15.981  0.1437 -1.5218  3.3363
18133TIP3   OH275889   1.554   1.643  12.846  0.5300  0.1707 -0.3716
18133TIP3    H175890   1.483   1.589  12.810  0.4881 -1.2638  1.8373
18133TIP3    H275891   1.623   1.640  12.780 -0.5216 -0.3727 -1.4586
18134TIP3   OH275892   1.812   4.173  14.793  0.4338 -0.7156 -0.0857
18134TIP3    H175893   1.896   4.133  14.814  0.5262 -0.2597  0.4177
18134TIP3    H275894   1.770   4.111  14.733  0.5478 -1.6068  0.7454
18135TIP3   OH275895   2.118   3.651   5.791 -0.3695  0.3113 -0.0568
18135TIP3    H175896   2.088   3.654   5.882  2.0625 -0.7645  0.8125
18135TIP3    H275897   2.179   3.578   5.788  0.7524  1.2861 -2.2178
18136TIP3   OH275898   1.611   6.727   0.970 -0.1298  1.2013  0.5372
18136TIP3    H175899   1.570   6.782   1.037  0.0366  0.6143  1.1318
18136TIP3    H275900   1.693   6.698   1.010 -0.4189  0.1686  0.4072
18137TIP3   OH275901   4.603   1.661  16.541  0.0785 -0.2682  0.2576
18137TIP3    H175902   4.621   1.616  16.458  0.1502 -2.1500  1.2620
18137TIP3    H275903   4.588   1.590  16.604  0.7395  1.1246  2.0209
18138TIP3   OH275904   3.989   3.637  14.673 -0.9152  0.2994  0.2315
18138TIP3    H175905   4.061   3.582  14.705 -0.9388 -0.0890 -0.3672
18138TIP3    H275906   3.922   3.630  14.741 -0.4979  0.4389  0.6612
18139TIP3   OH275907   2.821   6.402   3.568 -0.0406 -0.2755  0.3681
18139TIP3    H175908   2.833   6.307   3.576 -0.4149 -0.4993 -1.3445
18139TIP3    H275909   2.815   6.416   3.473  0.2185  1.4884  0.6090
18140TIP3   OH275910   2.907   0.512  12.598 -0.7408  0.6438 -0.0721
18140TIP3    H175911   2.820   0.528  12.634 -0.8535 -2.5116  1.1948
18140TIP3    H275912   2.906   0.419  12.574  2.8848  0.0878  1.6958
18141TIP3   OH275913   6.386   5.209   0.529  0.7841 -0.9469 -0.1696
18141TIP3    H175914   6.431   5.153   0.592  0.6580 -1.1488 -0.2583
18141TIP3    H275915   6.446   5.213   0.454  0.2941 -1.8851 -0.6201
18142TIP3   OH275916   1.445   3.892  16.738 -0.1656 -0.0071  0.3686
18142TIP3    H175917   1.379   3.931  16.795  0.2999  1.4369 -0.0336
18142TIP3    H275918   1.402   3.883  16.654 -0.1087  0.1648  0.3193
18143TIP3   OH275919   1.380   1.209   2.046 -0.2306 -0.1306 -0.1656
18143TIP3    H175920   1.431   1.209   2.127 -2.4981 -1.6360  1.3124
18143TIP3    H275921   1.438   1.167   1.981  1.1749  0.0739  0.9431
18144TIP3   OH275922   2.904   6.767  12.007  0.1282 -0.5394 -0.2546
18144TIP3    H175923   2.916   6.782  12.101 -1.5252 -2.2348  0.2566
18144TIP3    H275924   2.813   6.738  11.999 -1.4082  4.4583 -3.0127
18145TIP3   OH275925   1.944   4.319  15.004  0.2373 -0.0484  0.0586
18145TIP3    H175926   1.904   4.309  14.918  1.8193 -0.9202 -0.5912
18145TIP3    H275927   2.023   4.370  14.988  0.4630 -0.0836  1.0278
18146TIP3   OH275928   5.313   0.651  13.548  0.1007 -0.6783  0.0333
18146TIP3    H175929   5.317   0.663  13.453 -0.8056  0.4571  0.1268
18146TIP3    H275930   5.330   0.739  13.583  2.2408 -1.4328  0.9697
18147TIP3   OH275931   4.496   6.678   0.935  0.9314 -0.0315 -0.2018
18147TIP3    H175932   4.453   6.598   0.904 -0.2915  0.5759 -0.1085
18147TIP3    H275933   4.517   6.661   1.026 -1.3127  0.5101  0.4722
18148TIP3   OH275934   4.209   5.767   0.277  0.1285 -0.1273  0.8409
18148TIP3    H175935   4.284   5.772   0.218  0.5324  0.6975  1.4098
18148TIP3    H275936   4.219   5.683   0.321 -0.2845 -0.8362 -0.3918
18149TIP3   OH275937   5.684   5.744   5.777  0.1408  0.4353 -0.0452
18149TIP3    H175938   5.647   5.662   5.744 -0.6302  0.6755  0.2209
18149TIP3    H275939   5.681   5.803   5.702 -1.2943  0.8770  0.3538
18150TIP3   OH275940   5.882   0.316  11.757  0.2934 -0.1081 -0.4947
18150TIP3    H175941   5.959   0.323  11.812  0.4520  0.0251 -0.7308
18150TIP3    H275942   5.855   0.407  11.742  0.6235 -0.1168 -1.1552
18151TIP3   OH275943   6.403   0.126   1.693  0.3926  0.0839  0.7034
18151TIP3    H175944   6.440   0.213   1.680 -2.9001  1.5221  0.4317
18151TIP3    H275945   6.417   0.082   1.609  1.9891  0.3750  0.8054
18152TIP3   OH275946   2.533   4.119   2.688  0.3383 -0.0580 -0.5521
18152TIP3    H175947   2.538   4.027   2.663 -0.4027  0.2416 -1.8892
18152TIP3    H275948   2.441   4.143   2.674  0.6972  1.1000 -1.0490
18153TIP3   OH275949   4.204   4.188   1.667 -0.3402 -0.8574  0.4506
18153TIP3    H175950   4.153   4.267   1.650  0.2528 -0.6472 -0.4070
18153TIP3    H275951   4.189   4.168   1.759  1.9776  2.0414  1.5523
18154TIP3   OH275952   1.943   2.093   5.499 -0.7843 -0.1832  0.0030
18154TIP3    H175953   1.944   2.186   5.475 -1.0610 -0.1763  0.0252
18154TIP3    H275954   1.910   2.048   5.422  0.6379 -0.4008 -0.5039
18155TIP3   OH275955   0.296   5.599   4.438 -0.1478 -0.3997  0.0919
18155TIP3    H175956   0.238   5.586   4.513 -2.0377 -2.5472 -1.6753
18155TIP3    H275957   0.364   5.533   4.449  0.1249 -0.0641  0.4280
18156TIP3   OH275958   2.545   3.580  12.152  0.3191  0.7276  0.0210
18156TIP3    H175959   2.554   3.609  12.061  1.4789  0.6970  0.1151
18156TIP3    H275960   2.556   3.485  12.148 -2.1774  0.4249 -0.1224
18157TIP3   OH275961   1.150   5.374   2.866  0.7342 -0.0577  0.3283
18157TIP3    H175962   1.240   5.397   2.843  0.0674  0.7831 -1.6069
18157TIP3    H275963   1.120   5.323   2.791 -0.4763 -0.0966  0.8409
18158TIP3   OH275964   1.492   5.408   5.159  0.2898 -0.1410 -0.0887
18158TIP3    H175965   1.481   5.336   5.097 -1.0091 -1.5787  1.7530
18158TIP3    H275966   1.562   5.378   5.217 -0.9104 -0.3912  1.2724
18159TIP3   OH275967   2.896   0.887   1.004  0.4322  0.0370  0.4545
18159TIP3    H175968   2.894   0.791   1.009  0.0167  0.0071 -0.1768
18159TIP3    H275969   2.945   0.914   1.082 -0.0827 -0.6519  1.0252
18160TIP3   OH275970   1.912   0.501   2.864  0.4328  0.2129  0.0848
18160TIP3    H175971   1.899   0.406   2.862  1.5422  0.0622 -0.2280
18160TIP3    H275972   1.901   0.524   2.956 -1.0594 -0.0305 -0.0139
18161TIP3   OH275973   4.572   2.596   5.408 -0.0796  0.1559 -0.2287
18161TIP3    H175974   4.499   2.593   5.470 -0.3361 -3.2650 -0.5853
18161TIP3    H275975   4.544   2.541   5.335  1.6978  1.1570 -1.7191
18162TIP3   OH275976   0.456   4.344  17.003 -0.2496 -0.9171 -0.1061
18162TIP3    H175977   0.500   4.274  16.955  0.7120 -0.8369  0.6382
18162TIP3    H275978   0.363   4.323  16.996 -0.1924 -0.4076 -2.7417
18163TIP3   OH275979   5.043   5.613   0.361  0.5107 -0.1378 -0.1416
18163TIP3    H175980   5.018   5.637   0.450  1.3960  0.5235 -0.0689
18163TIP3    H275981   5.033   5.694   0.311  1.8940 -0.0180 -0.2398
18164TIP3   OH275982   0.457   6.399   4.339 -0.8294 -0.4225 -0.2310
18164TIP3    H175983   0.400   6.456   4.390 -0.7331  1.0174 -1.7131
18164TIP3    H275984   0.514   6.358   4.404 -0.9439  1.1096  0.8556
18165TIP3   OH275985   4.938   1.339  11.012  0.5721 -0.0224  0.2163
18165TIP3    H175986   4.982   1.267  11.057 -2.7752 -1.1934  1.8452
18165TIP3    H275987   4.857   1.300  10.979  1.4165  1.6116 -4.1283
18166TIP3   OH275988   3.698   4.287  16.627 -0.0092 -0.1676 -0.5662
18166TIP3    H175989   3.607   4.294  16.656  0.5195  0.8061  0.9381
18166TIP3    H275990   3.709   4.359  16.565  0.5056  1.5126  1.4288
18167TIP3   OH275991   2.111   1.890  16.115 -0.2368  0.1394 -0.0734
18167TIP3    H175992   2.112   1.795  16.102  1.1616  0.1754 -0.2783
18167TIP3    H275993   2.071   1.925  16.035 -3.2112 -0.4017  1.0841
18168TIP3   OH275994   1.525   6.087  16.500 -0.3603 -0.3084  0.1409
18168TIP3    H175995   1.594   6.075  16.566  0.2749 -0.6096 -0.5678
18168TIP3    H275996   1.447   6.109  16.550  0.2362 -0.0491  0.9625
18169TIP3   OH275997   1.649   5.212   2.624 -0.0627  0.5892  0.6476
18169TIP3    H175998   1.634   5.153   2.698  0.1530  0.6201  0.7174
18169TIP3    H275999   1.721   5.171   2.575  0.8473  1.3721  1.3105
18170TIP3   OH276000   6.703   4.652   2.695  0.0957  0.3453 -0.1264
18170TIP3    H176001   6.637   4.721   2.690 -0.8582 -0.3660  1.8081
18170TIP3    H276002   6.686   4.597   2.619 -1.0198  0.6351 -0.1048
18171TIP3   OH276003   0.924   2.000  15.613  0.3028 -0.9099  0.5286
18171TIP3    H176004   0.837   2.032  15.592  0.9910  0.5784 -0.0877
18171TIP3    H276005   0.954   2.056  15.685  0.6450 -1.5990  0.9292
18172TIP3   OH276006   3.520   2.361   0.727  0.0643  0.5472 -0.0241
18172TIP3    H176007   3.580   2.434   0.738  0.0035  0.4961  0.7020
18172TIP3    H276008   3.573   2.290   0.693  0.6332  0.1924  1.5686
18173TIP3   OH276009   3.791   3.232  10.605 -0.5141 -0.1202  0.3691
18173TIP3    H176010   3.786   3.194  10.518 -0.5933 -2.1362  1.2187
18173TIP3    H276011   3.853   3.176  10.652 -1.6474 -0.0053  2.0602
18174TIP3   OH276012   0.996   3.970  11.558 -0.0677  0.6425 -0.1967
18174TIP3    H176013   1.030   4.053  11.592  0.4983  0.4271 -0.2235
18174TIP3    H276014   1.020   3.905  11.625 -1.2222  0.6292  0.2139
18175TIP3   OH276015   6.637   3.209   0.534 -0.0751 -0.0051 -0.2388
18175TIP3    H176016   6.599   3.208   0.622  0.7417 -0.3870  0.1191
18175TIP3    H276017   6.582   3.151   0.483 -0.1817 -0.2753  0.1852
18176TIP3   OH276018   1.241   1.662   1.020  0.5736  0.3174 -0.4162
18176TIP3    H176019   1.248   1.713   0.940 -1.7252 -0.1211 -0.9429
18176TIP3    H276020   1.152   1.679   1.052  0.6006 -1.4382  0.6928
18177TIP3   OH276021   0.970   4.084  16.406  0.3374  0.4906  0.0900
18177TIP3    H176022   0.928   4.170  16.409  0.0333  0.3739 -0.7018
18177TIP3    H276023   1.024   4.086  16.328 -0.1738 -0.2631 -0.2925
18178TIP3   OH276024   4.856   3.261  15.241 -0.0728  0.0868 -0.2547
18178TIP3    H176025   4.902   3.322  15.183  0.6708  0.2372  0.4844
18178TIP3    H276026   4.864   3.176  15.198  1.8646 -0.0842  0.4229
18179TIP3   OH276027   3.756   3.813  12.103  0.6214 -0.4392  0.0431
18179TIP3    H176028   3.734   3.850  12.018  1.1190  0.5035  0.3159
18179TIP3    H276029   3.796   3.729  12.082 -0.1792 -0.6623 -0.6021
18180TIP3   OH276030   5.815   1.790  14.368 -0.4224 -0.3329 -0.1061
18180TIP3    H176031   5.819   1.735  14.290 -0.1738 -1.0650  0.4108
18180TIP3    H276032   5.723   1.813  14.377 -0.9592 -2.7880  1.1080
18181TIP3   OH276033   0.098   4.704   3.099  0.0666  0.1445 -0.3124
18181TIP3    H176034   0.185   4.745   3.105  1.0743 -1.8310 -1.0757
18181TIP3    H276035   0.110   4.632   3.037 -2.9999  2.0357 -3.2594
18182TIP3   OH276036   1.873   6.076   1.858 -0.0336 -0.7247 -0.4513
18182TIP3    H176037   1.929   6.094   1.782 -0.3885 -2.0194 -1.0490
18182TIP3    H276038   1.921   6.111   1.933  1.0200 -0.7621 -1.1051
18183TIP3   OH276039   3.936   0.781   3.949 -0.0333  0.2844  0.4841
18183TIP3    H176040   4.014   0.824   3.913  0.4008 -0.2239  0.8017
18183TIP3    H276041   3.911   0.834   4.024  0.9289 -0.4051  1.3091
18184TIP3   OH276042   1.707   4.295   5.267 -0.1881  0.3029 -0.1175
18184TIP3    H176043   1.755   4.376   5.252 -1.6497  0.9617 -1.4121
18184TIP3    H276044   1.706   4.251   5.182  0.8706 -1.2426  0.6456
18185TIP3   OH276045   0.052   3.609   1.780  0.9598 -0.0061 -0.0325
18185TIP3    H176046  -0.041   3.621   1.801  1.2284  1.4657  0.3688
18185TIP3    H276047   0.052   3.553   1.702 -0.1900 -1.7141  1.1549
18186TIP3   OH276048   3.444   1.344  13.904 -0.2344 -0.3333  0.1558
18186TIP3    H176049   3.529   1.300  13.906 -1.9698 -3.8392  0.2818
18186TIP3    H276050   3.381   1.274  13.890 -2.9079  2.5447 -3.2083
18187TIP3   OH276051   5.860   0.180  16.381 -0.2538 -0.5971 -0.4308
18187TIP3    H176052   5.909   0.114  16.430 -0.3811 -0.1641  0.2846
18187TIP3    H276053   5.902   0.182  16.295 -1.5721 -3.1018 -1.1676
18188TIP3   OH276054   3.962   5.278   5.381  0.1499 -0.2380  0.1085
18188TIP3    H176055   3.970   5.216   5.309  0.6851 -0.0394 -0.0062
18188TIP3    H276056   3.875   5.261   5.418 -0.0419 -0.4818 -0.4502
18189TIP3   OH276057   5.867   3.191  11.890 -0.0322 -0.5197  0.0207
18189TIP3    H176058   5.937   3.140  11.931 -0.6623 -0.4847  1.1641
18189TIP3    H276059   5.912   3.260  11.841  0.7440 -0.7396  0.4273
18190TIP3   OH276060   1.872   5.385  14.235 -0.3320  0.6655 -0.1840
18190TIP3    H176061   1.905   5.345  14.155  0.9261 -0.7429  1.0056
18190TIP3    H276062   1.807   5.322  14.268 -0.1956  0.8066  0.3651
18191TIP3   OH276063   2.858   2.440  11.389 -0.2926  0.1165  0.0545
18191TIP3    H176064   2.873   2.525  11.347  0.8791 -0.5588 -0.9417
18191TIP3    H276065   2.936   2.425  11.443 -0.0427 -0.7485 -0.5284
18192TIP3   OH276066   6.075   6.265   1.784  0.0210  0.1604 -0.1471
18192TIP3    H176067   5.984   6.292   1.796  0.6087  0.8158  3.4794
18192TIP3    H276068   6.106   6.316   1.710 -1.3058  3.2009  1.3335
18193TIP3   OH276069   4.537   6.393   4.947  0.1323 -0.3679 -0.6226
18193TIP3    H176070   4.549   6.351   5.032 -2.0107  0.2036 -0.0015
18193TIP3    H276071   4.559   6.325   4.883  1.2571 -0.9642  0.3817
18194TIP3   OH276072   3.079   3.232  13.963 -0.1231 -0.2141  0.2295
18194TIP3    H176073   3.160   3.283  13.964 -0.0509 -0.3204 -0.0643
18194TIP3    H276074   3.068   3.203  14.053 -0.3070  0.5446  0.4536
18195TIP3   OH276075   1.344   2.657  17.097  0.1095 -0.4390 -0.1784
18195TIP3    H176076   1.431   2.619  17.086  0.9512  1.2026  0.7266
18195TIP3    H276077   1.286   2.598  17.048  1.5088 -2.3427  0.3882
18196TIP3   OH276078   2.338   5.097  12.283  0.0854 -0.3076 -0.4352
18196TIP3    H176079   2.306   5.116  12.371  3.3231  0.3208  0.6716
18196TIP3    H276080   2.302   5.011  12.262 -1.4623 -0.0602  1.1166
18197TIP3   OH276081   4.207   4.938   4.811  0.0056  0.4040  0.3762
18197TIP3    H176082   4.285   4.923   4.757  0.4976  1.7293  0.6907
18197TIP3    H276083   4.221   4.883   4.888  0.7390  0.8168  0.5384
18198TIP3   OH276084   1.661   1.946   3.240 -0.1042 -0.0871 -0.0389
18198TIP3    H176085   1.659   1.863   3.288 -0.4230  0.1184  0.3102
18198TIP3    H276086   1.569   1.969   3.228 -0.0188  0.4151  0.2205
18199TIP3   OH276087   5.309   3.224  11.347  0.1881  0.2156 -0.6177
18199TIP3    H176088   5.227   3.178  11.364  0.2755  0.1640 -0.3252
18199TIP3    H276089   5.325   3.212  11.254  0.5067 -0.8373 -0.4385
18200TIP3   OH276090   4.045   3.960   5.657  0.5853  0.1964 -0.4069
18200TIP3    H176091   3.981   3.900   5.695  2.1347 -2.1446 -1.3813
18200TIP3    H276092   4.000   3.999   5.582 -0.5095  0.4550  0.3781
18201TIP3   OH276093   4.531   1.287  13.457 -0.2056  0.1153 -0.3627
18201TIP3    H176094   4.483   1.206  13.476 -1.5399  0.6589 -1.3027
18201TIP3    H276095   4.560   1.318  13.542  2.0526 -2.3887 -0.1511
18202TIP3   OH276096   1.062   4.626  16.036 -0.0772  0.3566 -0.1937
18202TIP3    H176097   1.021   4.702  16.076 -0.5693 -0.4695  0.8642
18202TIP3    H276098   1.106   4.580  16.108  1.9204  0.7117 -1.1354
18203TIP3   OH276099   2.172   5.324  13.544  0.6661 -0.1849  0.0655
18203TIP3    H176100   2.141   5.413  13.527  0.8690 -0.3367 -1.1282
18203TIP3    H276101   2.143   5.306  13.633  2.0910  1.6966  0.9490
18204TIP3   OH276102   4.243   2.979   1.508 -0.3809 -0.5029  0.3112
18204TIP3    H176103   4.240   3.033   1.587 -0.5307  0.2541 -0.2044
18204TIP3    H276104   4.299   2.905   1.532  0.1361  0.0731  0.9091
18205TIP3   OH276105   0.209   0.403   2.043 -0.3094  0.0683 -0.4312
18205TIP3    H176106   0.203   0.414   2.138 -1.4463  3.0071 -0.7863
18205TIP3    H276107   0.152   0.472   2.008  0.0495 -1.0325 -3.2461
18206TIP3   OH276108   0.585   5.633   2.188  0.0688 -0.0399  0.2636
18206TIP3    H176109   0.541   5.690   2.124 -0.8024 -1.1871 -0.1714
18206TIP3    H276110   0.520   5.619   2.257  1.0571  1.3269  1.5230
18207TIP3   OH276111   5.223   4.259   0.251 -0.4559 -0.4401 -0.4175
18207TIP3    H176112   5.227   4.166   0.273  0.3959 -0.2940  0.0586
18207TIP3    H276113   5.130   4.277   0.239 -0.8114 -0.8685  1.5755
18208TIP3   OH276114   3.982   2.522  13.797 -0.1547  0.3418 -0.2308
18208TIP3    H176115   4.076   2.522  13.814 -0.2760 -0.5983  0.5340
18208TIP3    H276116   3.952   2.608  13.827  0.4860  0.7255 -0.6711
18209TIP3   OH276117   3.084   3.138  16.508 -0.2635 -0.2240  0.3162
18209TIP3    H176118   3.018   3.094  16.455  1.7341  0.3847 -2.8039
18209TIP3    H276119   3.132   3.067  16.551  0.0088 -0.9012 -1.0785
18210TIP3   OH276120   3.178   4.606   4.583  0.4934  0.2914  0.2920
18210TIP3    H176121   3.148   4.663   4.511 -0.1356  0.4256  0.6515
18210TIP3    H276122   3.261   4.644   4.611  1.7521 -0.9167 -1.6712
18211TIP3   OH276123   4.468   6.525  12.497  0.4680  0.3885 -0.1059
18211TIP3    H176124   4.446   6.526  12.403 -2.2176  0.3899  0.4715
18211TIP3    H276125   4.453   6.434  12.523 -1.1785  0.9000  0.8122
18212TIP3   OH276126   1.558   6.140   4.435 -0.3542 -0.7883 -0.1764
18212TIP3    H176127   1.601   6.199   4.373  0.8149 -1.8441 -0.4079
18212TIP3    H276128   1.535   6.196   4.509  3.4585 -0.5188  0.9380
18213TIP3   OH276129   4.355   2.479   4.314 -0.3066 -0.3035 -0.2649
18213TIP3    H176130   4.427   2.427   4.350  0.5351  0.9678 -0.0417
18213TIP3    H276131   4.309   2.512   4.391  0.8274  1.5125 -0.3322
18214TIP3   OH276132   5.489   6.763   1.560 -0.6015 -0.0931  0.3707
18214TIP3    H176133   5.488   6.673   1.592 -0.7897 -0.5448 -0.8936
18214TIP3    H276134   5.418   6.767   1.496  0.2210  0.6108 -0.5178
18215TIP3   OH276135   5.178   1.647   3.314 -0.6805  0.0376 -0.2250
18215TIP3    H176136   5.176   1.577   3.249 -0.6634 -0.7784  0.6253
18215TIP3    H276137   5.270   1.658   3.335 -0.7559 -0.4188  0.3890
18216TIP3   OH276138   3.373   1.442  13.469  0.6695 -0.1210  0.4639
18216TIP3    H176139   3.333   1.451  13.382 -0.3826 -0.0526  0.9501
18216TIP3    H276140   3.418   1.526  13.483 -1.2547  0.8495  1.0207
18217TIP3   OH276141   5.099   2.909   4.401 -0.2874  0.0285  0.0711
18217TIP3    H176142   5.095   2.852   4.324 -0.4823 -0.3014  0.3243
18217TIP3    H276143   5.166   2.870   4.456  1.0306  1.2135 -0.6862
18218TIP3   OH276144   2.028   1.178   2.587 -0.4358  0.2903 -0.3934
18218TIP3    H176145   2.018   1.182   2.491 -2.5016  2.6244 -0.1300
18218TIP3    H276146   1.960   1.117   2.616 -1.7884  1.8395 -0.2065
18219TIP3   OH276147   0.399   0.281  13.493 -0.1039 -0.1896  0.2611
18219TIP3    H176148   0.462   0.250  13.428 -1.1585  0.4257 -1.0890
18219TIP3    H276149   0.347   0.347  13.446 -2.6546 -1.6540  0.8984
18220TIP3   OH276150   6.440   5.890  14.643 -0.4102 -0.6461  0.1001
18220TIP3    H176151   6.452   5.982  14.617 -0.2192 -0.5790  0.4249
18220TIP3    H276152   6.479   5.885  14.730 -1.5543 -0.7410  0.6131
18221TIP3   OH276153   3.604   3.928   2.009 -0.0901  0.0889 -0.3453
18221TIP3    H176154   3.642   3.946   2.095 -2.7964  1.1061  0.6849
18221TIP3    H276155   3.625   4.005   1.956 -2.4638  1.6087  0.8596
18222TIP3   OH276156   3.570   1.113   1.570 -0.6390 -0.0872 -0.4087
18222TIP3    H176157   3.641   1.108   1.634 -1.3797 -0.6603  0.3720
18222TIP3    H276158   3.584   1.197   1.526  0.5908 -0.2482 -0.3437
18223TIP3   OH276159   3.007   5.056   5.792 -0.0643 -0.2352  0.5896
18223TIP3    H176160   2.944   5.071   5.863 -0.3584 -1.4248  0.5981
18223TIP3    H276161   2.952   5.040   5.715  0.2604  1.5145 -0.0139
18224TIP3   OH276162   2.422   2.348   4.719  0.5014  0.2464 -0.3008
18224TIP3    H176163   2.390   2.432   4.751  1.8329  0.0015  1.7631
18224TIP3    H276164   2.490   2.371   4.655  0.5484  0.7475 -0.0769
18225TIP3   OH276165   6.358   6.113   3.761  0.7745 -0.0934  0.3631
18225TIP3    H176166   6.386   6.058   3.834 -2.8316 -0.1031  1.8521
18225TIP3    H276167   6.357   6.055   3.685 -0.2867 -1.3532  1.3365
18226TIP3   OH276168   0.625   1.505  15.637  0.0738 -0.5141  0.3928
18226TIP3    H176169   0.721   1.508  15.641 -0.0276  0.0995  2.7523
18226TIP3    H276170   0.605   1.515  15.544  2.1898  2.3382  0.1900
18227TIP3   OH276171   1.433   0.848  16.550 -0.6166  0.5475  0.4314
18227TIP3    H176172   1.396   0.929  16.585 -1.0481  1.3018 -1.7443
18227TIP3    H276173   1.361   0.808  16.501  0.2801  0.0032 -0.4366
18228TIP3   OH276174   3.326   3.372   4.192 -0.6233 -0.0626  0.1824
18228TIP3    H176175   3.338   3.380   4.287  1.3531  1.0013 -0.1375
18228TIP3    H276176   3.407   3.332   4.160 -1.2726 -0.4210 -1.0651
18229TIP3   OH276177   0.122   3.984  14.574 -0.0826  0.7192 -0.1739
18229TIP3    H176178   0.060   4.028  14.516  0.4447  0.8562 -0.6284
18229TIP3    H276179   0.152   3.908  14.525  0.1866  0.7091  0.0047
18230TIP3   OH276180   5.199   6.108   0.516 -0.3845 -0.2478 -0.2288
18230TIP3    H176181   5.272   6.099   0.454  0.0010  0.4673  0.1168
18230TIP3    H276182   5.240   6.142   0.595 -0.8173 -1.4991  0.5381
18231TIP3   OH276183   6.181   6.743  13.221 -0.2043 -0.1448  0.1457
18231TIP3    H176184   6.196   6.654  13.191 -0.7847  0.3699 -1.7407
18231TIP3    H276185   6.090   6.762  13.197  0.2949  1.3855 -0.6135
18232TIP3   OH276186   6.010   4.797  16.727 -0.4274  0.3990  0.0898
18232TIP3    H176187   5.924   4.769  16.757  0.4660  0.0932  2.4830
18232TIP3    H276188   6.069   4.726  16.752  0.8179  1.4831  0.2963
18233TIP3   OH276189   4.712   1.407  16.629 -0.3959  0.1070  0.0921
18233TIP3    H176190   4.645   1.369  16.573 -1.6159  2.6376 -0.2289
18233TIP3    H276191   4.686   1.381  16.718 -0.1262 -1.3952 -0.2528
18234TIP3   OH276192   4.094   5.191  16.965 -0.0325 -0.5046  0.0820
18234TIP3    H176193   4.156   5.127  16.999  0.3263 -0.7501 -1.0074
18234TIP3    H276194   4.131   5.218  16.880 -0.4150  0.7853  0.3030
18235TIP3   OH276195   2.926   6.278   0.055 -0.3101 -0.7807  0.3853
18235TIP3    H176196   2.952   6.335  -0.018 -0.3139  0.6927  1.5077
18235TIP3    H276197   2.903   6.195   0.013 -1.1223  0.3034 -1.3888
18236TIP3   OH276198   1.977   6.106  12.776  0.4330 -0.2585 -0.0625
18236TIP3    H176199   2.022   6.054  12.842  1.6273 -0.4136 -0.9790
18236TIP3    H276200   1.908   6.153  12.824  1.6861  0.1119  1.3927
18237TIP3   OH276201   6.247   0.603   4.127  0.3132  0.6850  0.0238
18237TIP3    H176202   6.256   0.545   4.203 -1.3496 -0.3321 -0.5381
18237TIP3    H276203   6.305   0.677   4.146 -0.8122  0.9085  2.7119
18238TIP3   OH276204   4.714   5.225   6.781 -0.3602  0.8039  0.7163
18238TIP3    H176205   4.655   5.151   6.768 -1.6271  1.8225  0.6505
18238TIP3    H276206   4.762   5.203   6.861  0.1295 -0.6329  0.0536
18239TIP3   OH276207   0.104   3.636   3.612 -0.3480 -0.2993  0.0651
18239TIP3    H176208   0.147   3.722   3.611  0.2700 -0.5877  1.2934
18239TIP3    H276209   0.028   3.647   3.554  0.1797  0.8377 -0.4284
18240TIP3   OH276210   4.190   6.777   2.621 -0.4451  0.4294 -0.0909
18240TIP3    H176211   4.200   6.859   2.669 -4.1818  2.0043 -1.9044
18240TIP3    H276212   4.169   6.712   2.689  0.7227  1.2933  1.1237
18241TIP3   OH276213   0.193   4.771  16.517  0.3303 -0.2022 -0.2983
18241TIP3    H176214   0.103   4.762  16.487 -0.0052 -0.2945  0.7137
18241TIP3    H276215   0.215   4.863  16.500 -0.5773  0.2893  1.1336
18242TIP3   OH276216   3.440   1.818   6.719 -0.2420 -0.0016  0.0565
18242TIP3    H176217   3.419   1.809   6.626 -1.4525  0.1003  0.3092
18242TIP3    H276218   3.531   1.848   6.720 -0.8438  1.9811 -1.1578
18243TIP3   OH276219   0.090   6.411  13.059  0.1977 -0.5288 -0.4803
18243TIP3    H176220   0.162   6.459  13.102 -1.2269  0.2661  1.0577
18243TIP3    H276221   0.081   6.454  12.974 -0.7749  1.7089  0.7150
18244TIP3   OH276222   3.425   2.632  12.648  0.5707 -0.0049 -0.0822
18244TIP3    H176223   3.461   2.562  12.593  0.0514  0.4744 -1.0409
18244TIP3    H276224   3.462   2.712  12.612  0.8798  0.2500  0.7950
18245TIP3   OH276225   4.855   2.263  17.151  0.0957  0.0836 -0.1009
18245TIP3    H176226   4.922   2.301  17.094  0.2766  0.1799  0.1688
18245TIP3    H276227   4.892   2.179  17.178 -0.4702 -0.4605 -1.0063
18246TIP3   OH276228   5.764   4.936  13.839 -0.2817 -0.0019 -0.2314
18246TIP3    H176229   5.827   4.903  13.774  0.0534 -1.3082  0.7387
18246TIP3    H276230   5.813   5.002  13.888 -0.5087  0.9274 -1.2239
18247TIP3   OH276231   3.045   1.438  13.473 -0.1770 -0.2366 -0.5444
18247TIP3    H176232   2.955   1.414  13.451  0.7216 -3.2171 -1.1065
18247TIP3    H276233   3.098   1.403  13.401  1.5688  0.4502  0.3704
18248TIP3   OH276234   3.045   1.375   1.251 -0.0099  0.5093  0.0235
18248TIP3    H176235   3.043   1.470   1.266 -1.5006  0.2656  1.5657
18248TIP3    H276236   3.136   1.350   1.265  1.2245  2.2401 -4.1362
18249TIP3   OH276237   2.693   4.462  14.310 -0.5218 -0.4260 -0.3111
18249TIP3    H176238   2.635   4.492  14.380  0.3700  0.5243  0.0447
18249TIP3    H276239   2.688   4.367  14.313  0.3084 -0.4329  1.7393
18250TIP3   OH276240   0.192   5.045  13.361  0.0638 -0.0847  0.4424
18250TIP3    H176241   0.114   5.014  13.314  0.5027  0.2637 -0.5339
18250TIP3    H276242   0.164   5.052  13.452 -0.9887 -0.1844  0.1348
18251TIP3   OH276243   2.512   4.664  15.861 -0.3984  0.0837  0.2494
18251TIP3    H176244   2.430   4.615  15.850 -0.4153  0.3180 -0.6368
18251TIP3    H276245   2.579   4.596  15.873 -0.3829 -0.1796 -1.2260
18252TIP3   OH276246   4.881   2.835   5.382  0.3534 -0.0602  0.0565
18252TIP3    H176247   4.899   2.921   5.419 -2.6378  0.3191  0.7966
18252TIP3    H276248   4.882   2.776   5.457 -1.8321  0.0728  0.2321
18253TIP3   OH276249   3.984   4.483   4.847 -0.0723 -0.3720 -0.6822
18253TIP3    H176250   3.932   4.563   4.855 -0.7842 -0.7742 -1.2128
18253TIP3    H276251   3.938   4.418   4.901 -2.0060 -1.6465 -3.7011
18254TIP3   OH276252   3.169   2.379  12.137 -0.0633  0.4901  0.5357
18254TIP3    H176253   3.079   2.354  12.159  0.2926 -2.4437 -1.0327
18254TIP3    H276254   3.166   2.399  12.043  0.5813  2.1225  0.8546
18255TIP3   OH276255   4.491   3.723   0.019 -0.3403  0.4899 -0.4894
18255TIP3    H176256   4.542   3.788   0.067  1.2166  0.6191 -2.2868
18255TIP3    H276257   4.556   3.663  -0.017 -1.7044 -1.5550  0.3891
18256TIP3   OH276258   1.124   6.693  10.687  0.1684  0.0520  0.5259
18256TIP3    H176259   1.033   6.721  10.676  0.4754  0.5334 -0.9169
18256TIP3    H276260   1.122   6.598  10.671 -0.0284  0.1128  0.1866
18257TIP3   OH276261   4.918   6.552   2.040  0.3401  0.2028  0.1126
18257TIP3    H176262   4.867   6.627   2.072 -0.9106 -0.4905 -0.2291
18257TIP3    H276263   4.900   6.549   1.946  0.3798 -0.5406  0.1321
18258TIP3   OH276264   3.331   6.078  12.184 -0.0833 -0.3216 -0.3601
18258TIP3    H176265   3.270   6.151  12.174  1.5899  1.2174  0.3382
18258TIP3    H276266   3.383   6.080  12.104  0.2092 -0.5116 -0.1738
18259TIP3   OH276267   5.988   3.770  17.105 -0.1874  0.0745  0.1959
18259TIP3    H176268   5.897   3.739  17.112 -0.1152 -0.0230  0.7589
18259TIP3    H276269   5.983   3.864  17.124 -0.7633  0.9783 -4.0212
18260TIP3   OH276270   5.949   2.489  12.025  0.8303  0.1663 -0.6931
18260TIP3    H176271   5.860   2.523  12.014  0.6487  0.0923  0.4413
18260TIP3    H276272   5.946   2.441  12.108  1.5489 -1.1032 -1.3785
18261TIP3   OH276273   3.990   1.740   1.161 -0.4575 -0.4241  0.1552
18261TIP3    H176274   4.010   1.676   1.093  1.0941  0.1633  0.0444
18261TIP3    H276275   4.058   1.726   1.227 -0.1586  1.0369  0.1699
18262TIP3   OH276276   0.558   6.010   4.681 -0.1038  0.4756  0.6899
18262TIP3    H176277   0.525   5.938   4.735 -1.3606  1.5498  1.3941
18262TIP3    H276278   0.651   5.993   4.672 -0.5513 -1.7585  0.0317
18263TIP3   OH276279   0.928   4.839   4.748  0.1679 -0.3406 -0.2903
18263TIP3    H176280   0.901   4.767   4.805  1.8094  0.7185  1.8847
18263TIP3    H276281   1.019   4.819   4.725  0.6262  0.9961  0.2988
18264TIP3   OH276282   3.985   2.742  15.473 -0.1288 -0.1200 -0.5088
18264TIP3    H176283   3.919   2.683  15.438  0.6969 -0.3616 -1.6542
18264TIP3    H276284   3.990   2.814  15.410  0.6388 -0.0564 -0.3848
18265TIP3   OH276285   1.031   2.357   4.569 -0.7003  0.0199 -0.5123
18265TIP3    H176286   1.119   2.341   4.605 -1.3672 -1.8432  0.3125
18265TIP3    H276287   1.021   2.452   4.575  0.3080  0.0401  1.7127
18266TIP3   OH276288   4.507   2.824  11.284 -0.2527 -0.2948 -0.0534
18266TIP3    H176289   4.499   2.822  11.189 -0.1329  0.1443 -0.0738
18266TIP3    H276290   4.515   2.732  11.309 -0.9810 -0.4620 -0.4054
18267TIP3   OH276291   1.639   2.403  13.608  0.3272  0.0885 -0.5946
18267TIP3    H176292   1.689   2.355  13.674 -0.4289 -0.8384 -0.6940
18267TIP3    H276293   1.681   2.489  13.605  0.4792  0.0824  0.9556
18268TIP3   OH276294   5.307   4.416  13.113 -0.5141 -0.4753  0.2614
18268TIP3    H176295   5.217   4.390  13.132 -0.8478 -1.5358 -2.5222
18268TIP3    H276296   5.353   4.333  13.098  0.1184  0.1680 -1.5306
18269TIP3   OH276297   2.120   6.027  12.107 -0.4676 -0.0591 -0.4960
18269TIP3    H176298   2.083   5.941  12.087 -0.6021 -0.7238  2.3420
18269TIP3    H276299   2.167   6.014  12.190 -0.5559  2.6078  0.0214
18270TIP3   OH276300   2.427   5.156   4.210 -0.3920 -0.3569  0.0686
18270TIP3    H176301   2.470   5.160   4.295 -0.6460 -0.2117  0.1892
18270TIP3    H276302   2.393   5.066   4.204 -0.4677 -0.3337  0.1630
18271TIP3   OH276303   3.095   5.086  15.294 -0.4750  0.8049  0.0799
18271TIP3    H176304   3.136   5.010  15.335 -1.8357  0.7410  1.3446
18271TIP3    H276305   3.139   5.161  15.334  0.2832  0.7071 -0.5558
18272TIP3   OH276306   5.715   1.425   5.702 -0.1843 -0.1009 -0.2898
18272TIP3    H176307   5.667   1.498   5.662 -1.5971 -0.1470  1.2729
18272TIP3    H276308   5.650   1.379   5.755  1.4836 -0.4009  1.5733
18273TIP3   OH276309   6.005   1.453  13.308  0.2562  0.5799 -0.5760
18273TIP3    H176310   5.941   1.455  13.237  1.5826  0.9195 -1.7607
18273TIP3    H276311   6.020   1.359  13.323 -0.1435  0.5053 -0.6141
18274TIP3   OH276312   5.685   0.546   3.327 -0.0582  0.3408  0.1632
18274TIP3    H176313   5.657   0.486   3.396  1.1111  0.6648  0.9364
18274TIP3    H276314   5.767   0.509   3.295  0.3180  1.1480  0.1749
18275TIP3   OH276315   1.160   2.217  14.327 -0.3540  0.0364 -0.0123
18275TIP3    H176316   1.198   2.300  14.298  2.5633 -0.6022  1.8483
18275TIP3    H276317   1.076   2.212  14.280  0.7090  2.6435 -2.3441
18276TIP3   OH276318   3.139   0.925  16.877  0.2706  0.0795 -0.4099
18276TIP3    H176319   3.099   1.005  16.841  0.2890  1.3867  2.3274
18276TIP3    H276320   3.201   0.958  16.942  2.5744 -2.0939 -1.4434
18277TIP3   OH276321   3.180   2.060   1.808  0.5291 -0.1084  0.1836
18277TIP3    H176322   3.084   2.058   1.815  0.5726 -1.0170  0.5135
18277TIP3    H276323   3.210   1.995   1.871  1.3102 -0.8339 -0.9193
18278TIP3   OH276324   4.315   3.458  11.578 -0.5549 -0.2226  0.5140
18278TIP3    H176325   4.376   3.418  11.640  0.1593  0.0646 -0.0030
18278TIP3    H276326   4.253   3.388  11.557 -1.3399 -0.0827  2.2294
18279TIP3   OH276327   1.721   0.190   1.774 -0.0761  0.7229 -0.1595
18279TIP3    H176328   1.676   0.214   1.693 -0.3933 -0.0176 -0.2110
18279TIP3    H276329   1.727   0.094   1.770  0.9411  0.7753  0.1486
18280TIP3   OH276330   4.301   4.364  11.780 -0.1956  0.3655 -0.0927
18280TIP3    H176331   4.281   4.282  11.826  1.3914  0.0016 -0.0067
18280TIP3    H276332   4.235   4.425  11.810 -0.9957 -0.7110  0.3663
18281TIP3   OH276333   0.063   3.051  13.462 -0.3601 -0.3657  0.3096
18281TIP3    H176334   0.123   2.997  13.411  0.0469 -0.5602  0.9766
18281TIP3    H276335   0.026   3.114  13.400  0.4141 -0.3539 -0.1330
18282TIP3   OH276336   1.766   4.312  11.355 -0.1854  0.2616  0.2808
18282TIP3    H176337   1.761   4.274  11.267 -0.6577  0.0812  0.3830
18282TIP3    H276338   1.786   4.404  11.340  1.9533 -0.2204  0.0700
18283TIP3   OH276339   6.235   2.973  11.734 -0.0861  0.0763 -0.1098
18283TIP3    H176340   6.190   2.917  11.671 -0.1406  0.0575 -0.0542
18283TIP3    H276341   6.323   2.936  11.741 -0.1960 -0.1400  0.1065
18284TIP3   OH276342   0.070   4.296  12.652 -0.1771 -0.3982 -0.0846
18284TIP3    H176343   0.005   4.315  12.720 -0.3828 -2.0915  0.1964
18284TIP3    H276344   0.105   4.382  12.629 -1.4105  0.3819  0.8591
18285TIP3   OH276345   1.183   6.553   3.264  0.2132  0.5212 -0.8539
18285TIP3    H176346   1.115   6.620   3.267 -0.2765  0.0090 -0.4389
18285TIP3    H276347   1.261   6.596   3.300 -0.8327  0.0106  2.1803
18286TIP3   OH276348   1.087   4.990  15.447  0.3928 -0.4917  0.3573
18286TIP3    H176349   1.025   4.923  15.478  0.3522 -0.0092  1.3266
18286TIP3    H276350   1.170   4.944  15.441 -0.1703 -1.3123 -1.5680
18287TIP3   OH276351   0.144   1.561  13.005  0.0053  0.2896 -0.0196
18287TIP3    H176352   0.056   1.564  13.043 -0.0544 -0.4229 -0.0972
18287TIP3    H276353   0.152   1.473  12.969  0.3970  0.6689 -0.8770
18288TIP3   OH276354   5.782   2.817  13.736  0.6504  0.0450  0.3850
18288TIP3    H176355   5.725   2.893  13.727 -0.1325 -0.4623  0.9482
18288TIP3    H276356   5.824   2.827  13.821  1.9989  0.7994 -0.3473
18289TIP3   OH276357   2.576   2.670   3.231  0.2839  0.5053  0.6774
18289TIP3    H176358   2.583   2.759   3.197 -0.9216  0.1746 -0.4704
18289TIP3    H276359   2.645   2.621   3.186  0.0432  0.5420  0.2681
18290TIP3   OH276360   6.377   5.679  14.460 -0.1464  0.3142  0.3489
18290TIP3    H176361   6.404   5.761  14.501  0.2519 -0.6205  1.9717
18290TIP3    H276362   6.414   5.683  14.371  0.6803  1.4639  0.7394
18291TIP3   OH276363   4.562   3.688  13.767 -0.2951  0.2571 -0.3764
18291TIP3    H176364   4.545   3.678  13.674  0.6489  0.9590 -0.6342
18291TIP3    H276365   4.515   3.615  13.808  0.2923 -0.7766 -1.5018
18292TIP3   OH276366   3.274   0.111  14.144  0.4794  0.7278  0.3136
18292TIP3    H176367   3.226   0.186  14.109  1.0761  1.0259  0.1207
18292TIP3    H276368   3.245   0.037  14.091  0.4117  0.9451  0.0466
18293TIP3   OH276369   0.176   1.735  12.033  0.1527 -0.4333 -0.7392
18293TIP3    H176370   0.213   1.823  12.036 -0.5616 -0.1622  1.1062
18293TIP3    H276371   0.236   1.681  12.084  0.9102 -1.1702 -2.3640
18294TIP3   OH276372   0.603   3.927   1.374  0.3664 -0.5092 -0.1344
18294TIP3    H176373   0.599   3.933   1.278  0.3689  1.8641 -0.0289
18294TIP3    H276374   0.518   3.959   1.403  0.1445 -1.8077  0.6433
18295TIP3   OH276375   5.314   3.923  14.850 -0.0947 -0.0259 -0.0435
18295TIP3    H176376   5.309   3.841  14.801 -0.2145  0.4477 -0.8254
18295TIP3    H276377   5.277   3.901  14.935 -0.1474 -0.7789 -0.2502
18296TIP3   OH276378   6.421   1.516  15.177  0.0094  0.2108  0.3161
18296TIP3    H176379   6.378   1.550  15.098 -1.9634 -0.0783  1.2276
18296TIP3    H276380   6.509   1.493  15.148 -0.0697  1.8916 -1.3542
18297TIP3   OH276381   6.526   0.109  17.193 -0.1050  0.3909 -0.9921
18297TIP3    H176382   6.505   0.114  17.100 -3.1679 -2.3562 -0.5511
18297TIP3    H276383   6.576   0.028  17.201  0.2211  0.6640 -0.2696
18298TIP3   OH276384   3.633   3.969  13.928 -0.1582  0.4269 -0.1279
18298TIP3    H176385   3.634   4.064  13.944  1.4325  0.4501 -0.3016
18298TIP3    H276386   3.693   3.956  13.855 -0.3771 -0.7233 -0.1124
18299TIP3   OH276387   4.360   0.860  12.323  0.9402  0.1629 -0.8789
18299TIP3    H176388   4.403   0.831  12.242  3.3251  0.5141  0.2147
18299TIP3    H276389   4.423   0.919  12.363 -0.1592 -0.1140  1.3160
18300TIP3   OH276390   6.473   6.794  14.012 -0.3440 -0.3604  0.8913
18300TIP3    H176391   6.533   6.810  13.939  0.7721 -0.6883  1.7338
18300TIP3    H276392   6.398   6.751  13.972 -0.5630  1.1278 -0.3640
18301TIP3   OH276393   3.313   5.032  12.262  0.2792  0.3232  0.0265
18301TIP3    H176394   3.262   5.005  12.185 -1.9676  2.8303  0.5472
18301TIP3    H276395   3.316   4.954  12.316 -1.6096 -0.3859 -0.8195
18302TIP3   OH276396   1.461   6.615   6.192 -0.0265  0.1200  0.2586
18302TIP3    H176397   1.470   6.683   6.258 -2.2740 -0.3700  1.1330
18302TIP3    H276398   1.531   6.552   6.210 -0.8634 -0.2088  2.4360
18303TIP3   OH276399   1.003   6.160  13.082 -0.0946  0.1252 -0.5022
18303TIP3    H176400   1.098   6.157  13.071  0.0661  1.9322  0.1907
18303TIP3    H276401   0.982   6.084  13.137  1.0849  0.3272  0.2388
18304TIP3   OH276402   4.697   0.240  16.196 -0.2089 -0.0102 -0.1735
18304TIP3    H176403   4.774   0.190  16.167  0.2674  0.7405 -0.2268
18304TIP3    H276404   4.688   0.309  16.130 -0.0406  0.7878  0.6323
18305TIP3   OH276405   0.814   1.425  11.521  0.1909 -0.1383 -0.3954
18305TIP3    H176406   0.796   1.490  11.453  1.0010  0.7762  0.2334
18305TIP3    H276407   0.732   1.376  11.530 -0.6200  1.1674 -0.5022
18306TIP3   OH276408   4.165   2.845   0.958 -0.6691 -0.5356  0.0930
18306TIP3    H176409   4.200   2.903   0.890 -0.4576 -1.6075 -0.7136
18306TIP3    H276410   4.187   2.889   1.040  1.0638 -0.3419 -0.4513
18307TIP3   OH276411   3.103   0.874  13.793  0.3983  0.1398  0.8400
18307TIP3    H176412   3.103   0.910  13.704  0.6319 -0.1112  0.7381
18307TIP3    H276413   3.104   0.779  13.781  1.3824  0.1120  1.1080
18308TIP3   OH276414   2.186   0.120   1.072  0.4223  0.1207 -0.2168
18308TIP3    H176415   2.278   0.100   1.093 -0.0431  0.8983  2.6949
18308TIP3    H276416   2.137   0.083   1.145 -1.3210  2.6139 -0.0938
18309TIP3   OH276417   2.319   1.571   2.786 -0.1489 -0.4148  0.0701
18309TIP3    H176418   2.371   1.584   2.707  0.6237 -0.6448  0.5298
18309TIP3    H276419   2.241   1.624   2.772  0.0679 -0.3096 -0.7687
18310TIP3   OH276420   4.444   1.871   2.785  0.1112  0.3961  0.1880
18310TIP3    H176421   4.436   1.944   2.724  0.4900  0.7821  0.5967
18310TIP3    H276422   4.478   1.799   2.732  1.4481  1.0252  0.1492
18311TIP3   OH276423   0.314   4.528  14.521  0.2174  0.2419 -0.1789
18311TIP3    H176424   0.387   4.468  14.506 -1.1302 -1.1143 -1.6464
18311TIP3    H276425   0.238   4.470  14.530 -0.9437  1.6843 -0.5336
18312TIP3   OH276426   5.303   2.358  15.159  0.7914 -0.0405 -0.8351
18312TIP3    H176427   5.288   2.401  15.243  1.9001 -1.7792  0.3038
18312TIP3    H276428   5.232   2.389  15.103 -0.3047  0.7176  0.9166
18313TIP3   OH276429   6.475   6.284  13.567 -0.4742  0.5227  0.1665
18313TIP3    H176430   6.447   6.361  13.617 -0.0712 -0.2000  1.4993
18313TIP3    H276431   6.401   6.224  13.572 -0.1271  0.1313  0.5334
18314TIP3   OH276432   4.578   5.816  14.081 -0.1233  0.3027  0.0440
18314TIP3    H176433   4.515   5.876  14.042 -1.4013  0.0165  1.6275
18314TIP3    H276434   4.654   5.871  14.103 -1.1951  1.2992  1.2887
18315TIP3   OH276435   5.798   5.531  12.374  0.4531 -0.0236 -0.0296
18315TIP3    H176436   5.848   5.612  12.367 -1.0376  1.0613  1.4260
18315TIP3    H276437   5.759   5.535  12.461  0.6515 -2.4916  0.2015
18316TIP3   OH276438   4.952   1.983  17.156  0.5279 -0.5504  0.3688
18316TIP3    H176439   5.024   1.922  17.141 -1.5179 -2.4571 -2.1719
18316TIP3    H276440   4.907   1.988  17.072  0.3024  4.1344  0.6281
18317TIP3   OH276441   2.830   6.687   1.480  0.3287  0.2700  0.6591
18317TIP3    H176442   2.815   6.637   1.399  0.2587  0.6780  0.4159
18317TIP3    H276443   2.783   6.769   1.466  0.2190  0.2931  1.1665
18318TIP3   OH276444   0.808   1.819  16.019  0.4116 -0.3565 -0.0753
18318TIP3    H176445   0.824   1.903  16.062 -0.6718  1.7691 -3.5684
18318TIP3    H276446   0.892   1.797  15.978  0.1815  0.0229 -0.7613
18319TIP3   OH276447   3.821   5.095  13.589 -0.2096 -0.1469 -0.5810
18319TIP3    H176448   3.791   5.184  13.605  1.4263  0.1932  0.7585
18319TIP3    H276449   3.894   5.104  13.528 -0.0212 -0.5527 -0.4230
18320TIP3   OH276450   5.407   0.852   0.813  0.2362 -0.4595  0.1072
18320TIP3    H176451   5.339   0.815   0.757  0.5571 -0.8071 -0.0545
18320TIP3    H276452   5.407   0.946   0.791  1.4287 -0.8289 -1.6456
18321TIP3   OH276453   1.599   2.753  11.410 -0.1636 -0.6109 -0.3857
18321TIP3    H176454   1.639   2.713  11.333  0.2418 -1.7456  0.3860
18321TIP3    H276455   1.526   2.804  11.376 -0.0471 -1.1693 -1.5038
18322TIP3   OH276456   3.352   6.575   3.997 -0.1955 -0.3020  0.4746
18322TIP3    H176457   3.302   6.656   3.987  0.4045  0.0771  0.4813
18322TIP3    H276458   3.424   6.584   3.934 -1.4952 -1.9286 -1.2735
18323TIP3   OH276459   2.065   1.641  13.245 -0.0338  0.0140 -0.1982
18323TIP3    H176460   2.023   1.725  13.224  0.1310  0.0428 -0.4246
18323TIP3    H276461   2.111   1.617  13.164  2.7015  1.3731  0.8547
18324TIP3   OH276462   3.805   2.366   1.350  0.0771 -0.9079 -0.2769
18324TIP3    H176463   3.738   2.396   1.289  1.4747  1.7161 -0.6013
18324TIP3    H276464   3.787   2.414   1.431  1.7967  0.1932 -0.5145
18325TIP3   OH276465   5.167   1.824  17.105  0.1814  0.2879  0.1420
18325TIP3    H176466   5.220   1.773  17.044  0.6253 -1.0338  1.6012
18325TIP3    H276467   5.230   1.872  17.158 -0.0805 -0.9948  1.6329
18326TIP3   OH276468   2.165   1.745   0.291  0.3167 -0.0605  0.1259
18326TIP3    H176469   2.232   1.811   0.311  1.2452 -0.7517 -0.6188
18326TIP3    H276470   2.164   1.740   0.196 -0.2915 -0.5718  0.1559
18327TIP3   OH276471   1.327   3.044   6.079  0.3783 -0.1101 -0.6344
18327TIP3    H176472   1.241   3.009   6.102  1.1196 -0.2704  2.0045
18327TIP3    H276473   1.318   3.139   6.088  0.3336 -0.0853 -0.9240
18328TIP3   OH276474   6.119   3.148  17.241 -0.0033  0.3136  0.3221
18328TIP3    H176475   6.072   3.104  17.312 -1.0787 -0.1524 -0.6541
18328TIP3    H276476   6.088   3.239  17.245 -1.2460 -0.0549 -0.4965
18329TIP3   OH276477   3.794   1.143  14.732 -0.0661  0.5255 -0.1396
18329TIP3    H176478   3.702   1.170  14.729 -0.6011 -1.1377  0.6544
18329TIP3    H276479   3.827   1.181  14.813 -0.5481 -0.3324  0.4709
18330TIP3   OH276480   1.632   2.262   4.844  0.4025  0.1724  0.5135
18330TIP3    H176481   1.685   2.208   4.903 -1.3758 -1.7981  0.3404
18330TIP3    H276482   1.585   2.200   4.789 -0.3417  1.9382 -0.9153
18331TIP3   OH276483   5.232   1.617   1.552 -0.8072  0.2578 -0.4029
18331TIP3    H176484   5.324   1.640   1.553 -0.9715  0.8989 -0.2151
18331TIP3    H276485   5.229   1.533   1.505 -0.3376  1.0990 -1.9534
18332TIP3   OH276486   6.635   6.113   0.457  0.6880 -0.0244  0.0278
18332TIP3    H176487   6.701   6.082   0.396  0.3307  0.7884 -0.7724
18332TIP3    H276488   6.626   6.041   0.520  0.7974 -1.0139 -1.0656
18333TIP3   OH276489   2.622   4.114  11.909  0.1931 -0.0807  0.1626
18333TIP3    H176490   2.605   4.200  11.947 -0.6370 -0.2190  0.0969
18333TIP3    H276491   2.667   4.133  11.827  1.3315  0.2407  0.8469
18334TIP3   OH276492   0.031   4.420   0.797  0.2968  0.2641 -0.1570
18334TIP3    H176493  -0.032   4.492   0.792 -0.6763 -0.2402  3.3235
18334TIP3    H276494   0.110   4.460   0.833  0.5866  0.0493 -0.5461
18335TIP3   OH276495   1.789   0.863   6.350  0.4596  0.7663 -0.1415
18335TIP3    H176496   1.694   0.871   6.357  0.3390 -0.4560 -0.3764
18335TIP3    H276497   1.809   0.777   6.385  1.6399  1.5915  1.2618
18336TIP3   OH276498   5.841   1.634   2.202  0.3871 -0.0859  0.5227
18336TIP3    H176499   5.914   1.695   2.212 -1.1852  2.2764 -1.6729
18336TIP3    H276500   5.796   1.637   2.286  1.6654 -0.0614  1.2262
18337TIP3   OH276501   0.418   3.532   2.192  0.3485 -0.3741 -0.1094
18337TIP3    H176502   0.388   3.472   2.123 -0.1858 -2.3686  1.7821
18337TIP3    H276503   0.507   3.504   2.211  0.7973  0.7203 -0.5478
18338TIP3   OH276504   1.717   3.521   1.425 -0.3921 -0.4579  0.3856
18338TIP3    H176505   1.667   3.546   1.347  0.3217 -1.9091 -0.5605
18338TIP3    H276506   1.665   3.554   1.498 -1.5175  0.1599 -0.6675
18339TIP3   OH276507   5.858   1.806   2.742 -0.2190 -0.1346 -0.2262
18339TIP3    H176508   5.874   1.797   2.836  1.7879 -0.3130 -0.5535
18339TIP3    H276509   5.765   1.787   2.731 -1.1617  2.7394  2.0997
18340TIP3   OH276510   2.009   2.164  14.157 -0.1284 -0.0167  0.3733
18340TIP3    H176511   2.074   2.183  14.224 -0.0930  0.3254  0.2438
18340TIP3    H276512   2.036   2.080  14.120  0.3152  0.1867  0.2332
18341TIP3   OH276513   4.247   0.712  16.072 -0.4861 -0.1917 -0.2421
18341TIP3    H176514   4.206   0.780  16.018 -0.5549 -0.6041 -0.7048
18341TIP3    H276515   4.238   0.632  16.021  0.2914 -0.4087 -0.0463
18342TIP3   OH276516   4.869   0.002   3.201  0.0601 -0.0067 -0.2780
18342TIP3    H176517   4.838   0.049   3.123 -3.3815 -0.8647  0.4661
18342TIP3    H276518   4.887   0.072   3.265 -0.3272  0.5399 -0.7591
18343TIP3   OH276519   0.985   3.737   6.544 -0.4419 -0.1186 -0.1174
18343TIP3    H176520   0.922   3.708   6.478  1.0943 -0.8643 -1.2662
18343TIP3    H276521   0.972   3.831   6.549 -1.4853 -0.2292 -0.5081
18344TIP3   OH276522   5.295   1.278  10.682 -0.4676  0.2930 -0.1035
18344TIP3    H176523   5.217   1.278  10.625  0.4768  1.0393 -1.4209
18344TIP3    H276524   5.344   1.356  10.655  1.4459 -0.9369 -0.2605
18345TIP3   OH276525   1.761   2.566   1.289 -0.0933  0.6100 -0.1479
18345TIP3    H176526   1.733   2.600   1.204  1.3512  0.7204 -0.5977
18345TIP3    H276527   1.781   2.473   1.272  1.0287  0.8403 -0.1445
18346TIP3   OH276528   5.002   5.442   1.618  0.1693 -0.2599 -0.1575
18346TIP3    H176529   5.003   5.516   1.557 -1.0160  1.6321  2.0549
18346TIP3    H276530   4.990   5.366   1.562  2.0347  1.1049 -2.5666
18347TIP3   OH276531   1.676   2.781  12.554 -0.1171 -0.1790  0.3618
18347TIP3    H176532   1.743   2.850  12.550  0.1626 -0.4317  0.6159
18347TIP3    H276533   1.665   2.753  12.463 -0.5299  0.4861  0.2063
18348TIP3   OH276534   3.618   4.564  14.550  0.1599 -0.1217  0.8083
18348TIP3    H176535   3.676   4.638  14.567  0.5207 -0.5160  1.2815
18348TIP3    H276536   3.630   4.505  14.625 -2.8170  1.0227  2.3076
18349TIP3   OH276537   2.120   4.486   0.019 -0.1260  0.1165  0.4034
18349TIP3    H176538   2.101   4.447   0.104  0.0479 -1.2624 -0.1727
18349TIP3    H276539   2.036   4.522  -0.011 -0.5157 -0.6964  0.5081
18350TIP3   OH276540   1.322   5.477   3.197  0.1333  0.0530 -0.2776
18350TIP3    H176541   1.389   5.456   3.263 -1.0716 -2.1051  0.3083
18350TIP3    H276542   1.342   5.419   3.123  0.8061  1.6756 -1.3907
18351TIP3   OH276543   0.776   0.460   5.882 -0.0120 -0.3448 -0.1628
18351TIP3    H176544   0.856   0.410   5.868 -0.4382 -1.5430  1.4371
18351TIP3    H276545   0.805   0.539   5.928  0.0945 -1.5613  1.9354
18352TIP3   OH276546   1.006   0.116   3.441 -0.0210  0.1914 -0.0322
18352TIP3    H176547   1.060   0.053   3.394  0.5004  0.3635  0.3346
18352TIP3    H276548   0.993   0.188   3.379 -0.4709 -0.1960 -0.3890
18353TIP3   OH276549   3.811   6.802   3.527 -0.7085  0.6297 -0.2889
18353TIP3    H176550   3.738   6.835   3.475 -1.9955 -1.2472  0.2916
18353TIP3    H276551   3.881   6.785   3.463 -0.0990  4.1364 -0.6244
18354TIP3   OH276552   2.576   0.701   1.976  0.1077  0.0039  0.3761
18354TIP3    H176553   2.553   0.616   1.940  0.7196 -1.2046  2.7853
18354TIP3    H276554   2.664   0.718   1.942  0.7246 -1.1735  1.3699
18355TIP3   OH276555   1.808   2.795   2.272  0.2064  0.5424  0.1234
18355TIP3    H176556   1.783   2.848   2.347  1.4793  1.6489 -0.2011
18355TIP3    H276557   1.730   2.792   2.217 -0.0929  1.5312  0.4806
18356TIP3   OH276558   3.837   2.479  17.144 -0.4687  0.3293 -0.3997
18356TIP3    H176559   3.921   2.510  17.175 -0.0914 -0.5945 -0.4831
18356TIP3    H276560   3.800   2.430  17.218 -0.2224 -0.6110 -0.8877
18357TIP3   OH276561   4.447   4.640  13.426 -0.6737 -0.0149 -0.5066
18357TIP3    H176562   4.523   4.587  13.453 -0.8543  1.0036  2.1826
18357TIP3    H276563   4.483   4.705  13.366  0.8379  1.1457  1.5889
18358TIP3   OH276564   4.170   4.223  12.233 -0.0947 -0.2048  0.0680
18358TIP3    H176565   4.173   4.162  12.307 -0.1145  1.0587  1.1356
18358TIP3    H276566   4.079   4.219  12.202 -0.1057 -0.6835  0.1707
18359TIP3   OH276567   4.443   0.597  14.010  0.4733 -0.5385  0.4000
18359TIP3    H176568   4.439   0.620  13.917 -1.2614  2.1027  1.0965
18359TIP3    H276569   4.528   0.630  14.039  1.2073 -1.7492 -0.3067
18360TIP3   OH276570   0.020   3.159  12.200  0.7552  0.3214  0.0348
18360TIP3    H176571  -0.039   3.122  12.134  1.6820 -1.0858 -0.0277
18360TIP3    H276572   0.017   3.254  12.185 -1.7047  0.3002  0.2262
18361TIP3   OH276573   2.397   2.361  15.425  0.1072  0.3626  0.3691
18361TIP3    H176574   2.463   2.311  15.377 -0.1963 -1.4368  1.7952
18361TIP3    H276575   2.442   2.443  15.449  1.4588 -0.3440  0.3075
18362TIP3   OH276576   3.371   1.593  11.105  0.3739 -0.0879 -0.1472
18362TIP3    H176577   3.395   1.526  11.041  1.7306  0.2628 -0.0221
18362TIP3    H276578   3.454   1.632  11.131 -0.3099  0.8771  0.6264
18363TIP3   OH276579   4.893   3.521   4.647  0.8020 -0.3065  0.4468
18363TIP3    H176580   4.946   3.456   4.599  0.0655 -1.8835  1.7146
18363TIP3    H276581   4.803   3.503   4.620  0.4688 -0.6587  1.7800
18364TIP3   OH276582   4.903   2.030   3.382 -0.7109  0.3254  0.4372
18364TIP3    H176583   4.981   2.007   3.331 -1.5953 -0.8679 -0.4149
18364TIP3    H276584   4.925   2.004   3.472  0.7017  2.0742  0.6250
18365TIP3   OH276585   5.002   5.581   2.314  0.0488  0.1848  0.5568
18365TIP3    H176586   4.996   5.601   2.408 -2.0437  0.5159  0.3962
18365TIP3    H276587   5.006   5.667   2.272  0.3107  0.0527  0.3124
18366TIP3   OH276588   3.967   2.650   4.625 -0.1771 -0.2372 -0.0389
18366TIP3    H176589   3.998   2.740   4.620  0.2857 -0.3853  0.2428
18366TIP3    H276590   3.875   2.658   4.651  0.0952  0.1102  0.8075
18367TIP3   OH276591   4.448   1.042  16.039 -0.5066  0.4767 -0.1497
18367TIP3    H176592   4.391   1.068  16.111  2.0390  0.9966  1.7260
18367TIP3    H276593   4.428   1.105  15.969  1.2732  3.8123  2.2189
18368TIP3   OH276594   6.292   6.140   1.177 -0.0348 -0.0171 -0.5829
18368TIP3    H176595   6.386   6.145   1.157  0.5956  0.8036  2.4035
18368TIP3    H276596   6.256   6.222   1.145  0.6803  0.6078  0.1898
18369TIP3   OH276597   3.129   6.003   5.065  0.1296  1.0162  0.0742
18369TIP3    H176598   3.144   6.097   5.065  0.8903  0.9028  0.9003
18369TIP3    H276599   3.084   5.985   5.148 -1.8040  0.9225 -0.9883
18370TIP3   OH276600   0.437   0.288  12.982 -0.0369 -0.2319 -0.7523
18370TIP3    H176601   0.353   0.317  13.020  0.2290  1.4818 -1.4189
18370TIP3    H276602   0.412   0.229  12.911 -0.7255  0.9943 -1.5440
18371TIP3   OH276603   0.278   4.475   3.964  0.2968 -0.3996  0.0401
18371TIP3    H176604   0.267   4.432   3.879 -1.1220 -2.0868  1.0548
18371TIP3    H276605   0.199   4.527   3.976 -0.2218 -1.4125  1.0365
18372TIP3   OH276606   3.199   5.458  13.273  0.4000  0.7549 -0.3344
18372TIP3    H176607   3.257   5.383  13.262  0.4477  0.7294  0.0840
18372TIP3    H276608   3.114   5.419  13.296  0.3823  0.8232 -0.2840
18373TIP3   OH276609   6.333   0.429   5.670  0.1372 -0.2371  0.2654
18373TIP3    H176610   6.279   0.445   5.747 -0.1276 -0.5805  0.1469
18373TIP3    H276611   6.322   0.508   5.616  0.8282  0.2834  0.8744
18374TIP3   OH276612   5.128   1.659   2.986  0.4812  0.3759 -0.1910
18374TIP3    H176613   5.163   1.586   3.037  0.0385  1.4390  1.6883
18374TIP3    H276614   5.035   1.662   3.009 -0.2288 -0.4747 -2.7521
18375TIP3   OH276615   1.050   6.230  12.077  0.5140 -0.0041 -0.0902
18375TIP3    H176616   1.139   6.203  12.096 -0.3324 -2.6888  0.2505
18375TIP3    H276617   1.051   6.252  11.984  1.1128 -1.9303 -0.5688
18376TIP3   OH276618   3.990   5.626   3.228 -0.2032  0.1101 -0.0267
18376TIP3    H176619   4.000   5.588   3.141 -2.0584  0.0205 -0.2222
18376TIP3    H276620   4.077   5.620   3.267  0.7481  0.5460 -2.0235
18377TIP3   OH276621   3.645   5.382   3.385  0.1998  0.4042 -0.3085
18377TIP3    H176622   3.580   5.411   3.322  1.3791 -0.1518 -1.7936
18377TIP3    H276623   3.685   5.463   3.418  0.1215  0.6606 -0.8441
18378TIP3   OH276624   1.204   2.454  11.973 -0.3646 -0.0867 -0.2072
18378TIP3    H176625   1.203   2.549  11.984  0.9732  0.0370 -0.9700
18378TIP3    H276626   1.116   2.425  11.996 -0.6506  1.2905  0.4518
18379TIP3   OH276627   2.789   1.247  16.452  0.0767  0.2569 -0.2777
18379TIP3    H176628   2.827   1.334  16.438 -1.3344  0.7552 -1.0411
18379TIP3    H276629   2.709   1.263  16.502  0.5735 -0.7521  0.8702
18380TIP3   OH276630   2.889   4.546   2.829  0.4617 -0.5930 -0.4913
18380TIP3    H176631   2.926   4.507   2.908  0.3524 -0.0927 -0.1967
18380TIP3    H276632   2.964   4.588   2.786  0.2363  0.4391  0.1160
18381TIP3   OH276633   0.964   1.510  17.210 -0.1293 -0.0561  0.2382
18381TIP3    H176634   0.986   1.417  17.221 -0.3179 -0.0465  0.7431
18381TIP3    H276635   0.872   1.515  17.234 -0.3414  0.1217 -0.6185
18382TIP3   OH276636   6.005   4.525   5.607 -0.0957 -0.4747  0.5972
18382TIP3    H176637   6.017   4.599   5.546 -0.3954 -1.2692 -0.4497
18382TIP3    H276638   5.944   4.558   5.673  0.9737  0.7094  1.0053
18383TIP3   OH276639   2.078   4.746  15.585  0.2633 -0.9522 -0.3587
18383TIP3    H176640   2.043   4.702  15.508 -0.0140 -1.8698  0.2821
18383TIP3    H276641   2.173   4.743  15.574  0.2127 -0.7502 -0.8477
18384TIP3   OH276642   1.485   0.986   1.124 -0.0285 -0.6563 -0.2763
18384TIP3    H176643   1.402   0.944   1.150 -0.0474  0.7105  2.0039
18384TIP3    H276644   1.550   0.949   1.183  0.1298  1.7226  1.0933
18385TIP3   OH276645   3.195   5.997  12.689 -0.2302 -1.0859 -0.0391
18385TIP3    H176646   3.234   5.942  12.622 -1.7136 -1.6449 -0.4807
18385TIP3    H276647   3.247   6.078  12.689  0.4683 -1.5367 -1.0696
18386TIP3   OH276648   0.331   5.663  11.825  0.4158 -0.1499 -0.0629
18386TIP3    H176649   0.371   5.584  11.788 -0.0708 -0.3931 -0.0662
18386TIP3    H276650   0.381   5.679  11.905  1.1388  0.0865 -0.5472
18387TIP3   OH276651   3.832   3.575   0.272  0.3329  0.1351 -0.0576
18387TIP3    H176652   3.783   3.657   0.265 -1.7488 -1.1161 -0.8004
18387TIP3    H276653   3.915   3.599   0.312  0.0972  2.7283 -1.0770
18388TIP3   OH276654   5.240   3.686  12.827  0.2471  0.2000  0.3256
18388TIP3    H176655   5.334   3.703  12.822  0.4062 -0.4001  1.0928
18388TIP3    H276656   5.220   3.693  12.921 -0.6496  1.2280  0.0676
18389TIP3   OH276657   5.559   4.936   5.043  0.2254 -0.3972 -0.4597
18389TIP3    H176658   5.614   4.973   4.973 -1.8751  0.1064 -1.9015
18389TIP3    H276659   5.596   4.973   5.123  1.6187  0.4138 -1.4296
18390TIP3   OH276660   6.716   2.865  16.017 -0.0535  0.6533  0.5003
18390TIP3    H176661   6.656   2.931  16.052 -0.9742  0.5273 -0.8039
18390TIP3    H276662   6.764   2.910  15.948 -0.7388 -0.0374 -0.4518
18391TIP3   OH276663   1.314   4.259   5.845  0.0985 -0.4910  0.3044
18391TIP3    H176664   1.271   4.292   5.924  1.3275 -1.1751  1.2824
18391TIP3    H276665   1.260   4.186   5.817 -1.5239  1.0590 -0.7224
18392TIP3   OH276666   5.161   6.109   3.389 -0.0161  0.3399  0.1757
18392TIP3    H176667   5.214   6.187   3.372 -0.5122  0.9327  1.2577
18392TIP3    H276668   5.221   6.036   3.376  0.8631  0.9703  0.6218
18393TIP3   OH276669   6.732   4.575  12.055 -0.4513  0.1920  0.4637
18393TIP3    H176670   6.787   4.572  11.977  0.4812  2.2569  0.9954
18393TIP3    H276671   6.645   4.548  12.025 -0.2964  1.7405 -1.4692
18394TIP3   OH276672   4.515   6.676  12.834 -0.3400 -0.0487 -0.5694
18394TIP3    H176673   4.541   6.730  12.759  0.8604  0.9613  0.5660
18394TIP3    H276674   4.597   6.641  12.868 -0.9859 -1.4228 -0.4102
18395TIP3   OH276675   0.071   0.107  11.644 -0.3871 -0.3690  0.3318
18395TIP3    H176676   0.120   0.158  11.709 -0.2936  0.3935 -0.3329
18395TIP3    H276677  -0.021   0.122  11.666 -0.3421 -1.7800  1.5652
18396TIP3   OH276678   4.169   3.780   4.757  0.2787  0.1787  0.2701
18396TIP3    H176679   4.131   3.851   4.705 -2.0266  0.1152  1.7860
18396TIP3    H276680   4.247   3.754   4.709 -2.3112 -0.6098 -3.7254
18397TIP3   OH276681   4.884   3.465  15.406 -0.3449  0.1894 -0.1461
18397TIP3    H176682   4.861   3.389  15.352  2.9200 -0.6800 -0.3930
18397TIP3    H276683   4.807   3.478  15.462 -0.8873 -3.4434  0.0839
18398TIP3   OH276684   1.810   4.471   3.543  0.3514  0.4046  0.2067
18398TIP3    H176685   1.783   4.443   3.455  0.4860  0.2287  0.2225
18398TIP3    H276686   1.775   4.404   3.601 -1.2612  1.4218  0.4638
18399TIP3   OH276687   0.620   4.667   1.646  0.5540 -0.2068  0.4529
18399TIP3    H176688   0.600   4.656   1.553  0.1238  0.2497  0.4895
18399TIP3    H276689   0.646   4.580   1.675 -1.3571 -0.8088  0.4047
18400TIP3   OH276690   0.136   2.237   3.490  0.3472 -0.0057 -0.1563
18400TIP3    H176691   0.168   2.327   3.494 -1.4137  0.5649  1.5758
18400TIP3    H276692   0.137   2.207   3.581  0.4659 -1.5821 -0.6628
18401TIP3   OH276693   1.958   0.983  12.422 -0.3918  0.1279 -0.0968
18401TIP3    H176694   2.011   0.915  12.381 -0.0109 -0.5818  1.5468
18401TIP3    H276695   2.020   1.052  12.443 -0.1437 -0.5822  1.5669
18402TIP3   OH276696   6.075   1.511  15.288 -0.4767 -0.0666 -0.2993
18402TIP3    H176697   6.021   1.566  15.231 -1.3957 -1.4763 -0.8286
18402TIP3    H276698   6.165   1.533  15.264 -0.8283  1.3101 -0.3868
18403TIP3   OH276699   6.808   1.055  15.638 -0.0119  0.4189 -0.3079
18403TIP3    H176700   6.819   0.966  15.669  2.3189  0.6575 -0.3720
18403TIP3    H276701   6.761   1.100  15.709 -0.5244 -0.6422  0.0400
18404TIP3   OH276702   3.916   0.031  16.022 -0.3153 -0.2208  0.3035
18404TIP3    H176703   3.998   0.072  16.050 -0.6085  0.7856 -0.2977
18404TIP3    H276704   3.927  -0.062  16.044  1.5649 -0.3642 -1.1206
18405TIP3   OH276705   4.784   5.586  14.415 -0.1131  0.1118  0.6659
18405TIP3    H176706   4.802   5.494  14.431 -1.0195 -0.3273 -0.8143
18405TIP3    H276707   4.761   5.621  14.502 -0.5503 -1.2206  1.0944
18406TIP3   OH276708   2.088   1.034   4.186  0.3022 -0.3414 -0.3273
18406TIP3    H176709   2.068   0.993   4.270  0.1291  1.7673  0.6958
18406TIP3    H276710   2.006   1.078   4.161  1.2875  1.7482  0.0145
18407TIP3   OH276711   5.892   3.982   5.507 -0.1288  1.0145 -0.0612
18407TIP3    H176712   5.888   3.895   5.468 -0.0346  1.0127 -0.0666
18407TIP3    H276713   5.975   3.983   5.554  0.2941  1.4266 -0.8132
18408TIP3   OH276714   6.760   2.083  12.410 -0.3395 -0.1002  0.1684
18408TIP3    H176715   6.758   2.118  12.500 -0.8807  0.1671  0.0524
18408TIP3    H276716   6.693   2.132  12.364 -0.0277 -0.2064 -0.4010
18409TIP3   OH276717   0.224   2.563  14.977  0.4657 -0.4074 -1.1118
18409TIP3    H176718   0.295   2.625  14.990 -0.4900  0.2812  0.9754
18409TIP3    H276719   0.263   2.477  14.995  0.3338  0.1310  2.0323
18410TIP3   OH276720   3.278   0.124  12.657 -0.3258  0.0765 -0.3539
18410TIP3    H176721   3.258   0.042  12.613 -0.8983  0.3251 -0.5561
18410TIP3    H276722   3.301   0.098  12.747 -1.2061 -0.2370 -0.2215
18411TIP3   OH276723   0.475   6.734   5.075 -0.1648  0.6909  0.0019
18411TIP3    H176724   0.533   6.803   5.043  0.8220  0.0244  0.3240
18411TIP3    H276725   0.524   6.653   5.061 -0.8724  0.1491  0.6168
18412TIP3   OH276726   0.779   0.916   0.375  0.5665 -0.5320  0.0818
18412TIP3    H176727   0.691   0.886   0.396  0.2309 -0.6946 -1.4393
18412TIP3    H276728   0.784   1.005   0.410 -0.5863 -0.1217 -0.7565
18413TIP3   OH276729   4.130   6.306  11.451 -0.0710 -0.6225 -0.0067
18413TIP3    H176730   4.137   6.401  11.456  1.4504 -0.8057  1.8849
18413TIP3    H276731   4.168   6.283  11.366  1.1366  0.3180  0.2822
18414TIP3   OH276732   1.347   3.346  13.214  0.4880 -0.7460  0.9390
18414TIP3    H176733   1.295   3.288  13.270 -1.0469  0.0316  0.3342
18414TIP3    H276734   1.298   3.428  13.213  2.8045  0.6984  2.0668
18415TIP3   OH276735   2.025   2.597   3.457  0.3035 -0.7545 -0.2449
18415TIP3    H176736   2.012   2.506   3.431  1.3819 -1.0348  0.1824
18415TIP3    H276737   2.103   2.624   3.409  2.5710 -1.3933  2.9651
18416TIP3   OH276738   1.935   0.060   4.152 -0.3869 -0.0276 -0.4023
18416TIP3    H176739   1.916   0.087   4.242  0.6198 -0.6069 -0.0098
18416TIP3    H276740   1.932   0.142   4.102 -0.0259  0.4377  0.3172
18417TIP3   OH276741   3.260   3.558   0.676  0.2940 -0.2093 -0.4555
18417TIP3    H176742   3.328   3.622   0.655  0.5704 -0.3616 -0.0213
18417TIP3    H276743   3.182   3.591   0.632  0.6252  0.0150 -0.8783
18418TIP3   OH276744   0.218   3.475   3.878  1.3552  0.5925  0.3330
18418TIP3    H176745   0.187   3.565   3.889 -0.2772  0.1498 -0.6036
18418TIP3    H276746   0.223   3.440   3.967 -3.0673 -0.0566  0.4427
18419TIP3   OH276747   4.945   3.875  10.904  0.5076 -0.0756 -0.2035
18419TIP3    H176748   4.855   3.908  10.899  0.4936 -0.3739 -2.5521
18419TIP3    H276749   4.936   3.780  10.913  0.5830 -0.0231  0.4300
18420TIP3   OH276750   5.606   3.184   4.834  0.2370  0.6648 -0.4977
18420TIP3    H176751   5.516   3.179   4.802  0.1737 -0.7216 -0.1307
18420TIP3    H276752   5.623   3.098   4.874  1.6864  0.9347 -0.4818
18421TIP3   OH276753   5.868   2.341   0.410 -0.0254 -0.8534 -0.5557
18421TIP3    H176754   5.922   2.412   0.445 -1.9543  0.8091 -0.8632
18421TIP3    H276755   5.792   2.385   0.372 -1.2975 -3.0981 -0.7055
18422TIP3   OH276756   1.472   6.256   4.693 -0.4217 -0.1734  0.6348
18422TIP3    H176757   1.472   6.311   4.772  2.5590 -1.8265  1.8403
18422TIP3    H276758   1.390   6.206   4.699 -2.3304  2.7723  0.4060
18423TIP3   OH276759   2.172   6.139  14.337 -0.1334 -0.6339  0.0710
18423TIP3    H176760   2.085   6.179  14.330 -0.2972 -1.1879 -1.4085
18423TIP3    H276761   2.198   6.152  14.428 -1.7756 -0.4732  0.5294
18424TIP3   OH276762   4.682   2.653   4.638 -0.0878  0.0232  0.1842
18424TIP3    H176763   4.746   2.666   4.708  0.2540 -2.1676  0.3415
18424TIP3    H276764   4.605   2.617   4.682 -0.5714  0.4568 -0.3042
18425TIP3   OH276765   0.752   1.003   5.003 -0.0164 -0.4027 -0.1324
18425TIP3    H176766   0.657   0.995   5.003 -0.0339 -0.2920 -1.5052
18425TIP3    H276767   0.769   1.096   5.019 -0.1155 -0.5495  0.8566
18426TIP3   OH276768   5.618   4.525  14.921  0.4392 -0.0486 -0.6248
18426TIP3    H176769   5.600   4.441  14.878 -2.5571  0.9811 -1.4785
18426TIP3    H276770   5.553   4.530  14.991  0.5921  1.5641 -0.5928
18427TIP3   OH276771   2.308   5.053   6.422  0.3350 -0.2404  0.5725
18427TIP3    H176772   2.286   5.139   6.458 -0.2732 -0.2190  0.1453
18427TIP3    H276773   2.401   5.043   6.441  0.7332  1.1109 -0.6080
18428TIP3   OH276774   2.722   3.529   1.137 -0.5091 -0.1452  0.3770
18428TIP3    H176775   2.765   3.446   1.159  0.3904  0.3895  0.6645
18428TIP3    H276776   2.712   3.527   1.042 -0.5064 -0.5868  0.3842
18429TIP3   OH276777   5.293   1.558   0.850  0.2950  0.7209  0.4682
18429TIP3    H176778   5.351   1.546   0.775 -0.2156  0.1119  0.1705
18429TIP3    H276779   5.352   1.579   0.922  0.8725  0.3045  0.1228
18430TIP3   OH276780   2.803   0.694   1.640 -0.3419 -0.4265  0.3467
18430TIP3    H176781   2.734   0.636   1.674 -0.2431 -0.4495  0.5067
18430TIP3    H276782   2.882   0.640   1.640 -0.3472 -0.4307  0.0637
18431TIP3   OH276783   3.085   0.075  13.075  0.3611 -0.0263  0.1132
18431TIP3    H176784   3.157   0.012  13.080  0.2550 -0.2262 -0.7312
18431TIP3    H276785   3.128   0.160  13.066  0.5000 -0.0176  0.8324
18432TIP3   OH276786   5.076   2.382  11.929 -0.7073  0.0187  0.0702
18432TIP3    H176787   5.138   2.431  11.983  2.4309 -1.2102 -2.2377
18432TIP3    H276788   5.053   2.442  11.858 -0.7120 -0.1615 -0.0803
18433TIP3   OH276789   3.203   6.048  15.167 -0.0635  0.3721 -0.0501
18433TIP3    H176790   3.166   5.960  15.162  0.3091  0.2198 -0.1698
18433TIP3    H276791   3.298   6.034  15.161 -0.0213  0.8032 -0.3673
18434TIP3   OH276792   3.005   3.457  12.662  0.3452 -0.3606  0.5178
18434TIP3    H176793   2.934   3.405  12.697 -0.9719  1.1716  0.1777
18434TIP3    H276794   2.966   3.506  12.590  2.1878 -0.8843 -0.8830
18435TIP3   OH276795   0.908   2.832   3.087  0.0512 -0.1946 -0.0766
18435TIP3    H176796   0.989   2.801   3.047 -0.0775  0.6092 -0.9622
18435TIP3    H276797   0.896   2.920   3.054 -0.1564  0.4359  1.6073
18436TIP3   OH276798   1.583   5.026   2.800  0.1145 -0.4240  0.0202
18436TIP3    H176799   1.498   4.989   2.774 -1.0437  1.4964  0.9371
18436TIP3    H276800   1.597   4.993   2.888 -0.0910 -0.0863  0.1819
18437TIP3   OH276801   3.104   6.519   1.114 -0.4261 -0.3536 -0.4569
18437TIP3    H176802   3.012   6.540   1.099 -0.2553  1.0743  0.4832
18437TIP3    H276803   3.147   6.603   1.128  1.1430 -0.9596 -1.4736
18438TIP3   OH276804   1.259   6.647   4.772 -0.4758  0.2624 -0.3593
18438TIP3    H176805   1.279   6.707   4.845  1.4223 -0.5513 -0.1717
18438TIP3    H276806   1.268   6.702   4.694  0.6590  0.4065 -0.1505
18439TIP3   OH276807   0.674   1.025   3.916  0.2231 -0.1322  0.5743
18439TIP3    H176808   0.587   1.064   3.916  0.8586  1.3926 -1.8989
18439TIP3    H276809   0.663   0.940   3.874 -0.0516  0.1345  0.1059
18440TIP3   OH276810   2.533   5.899   5.164 -0.1350 -0.7331 -0.0404
18440TIP3    H176811   2.548   5.948   5.083  0.0371  1.4871  1.2972
18440TIP3    H276812   2.621   5.886   5.200 -0.3682  0.3775  0.9661
18441TIP3   OH276813   1.271   3.908   4.388  0.3970  0.8954 -0.2516
18441TIP3    H176814   1.344   3.920   4.449 -0.2918  0.7920  0.6053
18441TIP3    H276815   1.208   3.854   4.436  0.6515 -0.7481 -1.7365
18442TIP3   OH276816   2.497   5.953  11.110  0.3153  1.3459  0.3003
18442TIP3    H176817   2.422   5.957  11.050  0.6850  0.9751 -0.1949
18442TIP3    H276818   2.573   5.956  11.052  0.6857  1.9382  0.8132
18443TIP3   OH276819   5.424   4.542  10.817  0.2299  0.6104 -0.0057
18443TIP3    H176820   5.487   4.479  10.780  0.3267  0.3905  0.5362
18443TIP3    H276821   5.342   4.493  10.823  0.1356  0.7395 -0.2097
18444TIP3   OH276822   5.831   0.579  11.775 -0.7214 -0.2228  0.2090
18444TIP3    H176823   5.823   0.597  11.869  0.3408 -0.9945  0.4517
18444TIP3    H276824   5.753   0.619  11.736 -0.7808  0.7832  1.3239
18445TIP3   OH276825   2.811   3.793   0.406  0.5404 -0.3118  0.0008
18445TIP3    H176826   2.751   3.855   0.366  0.5174 -1.2841 -1.5308
18445TIP3    H276827   2.871   3.847   0.458 -0.1174  0.8751 -0.4561
18446TIP3   OH276828   1.515   3.420   2.803 -0.3842  0.0876  0.0608
18446TIP3    H176829   1.452   3.489   2.782 -0.7278  0.0661  0.9968
18446TIP3    H276830   1.598   3.465   2.817  0.0063  0.0316 -2.0191
18447TIP3   OH276831   3.221   2.350  16.681 -0.0746  0.2031  0.1125
18447TIP3    H176832   3.198   2.297  16.604  1.4807  1.4795 -1.2591
18447TIP3    H276833   3.176   2.433  16.666  1.3795  0.9575 -0.1428
18448TIP3   OH276834   2.383   2.105   4.835  0.2451 -0.0226 -0.3594
18448TIP3    H176835   2.304   2.133   4.880 -0.4575 -0.9100 -1.0178
18448TIP3    H276836   2.421   2.186   4.801  0.2737  0.5376  1.0012
18449TIP3   OH276837   2.667   1.136   4.122 -0.4631 -0.4260  0.2517
18449TIP3    H176838   2.736   1.184   4.077  0.1910 -1.8678 -0.3226
18449TIP3    H276839   2.656   1.182   4.206  1.8723 -0.7486  0.7644
18450TIP3   OH276840   3.852   3.926  11.354  0.3139 -0.4819 -0.3979
18450TIP3    H176841   3.922   3.951  11.294  1.0552 -1.0863  0.1986
18450TIP3    H276842   3.843   4.001  11.413  1.6955 -1.1046  0.6319
18451TIP3   OH276843   1.442   2.256   0.381  0.4806  0.4402 -0.5993
18451TIP3    H176844   1.397   2.337   0.405  1.2624  0.8326 -0.4215
18451TIP3    H276845   1.480   2.225   0.464  0.9404  0.3751 -0.8317
18452TIP3   OH276846   4.494   6.394  13.592 -0.3034  0.0796 -0.1561
18452TIP3    H176847   4.415   6.433  13.553 -0.8164 -0.9223 -0.1410
18452TIP3    H276848   4.473   6.386  13.685 -0.0449  0.1280 -0.0923
18453TIP3   OH276849   3.935   3.139   0.990 -0.6756 -0.6487  0.0480
18453TIP3    H176850   3.895   3.214   1.035 -0.3591 -1.0173  0.9392
18453TIP3    H276851   3.985   3.179   0.919 -1.1424 -0.0629  0.0364
18454TIP3   OH276852   4.813   5.478   2.858  0.6048  0.0080  0.3641
18454TIP3    H176853   4.864   5.450   2.934 -0.1488 -0.8114  0.5784
18454TIP3    H276854   4.733   5.424   2.861  0.0169  0.8177 -0.3192
18455TIP3   OH276855   0.516   2.444  13.294 -0.2060 -0.2606 -0.3153
18455TIP3    H176856   0.475   2.527  13.268  2.0918  0.9878 -0.0346
18455TIP3    H276857   0.583   2.469  13.357  0.3088 -2.3861  0.0222
18456TIP3   OH276858   3.715   1.906   1.118  0.4431  0.8077 -0.1290
18456TIP3    H176859   3.790   1.853   1.144 -1.2251 -0.4176  2.3121
18456TIP3    H276860   3.687   1.870   1.034  0.6347 -0.8056  0.4948
18457TIP3   OH276861   5.447   6.736   3.775  0.0340  0.8721 -0.2523
18457TIP3    H176862   5.514   6.678   3.812 -0.2459  0.4695 -0.3874
18457TIP3    H276863   5.427   6.699   3.689 -0.9925  0.5073  0.1440
18458TIP3   OH276864   5.374   1.061   5.692 -0.5145  0.0092  0.3488
18458TIP3    H176865   5.427   1.127   5.647 -0.4435 -1.0651 -1.1832
18458TIP3    H276866   5.298   1.048   5.635 -1.3070 -0.1028  1.4107
18459TIP3   OH276867   0.122   4.551  17.086 -0.8453  0.1638 -0.1759
18459TIP3    H176868   0.214   4.573  17.071 -0.8197  0.1465 -0.0463
18459TIP3    H276869   0.105   4.476  17.029 -0.6999 -0.0166  0.0180
18460TIP3   OH276870   5.009   4.155   3.738 -0.3549  0.2083  0.2851
18460TIP3    H176871   4.983   4.213   3.666  0.6647  0.6698  0.2735
18460TIP3    H276872   5.013   4.213   3.815  1.7334  0.3993  0.0598
18461TIP3   OH276873   5.356   0.122  13.169  0.1243  0.3317 -0.3908
18461TIP3    H176874   5.431   0.136  13.226  0.1966 -0.5644 -0.2550
18461TIP3    H276875   5.281   0.152  13.221  0.4056  1.3595 -0.5867
18462TIP3   OH276876   0.475   5.985  13.163 -0.8171  0.6067 -0.3151
18462TIP3    H176877   0.495   6.027  13.080  1.4675  0.3587  0.0642
18462TIP3    H276878   0.476   5.891  13.144  3.1184  0.3681  0.5865
18463TIP3   OH276879   5.851   6.803  14.592 -0.2270  0.2708 -0.0288
18463TIP3    H176880   5.824   6.728  14.644 -1.5510  0.9918  0.3580
18463TIP3    H276881   5.769   6.849  14.571 -0.0852 -1.3952 -4.9679
18464TIP3   OH276882   0.964   5.027  15.150  0.1192  0.4150  0.1637
18464TIP3    H176883   1.030   5.079  15.197 -0.4067  2.1096 -0.9347
18464TIP3    H276884   1.015   4.977  15.086  1.2051 -3.9763  4.0921
18465TIP3   OH276885   1.631   3.953  11.583 -0.5971  0.3390 -0.0052
18465TIP3    H176886   1.542   3.952  11.618 -0.3560 -0.2424  0.6082
18465TIP3    H276887   1.666   4.038  11.609 -0.5044  0.0125  0.9762
18466TIP3   OH276888   1.532   0.125  11.866 -0.0405 -0.6830 -0.8404
18466TIP3    H176889   1.621   0.115  11.834 -0.1984 -1.1519 -1.1408
18466TIP3    H276890   1.534   0.205  11.919  0.9752 -1.6893  0.6612
18467TIP3   OH276891   0.868   4.478   3.094  0.0537 -0.3025 -0.4084
18467TIP3    H176892   0.857   4.551   3.154  0.2454 -0.4266 -0.2215
18467TIP3    H276893   0.813   4.499   3.019 -1.3588 -0.8589  0.4635
18468TIP3   OH276894   5.450   0.792  16.739  0.1962  0.0629 -0.3262
18468TIP3    H176895   5.526   0.837  16.702  0.8338 -0.3924  0.4155
18468TIP3    H276896   5.463   0.700  16.715  0.2690 -0.1281  0.4344
18469TIP3   OH276897   1.440   3.941   1.761 -0.4780 -0.6701 -0.3262
18469TIP3    H176898   1.411   3.953   1.670 -1.0420  0.9759  0.0556
18469TIP3    H276899   1.423   3.848   1.779 -1.8873 -0.6405 -1.3854
18470TIP3   OH276900   0.407   3.452  15.274  0.2424 -0.4964  0.0400
18470TIP3    H176901   0.339   3.518  15.259  1.0517  0.6487  1.3455
18470TIP3    H276902   0.385   3.415  15.359  0.7778 -0.7210  0.0769
18471TIP3   OH276903   0.286   0.030  11.282  0.3512  0.3925  0.2243
18471TIP3    H176904   0.319  -0.056  11.307  0.1504  0.1329 -0.3908
18471TIP3    H276905   0.347   0.092  11.320  0.1662 -0.0086  1.1720
18472TIP3   OH276906   3.453   2.681   3.592 -0.4244 -0.1601 -0.1402
18472TIP3    H176907   3.405   2.763   3.595  1.9373  1.3702 -2.1080
18472TIP3    H276908   3.394   2.620   3.547 -1.3811  1.0568 -0.5547
18473TIP3   OH276909   1.160   4.283   4.834  0.1885  0.3395  0.2501
18473TIP3    H176910   1.075   4.249   4.862  0.0674  1.3066  1.1276
18473TIP3    H276911   1.139   4.367   4.793  0.7048  0.5343  0.3821
18474TIP3   OH276912   6.624   5.309  12.815  0.1976  0.1802  0.1631
18474TIP3    H176913   6.709   5.325  12.775  0.1962  0.2161  0.1748
18474TIP3    H276914   6.610   5.384  12.872  0.7666 -0.4895  1.1967
18475TIP3   OH276915   3.803   6.420   2.594 -0.5587 -0.2739 -0.0134
18475TIP3    H176916   3.723   6.390   2.636  0.3441 -1.7768  0.7025
18475TIP3    H276917   3.789   6.406   2.501 -1.2561 -0.2201  0.0838
18476TIP3   OH276918   4.427   3.004   0.065 -0.0133  0.3306  0.8304
18476TIP3    H176919   4.378   3.048   0.135 -2.2374 -1.4424  0.4752
18476TIP3    H276920   4.390   2.915   0.062  1.3841 -0.2281 -1.2962
18477TIP3   OH276921   1.533   4.895  12.633 -0.0413  0.3366 -0.5364
18477TIP3    H176922   1.489   4.951  12.697  0.4456  0.2493 -0.1240
18477TIP3    H276923   1.470   4.886  12.562 -0.8168 -0.0248  0.1858
18478TIP3   OH276924   3.465   0.503  15.811  0.6368  0.1650  0.4751
18478TIP3    H176925   3.402   0.533  15.877  0.3487  0.6749 -0.0318
18478TIP3    H276926   3.468   0.408  15.823  1.2406  0.3401  1.7981
18479TIP3   OH276927   0.652   0.389   4.250  0.0649 -0.0817  0.0030
18479TIP3    H176928   0.714   0.321   4.277  2.3648  2.3446  1.0916
18479TIP3    H276929   0.667   0.399   4.156 -0.2886 -1.0633 -0.1613
18480TIP3   OH276930   3.864   5.645   5.408  0.1704 -0.6031  0.1685
18480TIP3    H176931   3.932   5.594   5.363  1.0725  0.3230  0.4691
18480TIP3    H276932   3.796   5.580   5.430  0.9776 -1.5465 -0.0792
18481TIP3   OH276933   4.302   0.529   1.336  0.5813 -0.3146  0.0434
18481TIP3    H176934   4.300   0.435   1.356 -0.0109 -0.4605 -0.6751
18481TIP3    H276935   4.355   0.535   1.257  1.3587  0.0625  0.5824
18482TIP3   OH276936   4.377   3.719   5.732  0.6504  0.2001 -0.0369
18482TIP3    H176937   4.317   3.782   5.772  0.3616  0.9062 -1.5397
18482TIP3    H276938   4.333   3.634   5.741  1.0608  0.1687  2.0250
18483TIP3   OH276939   1.700   5.094   3.260 -0.0288 -0.1660 -0.2852
18483TIP3    H176940   1.694   5.051   3.175 -0.9579 -1.7797  0.5774
18483TIP3    H276941   1.616   5.139   3.270  0.6633  1.2971 -0.8685
18484TIP3   OH276942   6.536   6.696   4.227 -0.0966  0.2185 -0.5298
18484TIP3    H176943   6.536   6.673   4.320  0.7876  1.0416 -0.3188
18484TIP3    H276944   6.458   6.750   4.216  0.5459  1.2755  0.0357
18485TIP3   OH276945   1.630   2.171  13.089  0.1600 -0.0023 -0.5994
18485TIP3    H176946   1.603   2.257  13.121  1.3704 -0.1184  0.7761
18485TIP3    H276947   1.559   2.144  13.030 -1.2597  0.9863  0.6286
18486TIP3   OH276948   5.919   5.093  15.802  0.4441  0.1290 -0.3744
18486TIP3    H176949   6.007   5.086  15.764  0.1780 -0.2192 -0.9439
18486TIP3    H276950   5.880   5.007  15.786  0.0621  0.2272  0.0321
18487TIP3   OH276951   0.514   5.505  16.129 -0.0524  0.0195  0.4986
18487TIP3    H176952   0.537   5.421  16.088  0.3657  0.1188  0.5266
18487TIP3    H276953   0.441   5.538  16.077  1.6720  1.0411 -1.3074
18488TIP3   OH276954   4.998   4.670   0.416  0.2837 -0.3475 -0.3941
18488TIP3    H176955   5.005   4.574   0.410  1.0562 -0.2393 -1.3238
18488TIP3    H276956   5.038   4.691   0.500  0.0524 -0.8500 -0.1544
18489TIP3   OH276957   0.000   0.837   3.916  0.2784  0.7029  0.0191
18489TIP3    H176958  -0.016   0.863   4.006  0.3739  1.6947 -0.2463
18489TIP3    H276959   0.003   0.919   3.867  0.9148  0.2182 -0.7744
18490TIP3   OH276960   6.074   2.211   0.230 -0.4696  0.7378  0.2946
18490TIP3    H176961   5.987   2.233   0.264 -1.3226  1.6024 -2.3055
18490TIP3    H276962   6.057   2.141   0.167  0.9305 -0.0868  0.8079
18491TIP3   OH276963   6.454   3.409  12.681  0.1566 -0.0480  0.5786
18491TIP3    H176964   6.529   3.361  12.647 -1.1869 -0.1096 -2.4545
18491TIP3    H276965   6.482   3.501  12.682  1.1720 -0.3688  2.0299
18492TIP3   OH276966   3.137   0.975  14.407 -0.0907 -0.7645 -0.3682
18492TIP3    H176967   3.149   1.037  14.335 -0.7217 -0.1633  0.0458
18492TIP3    H276968   3.056   0.929  14.386 -0.5665 -0.2085  0.2359
18493TIP3   OH276969   2.511   0.569   4.122 -0.3687 -0.5738  0.1913
18493TIP3    H176970   2.579   0.564   4.055 -0.6528 -1.1504 -0.0571
18493TIP3    H276971   2.506   0.662   4.144  1.9491 -0.7795  1.7286
18494TIP3   OH276972   6.455   0.454  15.588  0.3925  0.2959 -0.2602
18494TIP3    H176973   6.544   0.422  15.575  0.8513  1.5391 -0.1854
18494TIP3    H276974   6.431   0.423  15.676 -0.7164 -3.3992 -1.7654
18495TIP3   OH276975   0.613   4.023  12.542 -0.2980 -0.0617 -0.1199
18495TIP3    H176976   0.585   4.102  12.588 -0.4840  1.4125 -2.6858
18495TIP3    H276977   0.697   3.999  12.584  0.2658  2.0604  0.0026
18496TIP3   OH276978   0.577   3.544  10.422  0.2747 -0.0457  0.0948
18496TIP3    H176979   0.626   3.520  10.343  0.2489 -0.2716  0.1460
18496TIP3    H276980   0.550   3.460  10.460  2.0436 -0.0206  1.4663
18497TIP3   OH276981   3.749   1.067   1.066  0.0483 -0.0631 -0.3809
18497TIP3    H176982   3.822   1.126   1.086  0.4981 -1.1422  1.2900
18497TIP3    H276983   3.721   1.035   1.152 -1.3818 -0.8697 -1.1382
18498TIP3   OH276984   0.368   5.338   2.777 -0.1187  0.6910  0.0222
18498TIP3    H176985   0.298   5.277   2.751  0.7615 -0.2382 -0.1898
18498TIP3    H276986   0.342   5.421   2.737 -0.5769  0.1031 -0.9421
18499TIP3   OH276987   4.093   5.622   0.858  0.1144  0.1534  0.8124
18499TIP3    H176988   4.093   5.556   0.927  2.2195  1.8157  2.4941
18499TIP3    H276989   4.179   5.665   0.865  0.7204 -0.1173 -3.3527
18500TIP3   OH276990   5.334   0.706  16.417  0.6051  0.6484 -0.6766
18500TIP3    H176991   5.345   0.703  16.322  0.5028  2.5671 -0.7777
18500TIP3    H276992   5.334   0.800  16.438  1.6203  0.2346  1.3352
18501TIP3   OH276993   1.789   2.354   6.244  0.4916  0.2869 -0.0211
18501TIP3    H176994   1.733   2.372   6.320  2.0772  0.6254  1.0782
18501TIP3    H276995   1.733   2.373   6.168 -0.9124  0.5375  1.0563
18502TIP3   OH276996   5.854   4.298  16.654  0.4334  0.1905  0.4389
18502TIP3    H176997   5.916   4.238  16.612  0.0902  0.3996 -0.3708
18502TIP3    H276998   5.808   4.340  16.581 -0.6364  0.0686  1.0275
18503TIP3   OH276999   2.309   2.620  12.644  0.2993  1.0028  0.0060
18503TIP3    H177000   2.228   2.635  12.694 -0.2175 -0.4362 -0.3803
18503TIP3    H277001   2.379   2.628  12.709 -0.3971 -1.3473  1.0981
18504TIP3   OH277002   6.414   1.559   6.292  0.5313  0.3329  0.0298
18504TIP3    H177003   6.454   1.502   6.226 -0.7591  2.2971 -2.5410
18504TIP3    H277004   6.341   1.507   6.327  1.5885 -0.9577  0.3613
18505TIP3   OH277005   6.529   0.245  14.101 -0.2855  0.0934 -0.0993
18505TIP3    H177006   6.555   0.153  14.095 -0.6773 -0.1196  1.2883
18505TIP3    H277007   6.589   0.291  14.043  1.2445 -0.7967  0.7471
18506TIP3   OH277008   5.104   0.189   3.091 -0.3900 -0.4229 -0.3226
18506TIP3    H177009   5.044   0.125   3.055 -0.9813 -0.3216  0.4487
18506TIP3    H277010   5.061   0.218   3.172  1.7982 -2.0879  1.4961
18507TIP3   OH277011   3.159   2.470  14.189 -0.6920 -0.1544 -0.1460
18507TIP3    H177012   3.243   2.440  14.152  0.2175  1.3112  0.6738
18507TIP3    H277013   3.104   2.487  14.112 -0.5064 -1.8287 -0.6742
18508TIP3   OH277014   1.541   1.567  16.681 -0.2257  0.2975  0.8650
18508TIP3    H177015   1.514   1.515  16.605  0.0296 -0.6367  1.4046
18508TIP3    H277016   1.481   1.541  16.750  0.7108 -0.2225  1.4889
18509TIP3   OH277017   2.623   2.127  15.735 -0.2276  0.2034  0.3262
18509TIP3    H177018   2.657   2.187  15.669  1.3753  1.8676  2.5666
18509TIP3    H277019   2.651   2.040  15.707  0.4501  0.8876 -1.1427
18510TIP3   OH277020   0.892   5.189  12.368  0.0508  0.3139  0.5824
18510TIP3    H177021   0.844   5.237  12.435  0.0700 -0.3491  1.0799
18510TIP3    H277022   0.894   5.248  12.293  0.7803  1.4153  1.4480
18511TIP3   OH277023   0.524   0.383  16.864  0.2932  0.3804 -0.4230
18511TIP3    H177024   0.444   0.351  16.906  0.0852  0.0484 -1.0778
18511TIP3    H277025   0.511   0.365  16.771  1.7864 -1.0746 -0.3665
18512TIP3   OH277026   1.786   3.694  11.637  0.5228  0.0694  0.4446
18512TIP3    H177027   1.709   3.637  11.633  1.0893 -0.5993 -1.3282
18512TIP3    H277028   1.750   3.781  11.655 -0.5533 -0.4448  0.7929
18513TIP3   OH277029   3.956   0.827  13.604  0.2286 -0.0494 -0.2552
18513TIP3    H177030   3.900   0.829  13.527  0.5252 -0.5386 -0.4840
18513TIP3    H277031   3.907   0.874  13.671  0.4422  1.3711 -1.0697
18514TIP3   OH277032   3.418   1.173   4.875  0.0644 -0.0418  0.2030
18514TIP3    H177033   3.511   1.162   4.897  0.0370 -1.6194 -0.3975
18514TIP3    H277034   3.418   1.228   4.797  0.4350  0.7897  0.7774
18515TIP3   OH277035   6.593   0.868   2.864  0.4763  0.0132  0.1635
18515TIP3    H177036   6.634   0.884   2.779 -0.6699 -0.3739 -0.4846
18515TIP3    H277037   6.499   0.873   2.846  0.2203  1.4829  1.7209
18516TIP3   OH277038   2.895   1.919   5.176 -0.0807 -0.0395  0.0318
18516TIP3    H177039   2.859   1.954   5.258  0.4496  0.0481  0.2324
18516TIP3    H277040   2.990   1.930   5.185 -0.0404  0.2719 -0.7309
18517TIP3   OH277041   6.502   0.240   5.681  0.1145  0.0182  0.0094
18517TIP3    H177042   6.446   0.315   5.659  1.3815  0.5635 -1.4973
18517TIP3    H277043   6.487   0.225   5.774 -1.1309  1.3387  0.0433
18518TIP3   OH277044   5.477   0.754   6.492  0.5856 -0.0097  0.1512
18518TIP3    H177045   5.472   0.719   6.403  0.7885 -1.2037  0.5995
18518TIP3    H277046   5.455   0.847   6.482 -0.5302 -0.3738 -0.9917
18519TIP3   OH277047   6.267   5.315   3.243 -0.4398 -0.1666 -0.5045
18519TIP3    H177048   6.205   5.258   3.198  1.6914 -2.2698 -0.8595
18519TIP3    H277049   6.305   5.261   3.312  0.5544  1.2761  0.1149
18520TIP3   OH277050   4.489   5.913   3.697  0.0071 -0.1603  0.0349
18520TIP3    H177051   4.482   6.004   3.726 -0.9504 -0.1799 -0.1349
18520TIP3    H277052   4.501   5.918   3.603 -2.7732 -0.2720 -0.3754
18521TIP3   OH277053   2.752   5.414   1.877  0.1456  0.1296  0.0961
18521TIP3    H177054   2.663   5.387   1.902  0.1958  0.2094  0.3685
18521TIP3    H277055   2.739   5.493   1.824 -0.0062 -0.4771 -0.7784
18522TIP3   OH277056   2.449   4.398  15.961 -0.7489 -0.3741  0.4278
18522TIP3    H177057   2.518   4.363  16.016 -0.5684 -0.9760 -0.1776
18522TIP3    H277058   2.403   4.321  15.927  0.0818 -0.0641 -1.4476
18523TIP3   OH277059   5.874   0.064   6.211 -0.2583  0.0845  0.4296
18523TIP3    H177060   5.827   0.143   6.238 -0.7511 -0.3846  0.9575
18523TIP3    H277061   5.864   0.062   6.115  1.0572  1.4763  0.2520
18524TIP3   OH277062   3.530   5.703   1.711 -0.1450  0.6826 -0.8076
18524TIP3    H177063   3.480   5.785   1.710 -2.8337 -0.9020 -1.6245
18524TIP3    H277064   3.620   5.730   1.726 -1.3118  3.6335  1.4081
18525TIP3   OH277065   6.460   1.253  13.925 -0.1668  0.1288  0.2695
18525TIP3    H177066   6.469   1.343  13.895 -1.4474  0.0822 -0.2602
18525TIP3    H277067   6.368   1.232  13.914 -0.5733 -0.1459  3.5902
18526TIP3   OH277068   1.396   2.619  12.183 -0.1057 -0.5298 -0.0057
18526TIP3    H177069   1.313   2.660  12.159 -0.9247 -1.7888  0.6167
18526TIP3    H277070   1.450   2.626  12.104 -1.0196 -0.2576 -0.6128
18527TIP3   OH277071   0.748   1.986   1.434  0.4514  0.3679  0.2804
18527TIP3    H177072   0.832   2.012   1.397 -0.2351  1.2833 -0.6664
18527TIP3    H277073   0.685   1.999   1.362 -0.8472  1.7777  1.6479
18528TIP3   OH277074   2.022   0.306   3.107  0.4231  0.3536  0.2654
18528TIP3    H177075   2.112   0.280   3.083  0.5139  1.0615 -0.1907
18528TIP3    H277076   2.033   0.363   3.183  0.3514  0.3445  0.2823
18529TIP3   OH277077   0.289   3.466   5.614 -0.3943  0.1329  1.0074
18529TIP3    H177078   0.283   3.375   5.583 -1.9308  1.0491 -1.5393
18529TIP3    H277079   0.382   3.486   5.612 -0.3229 -0.3224 -1.7412
18530TIP3   OH277080   4.946   5.254  15.964 -0.3421  0.1006  0.9737
18530TIP3    H177081   4.930   5.308  16.041  1.1810 -0.8834  1.9937
18530TIP3    H277082   5.017   5.196  15.989 -0.7975 -1.2227 -0.6906
18531TIP3   OH277083   0.928   2.765   3.870  0.4530  0.1666  0.0434
18531TIP3    H177084   0.993   2.696   3.857  1.5778  1.0745  0.7620
18531TIP3    H277085   0.935   2.787   3.963 -0.1340  1.0259 -0.1102
18532TIP3   OH277086   6.195   4.658   4.738 -0.6844 -0.4160 -0.1252
18532TIP3    H177087   6.130   4.684   4.673 -1.4220  1.5544  1.3465
18532TIP3    H277088   6.271   4.632   4.687 -0.1730  3.9939 -1.7956
18533TIP3   OH277089   3.405   0.881   5.142 -0.0249  0.2994  0.1520
18533TIP3    H177090   3.466   0.935   5.193  0.5051 -0.6400  0.5184
18533TIP3    H277091   3.460   0.838   5.076 -0.2765 -0.6143  0.5357
18534TIP3   OH277092   5.420   1.474   0.622  0.1869 -0.3826 -0.1076
18534TIP3    H177093   5.343   1.487   0.566  0.1677  1.3473  0.3087
18534TIP3    H277094   5.489   1.446   0.561  0.1421  1.3950 -0.9976
18535TIP3   OH277095   5.867   0.633  14.856 -0.1664  0.1087 -0.4591
18535TIP3    H177096   5.838   0.651  14.767 -1.8452  0.5856  0.1583
18535TIP3    H277097   5.809   0.563  14.887 -0.1600  0.5216  0.5328
18536TIP3   OH277098   3.124   0.352  12.983  0.2878  0.8334  0.0624
18536TIP3    H177099   3.082   0.305  12.911  0.9611  0.0617  0.1664
18536TIP3    H277100   3.200   0.394  12.943  1.3753 -0.6347  0.5708
18537TIP3   OH277101   2.008   5.984   4.290  0.3861 -0.1578  0.4016
18537TIP3    H177102   1.975   6.072   4.273  0.8957 -0.7614 -4.4070
18537TIP3    H277103   2.100   5.987   4.264  0.1766 -2.3228 -0.7208
18538TIP3   OH277104   5.619   3.633  16.934 -0.3025 -0.2103 -0.3421
18538TIP3    H177105   5.599   3.723  16.909 -4.5527 -1.5538 -2.1877
18538TIP3    H277106   5.596   3.628  17.027 -2.0292  0.1382 -0.7360
18539TIP3   OH277107   0.522   1.475  14.985  0.1823 -0.3170  0.0563
18539TIP3    H177108   0.540   1.381  14.996 -1.6337 -0.5231  1.6192
18539TIP3    H277109   0.449   1.478  14.923  1.4667  0.1917 -1.4700
18540TIP3   OH277110   1.191   3.618   4.668  0.3030  0.1753  0.6238
18540TIP3    H177111   1.126   3.556   4.701  0.2896 -1.2957 -2.0320
18540TIP3    H277112   1.144   3.669   4.602  0.8877  1.6215  1.3002
18541TIP3   OH277113   0.266   0.911  15.126 -0.3752  0.0105  0.5588
18541TIP3    H177114   0.216   0.959  15.060  0.4493 -0.8150 -0.6682
18541TIP3    H277115   0.314   0.979  15.173  0.9263  0.3972 -1.2928
18542TIP3   OH277116   5.429   5.207  14.756  0.4038  0.3109  0.1846
18542TIP3    H177117   5.377   5.213  14.836  2.0859  1.1592  1.2451
18542TIP3    H277118   5.429   5.295  14.720 -2.3096 -0.5573 -2.0553
18543TIP3   OH277119   0.810   1.656  11.756 -0.4337  0.3469  0.0142
18543TIP3    H177120   0.773   1.646  11.844 -1.3469  0.8010 -0.3016
18543TIP3    H277121   0.871   1.583  11.746 -1.5112 -0.6307  0.4339
18544TIP3   OH277122   0.220   5.248  14.564 -0.3923 -0.4763  0.4732
18544TIP3    H177123   0.259   5.177  14.614  0.1145 -0.0886  0.6332
18544TIP3    H277124   0.293   5.289  14.518 -0.7814 -0.5019 -0.1773
18545TIP3   OH277125   5.041   3.575   1.981 -0.1240 -0.0692  0.2018
18545TIP3    H177126   5.131   3.603   1.965 -0.0336  0.2089  1.1660
18545TIP3    H277127   4.992   3.656   1.991 -0.3776 -0.2303  0.2718
18546TIP3   OH277128   0.619   3.539   3.075  0.6542  0.3686  0.4259
18546TIP3    H177129   0.606   3.531   3.169 -0.7715 -3.4434  0.0094
18546TIP3    H277130   0.712   3.520   3.062  0.6663  0.0118  0.9989
18547TIP3   OH277131   6.432   0.380   0.095  0.3165 -0.0568 -0.5763
18547TIP3    H177132   6.402   0.435   0.167 -2.8617 -2.3034 -0.0966
18547TIP3    H277133   6.402   0.292   0.117  2.4156 -1.4392 -2.9245
18548TIP3   OH277134   2.199   5.138  12.549 -0.1277  0.1130 -0.2431
18548TIP3    H177135   2.162   5.184  12.624  2.1526  0.8195  0.4714
18548TIP3    H277136   2.128   5.081  12.519 -1.2836  0.2718  2.0629
18549TIP3   OH277137   5.700   3.920  10.896 -0.4216  0.0519  0.4127
18549TIP3    H177138   5.683   3.872  10.815 -3.2024 -0.0047  0.9864
18549TIP3    H277139   5.793   3.944  10.891 -0.2903 -0.9036 -2.2546
18550TIP3   OH277140   6.232   5.854   5.628 -0.0616  0.0016  0.3719
18550TIP3    H177141   6.179   5.818   5.557  0.6899 -2.4401  1.0044
18550TIP3    H277142   6.313   5.883   5.585  0.0945 -0.8010  0.1231
18551TIP3   OH277143   5.978   0.078   5.317  0.3011  0.3217  0.4989
18551TIP3    H177144   5.991   0.026   5.396 -0.4212  1.7069  1.5591
18551TIP3    H277145   6.065   0.092   5.281  0.6892  0.1742  1.3878
18552TIP3   OH277146   2.997   5.344  11.908  0.6674  0.3840  0.3926
18552TIP3    H177147   3.007   5.377  11.997 -0.0379 -0.1680  0.6820
18552TIP3    H277148   2.972   5.252  11.919  1.8321 -0.0349 -0.3873
18553TIP3   OH277149   2.991   1.327   0.760 -0.3156 -0.5928  0.1259
18553TIP3    H177150   3.058   1.387   0.729 -1.5786  0.3591 -0.8383
18553TIP3    H277151   2.946   1.375   0.830 -0.1775 -1.1024  0.5634
18554TIP3   OH277152   6.162   1.319  12.464 -0.4705  0.3433  0.6373
18554TIP3    H177153   6.137   1.396  12.413 -0.1285  0.8513  1.2248
18554TIP3    H277154   6.128   1.337  12.552 -1.3762 -0.6879  0.5010
18555TIP3   OH277155   2.776   0.029  14.730 -0.1214  0.1258 -0.1564
18555TIP3    H177156   2.700   0.000  14.679 -0.7704 -0.2330  0.9901
18555TIP3    H277157   2.845  -0.034  14.708 -0.5190 -0.2720 -0.2730
18556TIP3   OH277158   3.650   6.575  16.312  0.0250  0.2751 -0.5469
18556TIP3    H177159   3.669   6.668  16.305  1.1607  0.1327  0.5792
18556TIP3    H277160   3.621   6.563  16.403 -1.4555 -0.2420 -1.0629
18557TIP3   OH277161   4.650   5.836  13.758  0.5321 -1.0521  0.0440
18557TIP3    H177162   4.712   5.797  13.698  0.4641 -2.8517  1.0924
18557TIP3    H277163   4.701   5.856  13.837  0.3822  0.2205 -0.1576
18558TIP3   OH277164   2.528   2.614  15.418  0.1988 -0.1057  0.0976
18558TIP3    H177165   2.480   2.649  15.343  1.2177 -0.0030 -0.5190
18558TIP3    H277166   2.609   2.579  15.380  0.4574 -0.5817  1.0766
18559TIP3   OH277167   6.580   6.530   5.071  0.2431  0.3564  0.0230
18559TIP3    H177168   6.513   6.556   5.008 -0.7117  1.5759  1.5104
18559TIP3    H277169   6.582   6.601   5.135  0.7453 -1.1496  1.7244
18560TIP3   OH277170   1.737   0.312  15.201  0.5614  0.2385 -0.0775
18560TIP3    H177171   1.747   0.385  15.140  0.4665  1.3484  1.2106
18560TIP3    H277172   1.646   0.318  15.230  0.7066 -0.0820  0.4359
18561TIP3   OH277173   6.627   3.551   1.525 -0.4059 -0.0905  0.6219
18561TIP3    H177174   6.536   3.580   1.528 -0.7315 -0.9715 -0.3199
18561TIP3    H277175   6.626   3.465   1.567 -0.3341 -0.8659 -0.9282
18562TIP3   OH277176   2.256   1.376  11.294  0.3363  0.0004 -0.0272
18562TIP3    H177177   2.351   1.387  11.308  0.4158 -0.6430 -0.0753
18562TIP3    H277178   2.248   1.351  11.202 -0.0151  1.8026 -0.4996
18563TIP3   OH277179   6.148   2.430   2.238 -0.2910 -0.1097 -0.5568
18563TIP3    H177180   6.108   2.449   2.323  0.2137 -0.6842 -0.1835
18563TIP3    H277181   6.198   2.350   2.253 -0.5456 -0.4523 -1.5098
18564TIP3   OH277182   6.271   1.481   4.142 -0.4111 -0.2801  0.5480
18564TIP3    H177183   6.283   1.570   4.175 -0.7396 -0.2765  0.6655
18564TIP3    H277184   6.300   1.425   4.214  0.4558 -0.2651  0.2112
18565TIP3   OH277185   6.213   4.763   4.139 -0.1445 -0.3733 -0.3049
18565TIP3    H177186   6.269   4.697   4.178  0.2949 -0.1992 -0.6386
18565TIP3    H277187   6.254   4.783   4.055 -0.9342 -0.5473 -0.7319
18566TIP3   OH277188   5.464   0.308   1.599 -0.0327  0.4336 -0.8956
18566TIP3    H177189   5.417   0.354   1.669 -0.8809  1.0943 -1.8852
18566TIP3    H277190   5.514   0.377   1.554  2.0067 -0.2800  0.2195
18567TIP3   OH277191   1.026   6.136   3.406  0.1602 -0.3201 -0.0775
18567TIP3    H177192   0.959   6.127   3.338  0.4881  0.8200 -0.5568
18567TIP3    H277193   1.092   6.070   3.383 -0.0558 -0.3980 -0.4833
18568TIP3   OH277194   0.544   4.738   1.165 -0.2452  0.2590  0.1084
18568TIP3    H177195   0.468   4.680   1.163 -0.1569  0.1812 -0.9774
18568TIP3    H277196   0.541   4.786   1.082  1.0337  0.0592 -0.0625
18569TIP3   OH277197   4.813   3.802  14.527 -0.6624 -0.5505 -0.5636
18569TIP3    H177198   4.735   3.782  14.580  0.5429 -1.3078  0.9459
18569TIP3    H277199   4.807   3.743  14.452 -1.2306 -1.0179 -0.1510
18570TIP3   OH277200   6.782   1.200  13.212 -0.1930  0.3512 -0.4877
18570TIP3    H177201   6.740   1.117  13.191 -0.4060  1.0162 -2.8190
18570TIP3    H277202   6.873   1.188  13.184 -0.0089  0.5889  0.0126
18571TIP3   OH277203   5.294   4.955  10.806  0.0641  0.2367  0.3959
18571TIP3    H177204   5.260   5.023  10.865 -0.4696  0.4625 -0.1653
18571TIP3    H277205   5.217   4.902  10.785  0.3728 -0.2088  0.3817
18572TIP3   OH277206   2.509   6.604   0.540 -0.3946 -0.4582  0.1662
18572TIP3    H177207   2.530   6.517   0.506 -0.6477  0.1248 -1.5347
18572TIP3    H277208   2.415   6.603   0.553 -0.4580 -0.3056 -0.2662
18573TIP3   OH277209   6.299   6.127   0.641  0.3275 -0.1085 -0.2667
18573TIP3    H177210   6.309   6.190   0.569  1.0456 -1.0251 -0.9895
18573TIP3    H277211   6.366   6.061   0.624  1.5586  0.4946  2.1476
18574TIP3   OH277212   1.592   2.690   0.346 -0.0758  0.1182  0.2491
18574TIP3    H177213   1.561   2.727   0.263  0.1920  0.4088  0.2765
18574TIP3    H277214   1.519   2.637   0.378 -0.2054  0.0651 -0.1389
18575TIP3   OH277215   0.919   5.597   0.944 -0.3668 -0.4818  1.1747
18575TIP3    H177216   0.838   5.562   0.908  1.0948 -2.0937 -0.6564
18575TIP3    H277217   0.948   5.531   1.006  0.7459 -1.0626  0.0665
18576TIP3   OH277218   4.952   0.659   2.151  0.4710  0.1286  0.1936
18576TIP3    H177219   4.961   0.630   2.242  0.5845  0.1255  0.1817
18576TIP3    H277220   5.039   0.692   2.128  0.5234 -0.1554 -0.0135
18577TIP3   OH277221   4.295   1.059   4.424 -0.2378  0.2727 -0.3969
18577TIP3    H177222   4.347   1.063   4.504  0.4909 -0.4624 -0.8224
18577TIP3    H277223   4.323   0.978   4.382 -1.3290  0.1592 -0.9088
18578TIP3   OH277224   0.985   5.822   0.091  0.2609  0.3882 -0.2342
18578TIP3    H177225   0.978   5.878   0.169  0.5280 -0.3581  0.3413
18578TIP3    H277226   1.079   5.819   0.073  0.6026 -2.3325  1.6056
18579TIP3   OH277227   0.853   2.279   1.559 -0.2648  0.5156  0.4471
18579TIP3    H177228   0.935   2.295   1.605  0.5739  0.8220 -1.1095
18579TIP3    H277229   0.846   2.183   1.556  0.7580  0.4629 -0.6370
18580TIP3   OH277230   0.002   2.762   4.373  0.4928  0.2165  0.1455
18580TIP3    H177231  -0.070   2.813   4.410  0.3986 -0.8652  1.4788
18580TIP3    H277232   0.056   2.738   4.448  0.6506 -1.4597 -0.4765
18581TIP3   OH277233   5.022   1.904  11.246 -0.4708  0.2726 -0.1237
18581TIP3    H177234   5.089   1.965  11.277  1.9281 -1.0239 -2.5695
18581TIP3    H277235   5.006   1.847  11.321  0.9873  0.7781  0.6023
18582TIP3   OH277236   1.648   2.764   2.895 -0.4095 -0.1073 -0.0576
18582TIP3    H177237   1.741   2.746   2.909 -0.2907 -1.6275 -2.6837
18582TIP3    H277238   1.618   2.796   2.980  1.7979 -2.5417  1.7162
18583TIP3   OH277239   6.040   2.101  13.250  0.3034  0.1216 -0.2348
18583TIP3    H177240   5.995   2.101  13.335  0.2731  0.0435 -0.2508
18583TIP3    H277241   5.970   2.106  13.185  0.3665  0.9720 -0.2354
18584TIP3   OH277242   6.313   5.952   3.096 -0.4417 -0.7550 -0.1726
18584TIP3    H177243   6.267   5.887   3.043 -2.4680 -0.6199  1.3615
18584TIP3    H277244   6.263   5.956   3.177  1.1574  0.8668  0.7612
18585TIP3   OH277245   1.365   3.905   2.408 -0.0187  0.0259  1.0727
18585TIP3    H177246   1.357   3.894   2.313 -2.1543 -0.1670  1.2479
18585TIP3    H277247   1.450   3.865   2.429 -0.1422 -1.1937 -0.5750
18586TIP3   OH277248   6.811   2.693  15.106 -0.0224 -0.1815  0.3059
18586TIP3    H177249   6.721   2.695  15.073  0.3213 -0.0697 -0.6338
18586TIP3    H277250   6.863   2.665  15.031  1.0629  2.3604  0.0834
18587TIP3   OH277251   4.225   4.670  15.995 -0.3486 -0.5974  0.0108
18587TIP3    H177252   4.320   4.661  15.984  0.1918  2.5619  1.3874
18587TIP3    H277253   4.206   4.624  16.077  0.1847 -0.3525  0.2758
18588TIP3   OH277254   0.425   0.899   5.647 -0.2898 -0.0061  0.2004
18588TIP3    H177255   0.497   0.960   5.628 -0.9266  0.3732 -1.0199
18588TIP3    H277256   0.466   0.829   5.697  1.0674 -0.1249 -1.0401
18589TIP3   OH277257   1.651   1.656   3.370 -0.0221  0.1682 -0.2658
18589TIP3    H177258   1.673   1.629   3.281  1.4211  2.1391 -0.5182
18589TIP3    H277259   1.694   1.591   3.426  1.3843  0.5048 -0.9359
18590TIP3   OH277260   0.243   6.532   0.913  1.1783 -0.0654 -0.1794
18590TIP3    H177261   0.263   6.459   0.972  0.7986 -1.7709 -2.1066
18590TIP3    H277262   0.261   6.610   0.965 -0.8315 -1.4730  2.8100
18591TIP3   OH277263   5.180   1.580  13.122  0.1899 -0.7079  0.3174
18591TIP3    H177264   5.265   1.566  13.165 -0.4563 -3.0820  0.8858
18591TIP3    H277265   5.122   1.608  13.193  0.6392  1.6871 -0.2068
18592TIP3   OH277266   1.949   4.547  13.335  0.3318 -0.2898  0.0177
18592TIP3    H177267   1.975   4.606  13.405  1.1696 -0.3527 -0.2312
18592TIP3    H277268   2.024   4.489  13.323  0.8002  0.6622 -1.9117
18593TIP3   OH277269   0.332   1.020   1.727 -0.0626 -0.4604 -0.4550
18593TIP3    H177270   0.330   0.953   1.658  0.1595 -0.7069 -0.2245
18593TIP3    H277271   0.314   0.972   1.808 -1.2239 -0.0190 -0.4515
18594TIP3   OH277272   6.636   0.349   1.643  0.2993  0.8039  0.7307
18594TIP3    H177273   6.584   0.420   1.606  0.8803  0.8649  0.0076
18594TIP3    H277274   6.723   0.362   1.604  0.5900  0.1312  1.1651
18595TIP3   OH277275   4.236   4.317   1.038  0.7214  0.1115  0.0615
18595TIP3    H177276   4.144   4.344   1.037  1.1809  1.8114 -3.2752
18595TIP3    H277277   4.270   4.341   0.952  3.9415 -1.8470  0.6701
18596TIP3   OH277278   3.101   3.489  13.609  0.1402 -0.7600 -0.1048
18596TIP3    H177279   3.099   3.581  13.585  0.3203 -1.1541 -1.6921
18596TIP3    H277280   3.126   3.443  13.529  0.7578 -2.1317  0.8363
18597TIP3   OH277281   3.345   1.338   5.261 -0.7529 -0.5586  0.3760
18597TIP3    H177282   3.288   1.387   5.201 -1.4417 -1.8254 -0.0044
18597TIP3    H277283   3.309   1.356   5.348 -1.3211 -0.8076  0.1939
18598TIP3   OH277284   4.660   3.936   1.766 -0.1707  0.1127 -0.3838
18598TIP3    H177285   4.599   3.987   1.712  0.2903  0.0859 -0.9301
18598TIP3    H277286   4.621   3.848   1.770 -2.2570  1.0462  2.5604
18599TIP3   OH277287   0.471   1.575   3.642  0.7375  0.9229 -0.4162
18599TIP3    H177288   0.379   1.575   3.616  0.3678 -0.9222  0.7982
18599TIP3    H277289   0.483   1.492   3.689  2.5849  1.9191  0.9331
18600TIP3   OH277290   4.395   0.644  13.744 -0.0387  0.5716  0.3699
18600TIP3    H177291   4.466   0.658  13.681 -0.3715  2.0000  0.2824
18600TIP3    H277292   4.316   0.668  13.696 -0.4070  0.6171  0.9952
18601TIP3   OH277293   2.002   0.958   3.294  0.2358  0.0156 -0.1452
18601TIP3    H177294   2.086   0.920   3.321 -0.3547 -2.1194 -1.1967
18601TIP3    H277295   1.937   0.892   3.319 -0.9602  0.9078 -0.8780
18602TIP3   OH277296   4.386   2.195  10.608 -0.0381  0.2054 -0.6371
18602TIP3    H177297   4.400   2.100  10.617  1.2268  0.5393  1.2757
18602TIP3    H277298   4.470   2.229  10.579  0.2458  1.0278  1.1098
18603TIP3   OH277299   4.081   3.899  14.372  0.1050 -0.2477  0.8252
18603TIP3    H177300   4.149   3.856  14.425  1.0105 -0.6312 -0.6370
18603TIP3    H277301   4.058   3.834  14.306  0.1250  0.8180 -0.2376
18604TIP3   OH277302   2.247   4.638  14.456  0.3695 -0.4046  0.0073
18604TIP3    H177303   2.244   4.643  14.360  1.0914 -1.6425 -0.0929
18604TIP3    H277304   2.205   4.554  14.476 -0.4901  0.2135  0.8277
18605TIP3   OH277305   5.115   5.597   5.925 -0.3463 -0.3935  0.4822
18605TIP3    H177306   5.128   5.624   5.835 -1.5573  0.0786  0.4326
18605TIP3    H277307   5.189   5.635   5.973  0.0170 -0.2140 -0.2207
18606TIP3   OH277308   4.162   5.754  17.095  0.1112 -0.7030  0.4154
18606TIP3    H177309   4.239   5.697  17.100  1.0244  0.5574  1.0386
18606TIP3    H277310   4.198   5.842  17.083 -1.2689 -0.2049 -0.1839
18607TIP3   OH277311   1.925   0.110  12.574 -0.0913  0.4471  0.8813
18607TIP3    H177312   1.920   0.039  12.509  0.2798  0.8430  0.4139
18607TIP3    H277313   1.982   0.176  12.533 -2.5113  2.1779  0.1966
18608TIP3   OH277314   1.840   6.037   3.637  0.8191  0.1063  0.4733
18608TIP3    H177315   1.819   6.015   3.546 -0.5035  0.8612  0.5865
18608TIP3    H277316   1.756   6.033   3.683  1.4924 -0.3279  1.6813
18609TIP3   OH277317   4.664   3.484  14.825  0.1904  0.0634 -0.9298
18609TIP3    H177318   4.738   3.448  14.776  0.9985 -0.7382  0.8443
18609TIP3    H277319   4.702   3.516  14.906 -1.2245  0.8358 -0.5622
18610TIP3   OH277320   2.745   6.004   4.319  0.1682 -0.4028 -0.1375
18610TIP3    H177321   2.724   6.022   4.228  0.3788 -0.4165 -0.1898
18610TIP3    H277322   2.791   5.920   4.317  0.5368 -0.2034 -0.0663
18611TIP3   OH277323   2.750   6.234   3.840  0.0767 -0.3853  0.3860
18611TIP3    H177324   2.734   6.324   3.869 -0.7047 -0.8682  1.5367
18611TIP3    H277325   2.845   6.228   3.828  0.1225  0.6048  0.2334
18612TIP3   OH277326   4.759   1.317   4.803 -0.4559  0.2088 -0.1959
18612TIP3    H177327   4.786   1.259   4.732 -1.1291  1.4184 -1.4580
18612TIP3    H277328   4.672   1.347   4.779 -1.3814 -0.6195  1.9528
18613TIP3   OH277329   1.405   1.807   5.809 -0.3783  0.6280  0.0510
18613TIP3    H177330   1.388   1.806   5.715  1.0773 -1.6561 -0.2162
18613TIP3    H277331   1.425   1.899   5.828 -1.4989  1.2646 -1.6909
18614TIP3   OH277332   4.476   0.464   1.846  0.0092 -0.3439 -0.3319
18614TIP3    H177333   4.507   0.500   1.929  1.5320 -1.9630 -0.1889
18614TIP3    H277334   4.518   0.517   1.779  1.3778 -1.1191 -0.1023
18615TIP3   OH277335   4.246   6.613  12.231 -0.5205  0.4589 -0.2254
18615TIP3    H177336   4.272   6.699  12.264 -0.4473 -0.4554  2.1516
18615TIP3    H277337   4.324   6.580  12.186  0.6557  0.1129  2.0135
18616TIP3   OH277338   1.589   6.218   1.289  0.4618 -0.0515 -0.5479
18616TIP3    H177339   1.520   6.272   1.250  0.9561  0.4111 -0.7883
18616TIP3    H277340   1.603   6.148   1.225  2.1672  1.4152 -1.8349
18617TIP3   OH277341   0.801   0.149   4.365 -0.3492  0.3183 -0.3567
18617TIP3    H177342   0.857   0.076   4.338 -0.2500  0.3293 -0.1808
18617TIP3    H277343   0.724   0.109   4.403 -0.2903  0.3058 -0.2513
18618TIP3   OH277344   1.979   5.764   3.065  0.6026  0.2525 -0.1636
18618TIP3    H177345   1.915   5.699   3.034  1.2044  0.7109 -2.4786
18618TIP3    H277346   1.931   5.818   3.127 -0.3047 -1.4906  0.7007
18619TIP3   OH277347   6.528   6.433   6.452 -0.5133 -0.3454 -0.7538
18619TIP3    H177348   6.561   6.410   6.539 -0.7369 -0.4196 -0.6894
18619TIP3    H277349   6.442   6.471   6.468 -0.4243 -0.0732 -0.9171
18620TIP3   OH277350   2.903   2.979   3.358  0.2207 -0.1869  0.4918
18620TIP3    H177351   2.958   3.022   3.423  0.5437  0.8110 -0.4259
18620TIP3    H277352   2.847   3.049   3.324  1.4470 -0.2449 -1.7544
18621TIP3   OH277353   2.206   4.068   0.773 -0.0358  0.3177 -0.5269
18621TIP3    H177354   2.295   4.079   0.806  0.6797 -2.4976 -1.3912
18621TIP3    H277355   2.202   4.124   0.695  1.2107 -0.0629 -0.8727
18622TIP3   OH277356   4.891   5.812  14.311  0.0565 -0.0317 -0.2501
18622TIP3    H177357   4.819   5.765  14.354  0.1917  1.6041  1.8385
18622TIP3    H277358   4.849   5.889  14.272  0.3944 -0.0426 -0.6416
18623TIP3   OH277359   1.226   2.612  15.289  0.3934 -0.1598  0.2308
18623TIP3    H177360   1.306   2.645  15.247  0.5304  1.1932  1.5193
18623TIP3    H277361   1.190   2.688  15.336 -0.6032 -1.2363  1.2499
18624TIP3   OH277362   2.238   0.235  17.003 -0.0739 -0.3239 -0.3626
18624TIP3    H177363   2.206   0.151  16.969  2.3320 -0.8700 -1.3749
18624TIP3    H277364   2.240   0.292  16.925  1.3151 -0.2768 -0.2959
18625TIP3   OH277365   5.628   4.056   4.996 -0.3885  0.5438  0.0747
18625TIP3    H177366   5.565   4.019   5.057  0.0718  1.5256  1.1569
18625TIP3    H277367   5.642   4.146   5.026  0.7220  0.6714 -0.7678
18626TIP3   OH277368   2.498   2.058  12.918 -0.0549 -0.3072  0.5229
18626TIP3    H177369   2.414   2.017  12.934  0.4376 -0.6639  2.3056
18626TIP3    H277370   2.559   1.985  12.907  0.4342 -0.0665  1.5660
18627TIP3   OH277371   4.318   6.643   0.475 -0.1594 -0.2761  0.3734
18627TIP3    H177372   4.277   6.638   0.389 -0.3450 -0.0991  0.4512
18627TIP3    H277373   4.402   6.688   0.460  0.0372 -0.7002  0.2046
18628TIP3   OH277374   3.159   3.866   5.393 -0.1307 -0.1197  0.6046
18628TIP3    H177375   3.178   3.820   5.311  0.7199  0.3812  0.5196
18628TIP3    H277376   3.244   3.887   5.430 -0.5017  1.2230  0.7403
18629TIP3   OH277377   5.349   4.331  16.081 -0.6449  0.8509  0.0036
18629TIP3    H177378   5.312   4.244  16.069  0.3425  0.6348 -1.6121
18629TIP3    H277379   5.279   4.391  16.054 -0.9269  0.5352  0.0340
18630TIP3   OH277380   0.037   0.068   3.572  0.1588  0.1123  0.0140
18630TIP3    H177381   0.035   0.162   3.555  3.8651 -0.3214 -3.5741
18630TIP3    H277382   0.129   0.049   3.591 -0.9313 -2.4865  3.1705
18631TIP3   OH277383   0.211   1.279   1.077  0.2341 -0.1321  0.3982
18631TIP3    H177384   0.249   1.214   1.136  0.5399 -0.7793 -0.5019
18631TIP3    H277385   0.148   1.327   1.131  1.4997  0.1998  1.6240
18632TIP3   OH277386   2.190   1.156  12.465 -0.1304 -0.7851  0.0807
18632TIP3    H177387   2.264   1.133  12.408 -1.0022 -1.4673 -0.7982
18632TIP3    H277388   2.226   1.218  12.528  0.8785 -0.0635 -1.1856
18633TIP3   OH277389   2.101   1.323   3.649  0.0378 -0.3356 -0.2778
18633TIP3    H177390   2.152   1.273   3.712  0.4511 -0.5091 -0.7470
18633TIP3    H277391   2.049   1.384   3.702  1.8459  0.8772  0.1220
18634TIP3   OH277392   2.275   6.153   4.347 -0.0409  0.1217 -0.1189
18634TIP3    H177393   2.362   6.193   4.341  0.6232 -1.3395 -0.5185
18634TIP3    H277394   2.231   6.202   4.416  1.0472  0.9949 -0.0275
18635TIP3   OH277395   6.638   4.786  17.101 -0.1884 -0.7374 -0.2594
18635TIP3    H177396   6.704   4.810  17.036 -0.8831  0.4301 -0.5660
18635TIP3    H277397   6.648   4.851  17.171 -0.9630 -0.5833 -0.2823
18636TIP3   OH277398   5.310   0.895   0.340 -0.0670  0.2143 -0.6222
18636TIP3    H177399   5.372   0.842   0.389  0.5232  1.4558  0.0059
18636TIP3    H277400   5.226   0.852   0.352 -0.2468  1.4061  2.9416
18637TIP3   OH277401   1.773   1.841   2.798  0.0811 -0.9121  0.2085
18637TIP3    H177402   1.817   1.819   2.880  1.5656  3.0401  0.5778
18637TIP3    H277403   1.844   1.851   2.734 -0.6218  1.0100 -0.3053
18638TIP3   OH277404   5.392   5.239  15.438  0.3438  0.3104 -0.0786
18638TIP3    H177405   5.368   5.151  15.467 -0.2478 -0.2185 -2.0496
18638TIP3    H277406   5.341   5.298  15.493 -0.4838 -0.6426  0.1863
18639TIP3   OH277407   3.766   5.592  14.479  0.7128 -0.1202  0.4406
18639TIP3    H177408   3.777   5.537  14.401  0.2814 -0.1071  0.3695
18639TIP3    H277409   3.727   5.673  14.445 -0.6705 -0.6019  0.8435
18640TIP3   OH277410   3.922   6.702   3.311  0.2011 -0.0812 -0.2954
18640TIP3    H177411   3.851   6.703   3.247 -1.6120  1.8975  1.6582
18640TIP3    H277412   3.938   6.609   3.328 -0.9827 -0.5686 -1.7664
18641TIP3   OH277413   5.304   0.578   4.962 -0.6115  0.1487 -0.4438
18641TIP3    H177414   5.399   0.588   4.955 -0.4995 -0.1711  0.5718
18641TIP3    H277415   5.270   0.667   4.951 -0.1594  0.3421 -0.2942
18642TIP3   OH277416   3.715   1.303  15.972  0.4201 -0.0826 -0.5183
18642TIP3    H177417   3.746   1.281  15.884  1.0589  1.5548 -0.7229
18642TIP3    H277418   3.787   1.353  16.011 -0.0889 -0.2987  0.7213
18643TIP3   OH277419   6.392   3.250  12.165 -0.2801 -0.3347  0.1847
18643TIP3    H177420   6.327   3.242  12.234  0.4420  0.0057  0.9233
18643TIP3    H277421   6.476   3.239  12.211  0.2829  1.6043 -0.3564
18644TIP3   OH277422   1.462   2.713  13.020  1.1191  0.4708  0.5571
18644TIP3    H177423   1.502   2.660  13.089 -2.7137  1.2202  3.5207
18644TIP3    H277424   1.476   2.803  13.049 -0.4401  0.7946  0.3417
18645TIP3   OH277425   1.285   3.509  11.374 -0.2426  0.0697  0.0433
18645TIP3    H177426   1.210   3.568  11.377  0.4985  0.9850  1.0705
18645TIP3    H277427   1.354   3.560  11.330  0.3983 -0.0252  0.9258
18646TIP3   OH277428   2.189   5.393   2.199  0.6618  0.1584 -0.1925
18646TIP3    H177429   2.212   5.301   2.208 -0.1925 -0.1099 -0.7190
18646TIP3    H277430   2.221   5.417   2.111 -1.0074 -0.2091 -0.9210
18647TIP3   OH277431   3.445   6.080   3.915  0.0813  0.2090  0.0025
18647TIP3    H177432   3.474   5.989   3.912  1.0472  0.5008  0.4843
18647TIP3    H277433   3.504   6.122   3.976 -0.3721  1.1670 -0.2132
18648TIP3   OH277434   2.099   6.700  10.989  0.0813  0.0969  0.1921
18648TIP3    H177435   2.083   6.723  10.897 -0.5367 -1.5129 -0.1265
18648TIP3    H277436   2.012   6.695  11.028  0.2954 -0.0736  0.6515
18649TIP3   OH277437   2.336   4.425   1.095  0.9937  0.4582  0.0616
18649TIP3    H177438   2.432   4.421   1.090  0.9370  0.3859 -1.1763
18649TIP3    H277439   2.308   4.437   1.004 -0.2059 -0.1691  0.3364
18650TIP3   OH277440   5.778   0.515  16.080 -0.2578  0.0760 -0.3580
18650TIP3    H177441   5.766   0.571  16.157  0.4024  0.0439 -0.2256
18650TIP3    H277442   5.873   0.514  16.066 -0.2515 -1.0830 -0.3061
18651TIP3   OH277443   0.285   3.013   5.289 -0.5618 -0.1136  0.2972
18651TIP3    H177444   0.226   3.031   5.215  0.3730  0.6268 -0.2827
18651TIP3    H277445   0.361   2.971   5.249  1.2421  2.9165  0.3844
18652TIP3   OH277446   3.080   0.602   0.343 -0.2265 -0.4088 -1.3742
18652TIP3    H177447   3.083   0.693   0.314  0.6353  0.2903  0.8340
18652TIP3    H277448   3.148   0.559   0.291  0.4840  0.5569 -1.2665
18653TIP3   OH277449   0.739   5.414   6.447 -0.1370  0.0743 -0.5103
18653TIP3    H177450   0.823   5.456   6.468  0.1806 -0.5556 -0.4976
18653TIP3    H277451   0.718   5.363   6.526  0.0066 -0.6291 -0.9249
18654TIP3   OH277452   5.676   5.485  13.264  0.0117 -0.2066  0.1217
18654TIP3    H177453   5.597   5.436  13.242  0.7162 -0.7044 -1.3305
18654TIP3    H277454   5.740   5.419  13.290  0.7278 -0.0223 -1.1116
18655TIP3   OH277455   5.775   2.797  14.679  0.1826 -0.1582  0.1621
18655TIP3    H177456   5.736   2.868  14.732  0.6852 -0.3366  0.7716
18655TIP3    H277457   5.843   2.760  14.735  0.9711 -0.1058 -0.7668
18656TIP3   OH277458   1.074   1.771   5.726 -0.0221  0.2366 -0.7527
18656TIP3    H177459   1.032   1.837   5.782 -2.3737 -1.8545  0.0543
18656TIP3    H277460   1.086   1.696   5.784  2.0804 -0.2662 -1.8101
18657TIP3   OH277461   6.193   5.370  17.233  0.3336 -0.6510  0.1150
18657TIP3    H177462   6.220   5.376  17.141  2.1511  1.0609  0.7406
18657TIP3    H277463   6.105   5.332  17.229 -0.3792  1.1392 -2.4652
18658TIP3   OH277464   6.650   2.671   6.069  0.1177 -0.2058 -0.4654
18658TIP3    H177465   6.678   2.585   6.098 -0.8976 -0.3510  0.1063
18658TIP3    H277466   6.730   2.724   6.069  0.9048 -1.3849 -1.7357
18659TIP3   OH277467   3.376   5.031  13.677  0.3156  0.0251 -0.1633
18659TIP3    H177468   3.321   5.052  13.752 -1.5760 -1.6797 -1.0390
18659TIP3    H277469   3.381   4.935  13.677  1.6718  0.0820 -1.2367
18660TIP3   OH277470   5.697   6.559  13.375  0.3584 -0.7608  0.6018
18660TIP3    H177471   5.782   6.516  13.373 -0.2685 -1.9641 -0.0856
18660TIP3    H277472   5.674   6.572  13.283  0.2588  0.5010  0.7928
18661TIP3   OH277473   1.014   1.802   5.476  0.0550 -0.3345  0.3946
18661TIP3    H177474   1.023   1.780   5.569 -1.2431 -1.7430  0.1985
18661TIP3    H277475   0.954   1.877   5.474  0.9144  0.3768  0.7484
18662TIP3   OH277476   4.920   5.119  14.984  0.4018 -0.5630 -0.1030
18662TIP3    H177477   4.953   5.054  14.921 -0.5732 -0.7018 -0.4780
18662TIP3    H277478   4.913   5.200  14.933 -0.3858 -0.6740 -0.1774
18663TIP3   OH277479   2.302   5.344  15.143 -0.3182 -0.2664  0.0610
18663TIP3    H177480   2.311   5.438  15.159  0.9046 -0.5556  1.2236
18663TIP3    H277481   2.314   5.335  15.048  1.2175  0.5923  0.1436
18664TIP3   OH277482   6.511   3.409   2.390  0.4061  0.0966 -0.7336
18664TIP3    H177483   6.577   3.399   2.458 -0.7266  0.0665  0.3901
18664TIP3    H277484   6.536   3.488   2.343  0.4369  0.9087  0.6201
18665TIP3   OH277485   0.985   0.571  15.719  0.1196  0.0262  0.0639
18665TIP3    H177486   1.068   0.567  15.670 -0.3329  1.3133 -0.8401
18665TIP3    H277487   0.926   0.514  15.670  0.0271  0.3189 -0.1627
18666TIP3   OH277488   4.982   3.057   5.504  0.5613  0.2523 -0.0636
18666TIP3    H177489   4.922   3.116   5.549 -1.2052 -2.1251  0.7918
18666TIP3    H277490   5.037   3.021   5.574  0.5445 -0.3320 -0.3485
18667TIP3   OH277491   2.200   5.546   5.977  0.3353 -0.3121 -0.1223
18667TIP3    H177492   2.224   5.514   6.063 -0.4984  0.7485  0.5126
18667TIP3    H277493   2.137   5.616   5.993  0.3748  0.0905 -1.5761
18668TIP3   OH277494   5.061   0.005   2.095  0.0230 -0.3640 -0.1163
18668TIP3    H177495   5.080   0.080   2.037  0.4923  0.0594  0.5753
18668TIP3    H277496   5.052  -0.069   2.036 -0.8130  0.3124 -0.8440
18669TIP3   OH277497   5.689   6.642  14.820  0.3827 -0.0734  0.0158
18669TIP3    H177498   5.688   6.730  14.858 -0.4807 -0.0017 -0.1761
18669TIP3    H277499   5.618   6.642  14.756 -0.1026 -1.1387  0.5365
18670TIP3   OH277500   2.512   0.213  12.826  0.0741  0.0334 -0.4093
18670TIP3    H177501   2.571   0.165  12.884 -0.7908  0.1879  0.6141
18670TIP3    H277502   2.470   0.278  12.882 -1.6350 -0.5762 -0.9476
18671TIP3   OH277503   1.173   4.666   0.479  0.2100 -1.2054  0.1551
18671TIP3    H177504   1.223   4.593   0.515  2.2789  0.9153  1.7852
18671TIP3    H277505   1.174   4.732   0.549 -1.0067  0.6313 -1.5091
18672TIP3   OH277506   4.360   5.451   2.811 -0.4275  0.1928  0.3909
18672TIP3    H177507   4.379   5.479   2.721  1.6242  1.0808  1.0639
18672TIP3    H277508   4.302   5.519   2.845 -1.0696 -0.0531 -0.2024
18673TIP3   OH277509   2.136   1.925  11.880 -0.4896  0.0611 -0.1830
18673TIP3    H177510   2.099   1.864  11.816 -0.9429  1.2405 -1.0599
18673TIP3    H277511   2.066   1.940  11.943 -0.2087 -0.7031  0.3292
18674TIP3   OH277512   6.204   4.944  13.831 -0.5567  0.0343  0.2972
18674TIP3    H177513   6.127   4.923  13.884 -1.4774  3.0350  0.2217
18674TIP3    H277514   6.237   5.025  13.868  2.7737 -1.3438  0.4771
18675TIP3   OH277515   3.355   2.638  11.746  0.5685  0.2915  0.1918
18675TIP3    H177516   3.340   2.681  11.662  0.0014  1.1723  0.7289
18675TIP3    H277517   3.442   2.598  11.738  1.0474  1.4228 -0.3727
18676TIP3   OH277518   5.722   4.508   6.291  0.5524  0.4815 -0.4239
18676TIP3    H177519   5.675   4.459   6.224  2.0611  1.9269 -2.6028
18676TIP3    H277520   5.736   4.595   6.253  3.2170  0.7085  0.9170
18677TIP3   OH277521   0.924   0.605  14.294 -0.2144 -0.0722  0.3415
18677TIP3    H177522   0.842   0.557  14.304 -0.6304  0.9024  1.8779
18677TIP3    H277523   0.960   0.609  14.383  1.8801 -1.1463 -0.4368
18678TIP3   OH277524   1.824   2.308   5.822 -0.0967  0.3429 -0.3597
18678TIP3    H177525   1.911   2.311   5.863 -0.7581 -2.8503  1.4117
18678TIP3    H277526   1.781   2.233   5.861 -2.7940  0.3696 -3.0577
18679TIP3   OH277527   3.952   1.187  14.481 -0.3858  0.1753 -0.4669
18679TIP3    H177528   3.987   1.189  14.570  0.2429 -1.1046 -0.6661
18679TIP3    H277529   3.861   1.215  14.490  0.1816  1.8587  0.3072
18680TIP3   OH277530   5.789   4.730  12.173  0.0812  0.7885 -0.0929
18680TIP3    H177531   5.785   4.749  12.079 -3.8243 -0.2538 -0.2503
18680TIP3    H277532   5.805   4.815  12.214  1.9295  1.2435 -1.6815
18681TIP3   OH277533   0.984   1.385  12.510 -0.2623  0.3295  0.3654
18681TIP3    H177534   0.911   1.409  12.568  0.7728  1.6366  1.1261
18681TIP3    H277535   0.979   1.447  12.438  0.3908  0.7319  0.6628
18682TIP3   OH277536   3.499   3.961  15.499  0.4638 -0.4519 -0.2287
18682TIP3    H177537   3.568   3.901  15.525  1.0442 -0.4132 -1.6461
18682TIP3    H277538   3.509   4.036  15.556  1.9149 -0.2323 -0.7625
18683TIP3   OH277539   0.121   2.491   5.212  0.4253 -0.1168 -0.1787
18683TIP3    H177540   0.173   2.500   5.293  3.4843 -0.4232 -2.0262
18683TIP3    H277541   0.125   2.578   5.172  0.6963 -0.5062 -1.0000
18684TIP3   OH277542   1.732   3.115   5.810  0.2213  0.1036 -0.6846
18684TIP3    H177543   1.733   3.036   5.863  0.3634  0.7435  0.2687
18684TIP3    H277544   1.673   3.095   5.737  1.4964 -1.4433 -1.3244
18685TIP3   OH277545   5.763   1.220  13.963  0.5716 -0.0534 -0.1253
18685TIP3    H177546   5.696   1.280  13.929  0.2044 -0.1819  0.3676
18685TIP3    H277547   5.844   1.270  13.957  0.0956  0.9490  1.3940
18686TIP3   OH277548   5.620   5.917   6.049 -0.0664  0.3614  0.6866
18686TIP3    H177549   5.615   5.904   5.954  0.0253  1.4118  0.5257
18686TIP3    H277550   5.529   5.911   6.078 -0.3209  1.8022  0.2673
18687TIP3   OH277551   2.896   0.914   5.127  0.6044  0.3318  0.0557
18687TIP3    H177552   2.873   0.833   5.174 -0.2507  0.8935  0.6098
18687TIP3    H277553   2.990   0.906   5.112  0.4840 -0.8742 -0.0946
18688TIP3   OH277554   1.015   4.802  11.487  0.1529  0.0893  0.2163
18688TIP3    H177555   0.920   4.808  11.481  0.1287  1.4734  1.6075
18688TIP3    H277556   1.037   4.850  11.567  1.8514 -2.0120  1.0504
18689TIP3   OH277557   6.607   3.618   3.988  0.1420 -0.3309 -0.0877
18689TIP3    H177558   6.692   3.581   3.963 -0.0660 -0.3605 -0.7674
18689TIP3    H277559   6.614   3.711   3.967 -0.0328 -0.3546 -0.2520
18690TIP3   OH277560   1.311   2.995   4.651 -0.9169 -0.3151  0.0132
18690TIP3    H177561   1.396   2.966   4.618 -1.6938 -0.3765 -2.0010
18690TIP3    H277562   1.255   2.918   4.645 -0.6857 -0.7601  2.9826
18691TIP3   OH277563   5.363   3.631   2.701 -0.3364 -0.0841  0.5452
18691TIP3    H177564   5.275   3.627   2.737 -0.9803 -1.3618 -1.1435
18691TIP3    H277565   5.411   3.562   2.746 -0.5292 -0.2069  0.5601
18692TIP3   OH277566   0.916   5.739  11.246 -0.1377 -0.3028 -0.2216
18692TIP3    H177567   0.826   5.771  11.248 -0.4668 -0.9441 -2.6138
18692TIP3    H277568   0.913   5.663  11.188  1.9318 -0.3828 -0.2751
18693TIP3   OH277569   4.096   4.142  14.604  0.3331 -0.4229  0.1822
18693TIP3    H177570   4.135   4.057  14.624  1.7719  0.1520 -0.0371
18693TIP3    H277571   4.107   4.151  14.509 -0.2197 -0.1969  0.1422
18694TIP3   OH277572   1.237   0.987   0.141  0.3280 -0.3532  0.0078
18694TIP3    H177573   1.302   1.039   0.094 -1.5567  1.2956 -0.8212
18694TIP3    H277574   1.197   0.932   0.074  0.9494 -1.4814  0.5449
18695TIP3   OH277575   3.094   2.577   4.352 -0.3694 -0.0174  0.0006
18695TIP3    H177576   3.112   2.569   4.445  0.3020 -0.1636 -0.1390
18695TIP3    H277577   3.041   2.500   4.331 -0.4113 -0.0521  0.2374
18696TIP3   OH277578   0.162   0.710  11.745 -0.6951  0.3203 -0.3750
18696TIP3    H177579   0.210   0.753  11.674 -1.6914  1.8512 -0.1224
18696TIP3    H277580   0.152   0.777  11.812 -2.2900 -0.2857  0.0063
18697TIP3   OH277581   5.457   2.881  11.240 -0.3895 -0.6828  0.2268
18697TIP3    H177582   5.383   2.872  11.180 -0.5286  1.1827  0.0921
18697TIP3    H277583   5.530   2.838  11.195 -0.5453  0.5168 -1.2019
18698TIP3   OH277584   1.015   1.252   4.173  0.1082 -0.0739  0.1229
18698TIP3    H177585   1.016   1.159   4.148 -1.1878  0.5581 -2.4237
18698TIP3    H277586   0.922   1.274   4.179  0.4043  1.2617 -0.0609
18699TIP3   OH277587   3.330   6.304   2.041  0.0992  0.3864  0.1480
18699TIP3    H177588   3.279   6.349   1.974 -1.6780 -0.1266  1.1153
18699TIP3    H277589   3.332   6.365   2.115  1.9461  0.9009 -0.2894
18700TIP3   OH277590   1.989   2.673  16.457  0.1838  0.1651 -0.1726
18700TIP3    H177591   1.935   2.703  16.530 -0.0676  0.2163 -0.3801
18700TIP3    H277592   1.996   2.579  16.470  1.1220  0.3364  0.5721
18701TIP3   OH277593   4.115   2.766  14.950  0.2204  0.2934  0.0389
18701TIP3    H177594   4.117   2.708  15.027 -0.8952  0.4744  0.2125
18701TIP3    H277595   4.172   2.723  14.886  1.5919  0.4062  1.1491
18702TIP3   OH277596   6.248   2.422   4.910 -0.0004  0.3001  0.8282
18702TIP3    H177597   6.259   2.418   4.815 -1.0626 -2.7699  0.7911
18702TIP3    H277598   6.318   2.368   4.944  0.1982  1.1627  1.8127
18703TIP3   OH277599   4.752   0.894   3.842 -0.1571 -0.0615  0.1268
18703TIP3    H177600   4.704   0.975   3.859  0.3507  0.2917 -0.1023
18703TIP3    H277601   4.806   0.881   3.920  1.6483  1.1818 -0.8682
18704TIP3   OH277602   6.543   1.179  11.836  0.2228  0.0609 -0.0858
18704TIP3    H177603   6.483   1.249  11.814  0.7108 -0.1521 -2.1326
18704TIP3    H277604   6.504   1.137  11.913  0.2895  2.9719  1.5752
18705TIP3   OH277605   5.277   2.860  14.133  0.2001 -0.2849 -0.4743
18705TIP3    H177606   5.202   2.919  14.137 -1.3905 -2.2649 -0.1669
18705TIP3    H277607   5.275   2.826  14.043 -1.7673 -3.4341  0.6925
18706TIP3   OH277608   6.461   1.087  16.619  0.6229 -0.0190 -0.2849
18706TIP3    H177609   6.526   1.016  16.623  2.1949  1.4460  1.1105
18706TIP3    H277610   6.388   1.055  16.672  0.6789 -1.2382 -0.9338
18707TIP3   OH277611   0.266   6.023   3.832 -0.1276  0.2418 -0.1327
18707TIP3    H177612   0.293   5.972   3.908 -1.1433 -0.3109 -0.1332
18707TIP3    H277613   0.211   5.964   3.781 -0.1496  0.8809 -0.8716
18708TIP3   OH277614   3.296   0.529  15.509  0.2906 -0.4318  0.3296
18708TIP3    H177615   3.270   0.563  15.595  1.4229  0.6774  0.2536
18708TIP3    H277616   3.386   0.499  15.521  0.0595 -1.3407 -0.1849
18709TIP3   OH277617   0.833   2.553  12.643 -0.4214 -0.4627 -0.1435
18709TIP3    H177618   0.865   2.589  12.726 -0.3315  1.6660 -1.0698
18709TIP3    H277619   0.913   2.530  12.595 -0.4070  0.3542 -0.5155
18710TIP3   OH277620   2.854   4.934   6.470  0.4978  0.3966  0.0628
18710TIP3    H177621   2.829   4.888   6.390 -0.1177  0.5835  0.1522
18710TIP3    H277622   2.945   4.960   6.455  0.3840  0.4260 -0.5678
18711TIP3   OH277623   1.193   0.756  12.990  0.4720 -0.3156 -0.4247
18711TIP3    H177624   1.221   0.678  13.037  1.9403  1.9861  2.7702
18711TIP3    H277625   1.265   0.777  12.931  0.8280 -0.4300 -0.0337
18712TIP3   OH277626   6.533   5.578  15.274  0.2551  0.3848  0.0544
18712TIP3    H177627   6.517   5.672  15.264  0.1678  0.3885  0.2248
18712TIP3    H277628   6.450   5.544  15.308 -0.3252 -0.0467 -1.7493
18713TIP3   OH277629   1.868   2.777   5.214 -0.2473  0.1346 -0.2242
18713TIP3    H177630   1.937   2.809   5.155 -0.7140  1.3157 -0.1456
18713TIP3    H277631   1.808   2.729   5.157 -0.2322  0.5194 -0.5672
18714TIP3   OH277632   5.518   6.592  13.770  0.5955  0.5518 -0.2457
18714TIP3    H177633   5.559   6.665  13.723 -0.5003  0.8399 -0.7697
18714TIP3    H277634   5.433   6.626  13.798  1.4247  0.5462  2.3968
18715TIP3   OH277635   3.107   5.394  13.767  0.3751 -0.3631  0.0329
18715TIP3    H177636   3.087   5.487  13.761  0.0499 -0.2688  2.0977
18715TIP3    H277637   3.028   5.350  13.737 -0.4523  0.0382  1.5734
18716TIP3   OH277638   4.943   3.881   5.249 -0.3182  0.0380  0.0524
18716TIP3    H177639   5.032   3.905   5.273  0.0514  0.0078 -1.2663
18716TIP3    H277640   4.952   3.806   5.191 -1.3729 -1.9606  2.3664
18717TIP3   OH277641   2.953   3.566  13.172 -0.0353  0.2051  0.0727
18717TIP3    H177642   2.871   3.571  13.122 -0.4654  0.3084  0.7781
18717TIP3    H277643   2.948   3.639  13.235 -0.0867 -0.6892  1.1270
18718TIP3   OH277644   6.768   6.343   4.375  0.2823  0.0264  0.3285
18718TIP3    H177645   6.762   6.266   4.318 -1.2958  0.9923 -0.8511
18718TIP3    H277646   6.770   6.418   4.315  0.2956  0.9812  1.5006
18719TIP3   OH277647   2.079   3.559   4.058  0.1423  0.4455 -0.0780
18719TIP3    H177648   2.010   3.547   4.124  1.1465  0.1410  0.9239
18719TIP3    H277649   2.079   3.653   4.041 -1.2809  0.3081 -0.9163
18720TIP3   OH277650   3.228   2.760   3.060  0.2914 -0.1720  0.1881
18720TIP3    H177651   3.261   2.688   3.006  1.3726  0.1512  0.4063
18720TIP3    H277652   3.278   2.837   3.031 -0.6834  0.4433  0.1243
18721TIP3   OH277653   1.743   3.073  11.910 -0.4494  0.1582  0.5927
18721TIP3    H177654   1.686   3.034  11.977 -2.2627  0.5674 -0.6971
18721TIP3    H277655   1.824   3.021  11.916 -1.9562 -2.3048  0.5210
18722TIP3   OH277656   2.473   1.323  14.198  0.6296 -0.5038  0.0341
18722TIP3    H177657   2.466   1.235  14.235  1.1339 -0.3612  0.4703
18722TIP3    H277658   2.414   1.322  14.123 -0.4322 -0.7759  0.8694
18723TIP3   OH277659   2.312   5.448   0.024  0.2288 -0.1642 -0.3980
18723TIP3    H177660   2.291   5.456  -0.069  1.1149 -0.5882 -0.6407
18723TIP3    H277661   2.317   5.353   0.039  1.0328 -0.0817 -0.1361
18724TIP3   OH277662   6.545   0.079  12.248  0.3092 -0.5322 -0.0401
18724TIP3    H177663   6.510   0.020  12.315 -2.5767 -0.3925 -1.3410
18724TIP3    H277664   6.563   0.023  12.173 -0.9304 -0.0379 -0.7285
18725TIP3   OH277665   3.047   5.753   1.779 -0.6141 -0.3161 -0.4165
18725TIP3    H177666   2.958   5.777   1.805  0.0226  0.8583  0.8097
18725TIP3    H277667   3.102   5.788   1.850  0.8141 -1.0010 -1.1696
18726TIP3   OH277668   1.822   5.404   5.990 -0.6890  0.3055  0.4696
18726TIP3    H177669   1.817   5.482   6.046  1.8341 -1.5923  3.4981
18726TIP3    H277670   1.758   5.344   6.027  0.3418 -0.6193  0.7708
18727TIP3   OH277671   0.740   5.020   0.979  0.3366 -0.2775  0.5780
18727TIP3    H177672   0.835   5.016   0.986  0.5716  2.3363 -0.5287
18727TIP3    H277673   0.713   5.072   1.054  0.0510  1.3035 -0.5982
18728TIP3   OH277674   4.303   0.359   5.568 -0.4657 -0.3528  0.3610
18728TIP3    H177675   4.318   0.444   5.610 -0.0897  0.0353 -0.5448
18728TIP3    H277676   4.380   0.306   5.593 -0.2375 -0.1208  0.1533
18729TIP3   OH277677   4.229   3.984  13.256  0.3210  0.0235 -0.2055
18729TIP3    H177678   4.271   4.070  13.253 -0.0276  0.2362  0.9651
18729TIP3    H277679   4.136   4.003  13.268  0.0697 -0.4845 -1.2941
18730TIP3   OH277680   5.132   4.721   6.183 -0.0305 -0.5279 -0.4301
18730TIP3    H177681   5.077   4.684   6.252 -1.2162 -1.4546 -1.8403
18730TIP3    H277682   5.070   4.747   6.115  1.2588 -1.2264 -1.8793
18731TIP3   OH277683   3.985   6.215   2.331 -0.0636  0.4258  0.4164
18731TIP3    H177684   3.945   6.237   2.247  0.3882  2.0218  0.5988
18731TIP3    H277685   3.912   6.184   2.385 -0.3006 -0.9023 -0.6501
18732TIP3   OH277686   1.005   4.610  14.493 -0.4487  0.1923  0.1269
18732TIP3    H177687   1.066   4.537  14.501  0.4921  0.9497 -0.0468
18732TIP3    H277688   1.041   4.678  14.550 -2.7550 -0.4033  2.3687
18733TIP3   OH277689   4.420   0.102   2.825  0.1826  0.2456  0.9908
18733TIP3    H177690   4.473   0.176   2.796  1.2369 -0.6798  0.5352
18733TIP3    H277691   4.355   0.141   2.883 -0.1813  1.7334 -0.3667
18734TIP3   OH277692   5.930   2.952   2.700 -0.6730 -0.1589 -0.1726
18734TIP3    H177693   5.874   2.910   2.765  1.1771  0.1610  1.6879
18734TIP3    H277694   5.999   2.889   2.682 -0.5693  0.1830 -1.0171
18735TIP3   OH277695   3.316   0.336  11.343  0.1349  0.2090  0.1820
18735TIP3    H177696   3.245   0.366  11.399 -0.5200 -2.4948  0.8632
18735TIP3    H277697   3.325   0.243  11.363  0.1077 -0.7866 -3.8953
18736TIP3   OH277698   2.004   6.152  14.659 -0.6934 -0.2645  0.4411
18736TIP3    H177699   1.961   6.067  14.650  1.0083 -1.0609 -0.3520
18736TIP3    H277700   1.972   6.202  14.584  0.1683 -1.0418 -0.4618
18737TIP3   OH277701   5.420   4.288  16.535  0.2830 -0.0285  0.2751
18737TIP3    H177702   5.348   4.264  16.593 -0.4898  1.4117 -0.0679
18737TIP3    H277703   5.478   4.212  16.535 -0.5086 -0.6393  1.6925
18738TIP3   OH277704   5.519   5.072  14.396  0.1208  0.5364 -0.3527
18738TIP3    H177705   5.567   5.090  14.315 -0.9331 -1.3603 -1.4276
18738TIP3    H277706   5.574   5.010  14.443  0.0457  0.5225 -0.2835
18739TIP3   OH277707   5.701   0.397   4.632 -0.4888 -0.0570 -0.2968
18739TIP3    H177708   5.630   0.455   4.660  0.3998  1.5531 -1.3514
18739TIP3    H277709   5.697   0.399   4.536 -0.9808 -2.4117 -0.3640
18740TIP3   OH277710   3.339   4.083  12.938  0.3049 -0.1343 -0.2203
18740TIP3    H177711   3.372   4.159  12.986  1.7904  0.3232 -1.9591
18740TIP3    H277712   3.406   4.016  12.950 -0.1833 -0.6238 -0.1701
18741TIP3   OH277713   5.931   5.230   4.557 -0.1732 -0.0042 -0.0760
18741TIP3    H177714   5.910   5.157   4.500 -0.4810  0.1346 -0.1399
18741TIP3    H277715   5.991   5.193   4.622 -0.3264 -0.3117 -0.1080
18742TIP3   OH277716   3.517   2.952  13.486 -0.3319  0.5930  0.6876
18742TIP3    H177717   3.506   3.045  13.464 -0.8762  0.2305 -0.6430
18742TIP3    H277718   3.429   2.914  13.475 -0.0307 -0.1535  0.8215
18743TIP3   OH277719   5.596   3.854  13.265  0.7008 -0.1542 -0.3488
18743TIP3    H177720   5.548   3.915  13.321  1.4990 -0.3007  0.5151
18743TIP3    H277721   5.562   3.768  13.289  2.4958 -0.4218  1.4596
18744TIP3   OH277722   5.634   0.386   4.918  0.1710 -0.1098  0.3698
18744TIP3    H177723   5.556   0.369   4.865  0.7700 -1.4383 -0.0955
18744TIP3    H277724   5.704   0.335   4.876  0.2310 -2.8016  3.5159
18745TIP3   OH277725   5.811   5.176  13.984  0.1073 -0.3413  1.0910
18745TIP3    H177726   5.846   5.252  14.030  0.8314  0.0373 -0.0831
18745TIP3    H277727   5.743   5.142  14.043  1.7351 -0.4938  2.9285
18746TIP3   OH277728   1.044   3.214   1.393  0.6312  0.4888 -0.4307
18746TIP3    H177729   1.035   3.126   1.355 -1.7133  0.5526 -0.1290
18746TIP3    H277730   1.110   3.204   1.461  1.4437 -0.7109 -1.3709
18747TIP3   OH277731   4.370   6.737   3.445  0.1809 -0.8902 -0.4257
18747TIP3    H177732   4.332   6.653   3.418 -2.4434  0.3764 -0.7806
18747TIP3    H277733   4.299   6.782   3.490  0.8335  2.1312 -2.2951
18748TIP3   OH277734   3.407   4.819  15.543  0.6131  0.0164  0.0464
18748TIP3    H177735   3.494   4.845  15.512  1.3964 -0.5107  1.7406
18748TIP3    H277736   3.416   4.725  15.562 -0.7464 -0.3715 -1.1772
18749TIP3   OH277737   5.204   1.541  12.815 -0.0661  0.6114  0.0162
18749TIP3    H177738   5.298   1.547  12.795  0.3946 -1.8488  1.1728
18749TIP3    H277739   5.201   1.500  12.901 -2.2270  0.2064 -0.2282
18750TIP3   OH277740   5.099   0.159  17.019 -0.7086 -0.6808  0.0532
18750TIP3    H177741   5.090   0.157  17.114  0.2039 -0.9102  0.1453
18750TIP3    H277742   5.080   0.250  16.995  4.3351  0.7996  1.0605
18751TIP3   OH277743   6.019   6.174   3.876 -0.0616 -0.0617  0.2264
18751TIP3    H177744   6.031   6.207   3.787  0.3053  1.3320  0.7763
18751TIP3    H277745   6.094   6.118   3.892 -0.6649 -1.1542 -0.7109
18752TIP3   OH277746   6.180   6.415  15.570 -0.5533 -0.0945  0.2181
18752TIP3    H177747   6.275   6.409  15.561 -0.6878  0.1629 -1.6013
18752TIP3    H277748   6.152   6.466  15.493 -2.0241  0.9542  1.4140
18753TIP3   OH277749   0.014   1.542   3.806  0.0776  0.3037  0.1120
18753TIP3    H177750  -0.018   1.629   3.782 -0.9591  0.0500  0.5559
18753TIP3    H277751  -0.056   1.505   3.859 -0.4591 -1.6454 -1.8934
18754TIP3   OH277752   2.719   3.837  11.896 -0.8615  0.7188 -0.4565
18754TIP3    H177753   2.634   3.874  11.918 -1.6780 -1.4911  0.2225
18754TIP3    H277754   2.782   3.900  11.931 -2.1880  1.8568 -0.0495
18755TIP3   OH277755   6.433   2.065   5.925  0.6680  0.0194 -0.7307
18755TIP3    H177756   6.407   2.043   6.014 -0.3787 -0.3267 -1.1168
18755TIP3    H277757   6.427   1.983   5.877  2.4966 -0.0791 -0.8426
18756TIP3   OH277758   3.351   6.690  16.981 -0.4550 -0.6645  0.1773
18756TIP3    H177759   3.373   6.605  16.943  0.1941 -0.5281  0.2266
18756TIP3    H277760   3.309   6.738  16.910  2.7211  0.3722 -1.0855
18757TIP3   OH277761   3.369   2.556   5.095  0.2089  0.1578  0.1106
18757TIP3    H177762   3.424   2.622   5.137  1.2343 -0.5237 -0.1280
18757TIP3    H277763   3.411   2.473   5.118  1.8586 -0.1712 -3.7249
18758TIP3   OH277764   0.062   3.677  14.895  0.8797 -0.0385  0.7627
18758TIP3    H177765   0.017   3.675  14.980 -0.4171  2.6913  0.2157
18758TIP3    H277766  -0.005   3.706  14.833  2.6503  1.3116 -0.5819
18759TIP3   OH277767   4.988   5.474   3.381  0.5905  0.4171  0.0755
18759TIP3    H177768   5.074   5.431   3.381  0.6466  0.5219  0.5193
18759TIP3    H277769   4.998   5.548   3.321  0.1651 -0.8312 -1.5653
18760TIP3   OH277770   6.305   0.774  13.767 -0.2849 -0.2243 -0.0677
18760TIP3    H177771   6.291   0.722  13.689  0.5061 -0.5290 -0.0197
18760TIP3    H277772   6.399   0.793  13.766 -0.1390 -0.8311  1.1729
18761TIP3   OH277773   1.093   6.693  11.933 -0.0031  0.2383 -0.4691
18761TIP3    H177774   1.055   6.739  11.859  2.5594  1.6470 -0.9744
18761TIP3    H277775   1.168   6.747  11.959  1.9137 -2.5906  0.1584
18762TIP3   OH277776   1.997   5.121   4.827 -0.1339  0.5143  0.5170
18762TIP3    H177777   2.082   5.136   4.869  1.0147 -0.3800 -1.4236
18762TIP3    H277778   1.988   5.192   4.764  0.6355 -1.1243 -1.4816
18763TIP3   OH277779   3.914   4.882  14.820 -0.2491  0.1179 -0.2451
18763TIP3    H177780   3.963   4.843  14.893 -0.3140  1.5696  0.5968
18763TIP3    H277781   3.982   4.911  14.759 -0.1494  0.0493 -0.1687
18764TIP3   OH277782   2.146   4.553   2.894 -0.3364  1.1310 -0.0053
18764TIP3    H177783   2.085   4.512   2.955 -0.8364  0.7954 -0.7129
18764TIP3    H277784   2.183   4.627   2.942  2.7022 -1.7619  2.3055
18765TIP3   OH277785   4.343   0.760   4.044  0.8686  0.3772  0.2793
18765TIP3    H177786   4.420   0.817   4.052  1.0626 -0.1619  2.5933
18765TIP3    H277787   4.379   0.671   4.045  0.4018  0.1491 -1.3309
18766TIP3   OH277788   6.298   4.246  17.287  0.7226 -0.3232 -0.3184
18766TIP3    H177789   6.226   4.184  17.271  1.0646 -0.3635 -1.7484
18766TIP3    H277790   6.274   4.289  17.369 -0.9172 -0.3521 -0.7616
18767TIP3   OH277791   1.104   6.144   0.650 -0.2436  0.3984 -0.7789
18767TIP3    H177792   1.085   6.054   0.677  0.1797  0.6644  0.4317
18767TIP3    H277793   1.018   6.180   0.625 -0.4377 -0.2733 -1.1003
18768TIP3   OH277794   1.851   5.165  15.598  0.0001 -0.3242 -0.0335
18768TIP3    H177795   1.849   5.070  15.604 -1.7093 -0.3326 -0.2818
18768TIP3    H277796   1.876   5.184  15.508 -1.2672 -0.5820 -0.4568
18769TIP3   OH277797   6.680   4.176   5.867  0.2030 -0.1762 -0.0705
18769TIP3    H177798   6.619   4.136   5.929  0.7125  1.6233  1.6340
18769TIP3    H277799   6.720   4.248   5.916  2.1490 -0.0171 -1.8366
18770TIP3   OH277800   4.399   1.728   6.345  0.3941 -0.0450 -0.5373
18770TIP3    H177801   4.452   1.696   6.417 -1.1297  0.9038  1.0318
18770TIP3    H277802   4.377   1.650   6.294  2.0189 -0.6261 -0.3700
18771TIP3   OH277803   0.939   4.543  17.155  0.0195  0.1015  0.4228
18771TIP3    H177804   0.915   4.450  17.149 -2.3008  0.7845 -1.5500
18771TIP3    H277805   1.033   4.544  17.136  0.0199 -1.8083  0.1510
18772TIP3   OH277806   0.626   5.164  11.303 -0.3522 -0.4312  0.7193
18772TIP3    H177807   0.586   5.251  11.299 -1.9135 -1.1585  0.3589
18772TIP3    H277808   0.555   5.106  11.329  0.4046 -1.7718 -0.1553
18773TIP3   OH277809   1.154   5.425   1.544 -0.5598  0.3623 -0.3315
18773TIP3    H177810   1.168   5.376   1.626 -2.5858  0.1245 -0.1018
18773TIP3    H277811   1.113   5.361   1.485  0.0865  0.7857 -1.2517
18774TIP3   OH277812   0.074   2.248   2.964 -0.3082 -0.0755  0.0417
18774TIP3    H177813   0.076   2.254   2.869  0.5899  0.9619  0.1122
18774TIP3    H277814   0.109   2.160   2.983  0.9958  0.3016 -0.5401
18775TIP3   OH277815   1.691   0.427  10.875 -0.4564  0.4009  0.3392
18775TIP3    H177816   1.667   0.396  10.787  0.1121 -1.2895  0.7697
18775TIP3    H277817   1.609   0.461  10.911 -0.8591  0.4016 -0.5558
18776TIP3   OH277818   2.478   6.728  17.283  0.1717 -0.0112 -0.3565
18776TIP3    H177819   2.502   6.639  17.310 -1.2748 -0.0176  1.0163
18776TIP3    H277820   2.394   6.719  17.240 -1.3683  0.9836  2.2782
18777TIP3   OH277821   1.447   4.687  16.995  0.3240 -0.4666  0.0226
18777TIP3    H177822   1.462   4.768  17.043 -1.4033 -1.5030  2.3694
18777TIP3    H277823   1.420   4.715  16.907 -1.3688  1.5092  1.1464
18778TIP3   OH277824   6.509   4.390   6.632 -0.4979 -0.0461 -0.0922
18778TIP3    H177825   6.422   4.431   6.628 -0.9185 -0.7796  1.1388
18778TIP3    H277826   6.568   4.461   6.656 -0.6853  0.5497 -1.3819
18779TIP3   OH277827   5.104   5.498  11.447 -0.0945 -0.1539  0.0840
18779TIP3    H177828   5.117   5.524  11.356  0.0018  0.6362  0.3253
18779TIP3    H277829   5.100   5.402  11.444  0.0129 -0.1337 -0.7355
18780TIP3   OH277830   6.704   3.553  15.793 -0.1877  0.2606 -0.2180
18780TIP3    H177831   6.687   3.528  15.884 -0.1045  2.5261  0.4557
18780TIP3    H277832   6.635   3.616  15.772 -0.2814 -0.3348 -1.7905
18781TIP3   OH277833   4.140   1.466   3.146  0.0972  0.1587  0.3216
18781TIP3    H177834   4.057   1.441   3.186 -0.1927 -0.2503 -0.5397
18781TIP3    H277835   4.190   1.385   3.142 -0.4944 -0.1159 -1.6435
18782TIP3   OH277836   2.758   5.839  11.150  0.6301 -0.0935  0.2101
18782TIP3    H177837   2.790   5.784  11.221  2.0099  0.9635  0.4396
18782TIP3    H277838   2.836   5.860  11.099 -0.0873  0.5176 -0.6581
18783TIP3   OH277839   5.905   6.290   0.558 -0.5825 -0.2286  0.1481
18783TIP3    H177840   5.881   6.379   0.586  0.5182 -0.4609  1.8929
18783TIP3    H277841   5.829   6.260   0.508 -0.8446  1.8056 -0.7438
18784TIP3   OH277842   2.325   6.115  15.722  0.1284 -0.2949  0.5190
18784TIP3    H177843   2.275   6.124  15.641 -1.4446 -1.6112  1.3151
18784TIP3    H277844   2.361   6.026  15.720  1.1981  0.1167  0.6634
18785TIP3   OH277845   6.297   1.487  12.042  0.1238 -0.2845  0.5015
18785TIP3    H177846   6.226   1.551  12.035  0.8911  0.5557  0.2716
18785TIP3    H277847   6.252   1.403  12.043 -0.8265  0.1779 -0.7984
18786TIP3   OH277848   1.192   4.222  12.020 -0.1897 -0.4361 -0.3964
18786TIP3    H177849   1.238   4.200  12.102 -0.2815  1.8331  0.3041
18786TIP3    H277850   1.101   4.198  12.036  0.0525 -1.3748 -0.3860
18787TIP3   OH277851   2.051   1.785   3.412  0.5390 -0.1970 -0.2444
18787TIP3    H177852   2.068   1.692   3.422 -1.1266 -0.6049 -0.9794
18787TIP3    H277853   2.048   1.799   3.317 -0.5612  0.3320 -0.1443
18788TIP3   OH277854   3.913   6.500   1.006 -0.0206 -0.7928 -0.6681
18788TIP3    H177855   3.894   6.414   0.968 -2.3363 -0.2797 -0.7658
18788TIP3    H277856   3.892   6.491   1.099 -1.5536  0.0071 -0.9201
18789TIP3   OH277857   0.756   3.409  15.945  0.0132  0.5050  0.2090
18789TIP3    H177858   0.832   3.467  15.952 -0.1064  0.4432  2.3422
18789TIP3    H277859   0.696   3.440  16.013 -1.5201  0.0164 -0.8943
18790TIP3   OH277860   6.432   0.976  14.251  0.2031  0.0246 -0.1093
18790TIP3    H177861   6.412   0.950  14.161  1.3303 -1.5264  0.0706
18790TIP3    H277862   6.482   1.057  14.242 -1.6133  1.1036 -0.7706
18791TIP3   OH277863   0.057   3.860   5.360  0.0660  0.4017  0.7504
18791TIP3    H177864   0.004   3.938   5.343 -1.3135 -0.8801 -1.0712
18791TIP3    H277865   0.007   3.810   5.424 -1.1606 -0.9730 -1.2230
18792TIP3   OH277866   0.162   2.407  11.684  0.3725 -0.0721 -0.3147
18792TIP3    H177867   0.255   2.388  11.685 -0.0490 -2.3313 -0.9613
18792TIP3    H277868   0.139   2.422  11.776  1.1983 -0.4620 -0.0404
18793TIP3   OH277869   3.668   3.041   4.012 -0.4449 -0.6622  0.0910
18793TIP3    H177870   3.691   2.950   3.994 -0.6847 -0.4966 -1.1144
18793TIP3    H277871   3.750   3.081   4.043 -0.2472 -1.1877  0.2543
18794TIP3   OH277872   3.229   1.003   1.709  0.2826 -0.1693  0.2739
18794TIP3    H177873   3.152   0.947   1.720 -0.9983  1.1039 -1.7724
18794TIP3    H277874   3.294   0.945   1.668 -0.0596 -0.8906  0.7303
18795TIP3   OH277875   6.058   1.160  15.208  0.2724 -0.2758 -0.0583
18795TIP3    H177876   6.003   1.235  15.184  0.8474 -0.8215 -3.3919
18795TIP3    H277877   6.148   1.191  15.198  0.5193 -1.0462 -0.3273
18796TIP3   OH277878   4.206   1.995  11.933  0.0994  0.3627  0.0574
18796TIP3    H177879   4.128   2.031  11.975  0.1618  0.4926  0.0635
18796TIP3    H277880   4.269   2.068  11.934 -0.2540  0.7002 -1.1934
18797TIP3   OH277881   3.390   2.705   6.414 -0.4208 -0.7538 -0.1126
18797TIP3    H177882   3.376   2.682   6.505 -1.3226  0.1712 -0.0043
18797TIP3    H277883   3.447   2.782   6.417  1.0225 -1.7957 -0.4003
18798TIP3   OH277884   1.506   5.597  11.262 -0.1762 -0.2702 -0.2289
18798TIP3    H177885   1.601   5.585  11.264 -0.1328  0.1155  0.2113
18798TIP3    H277886   1.470   5.510  11.282  0.0784 -0.4624 -0.6069
18799TIP3   OH277887   4.838   2.915   2.836  0.0385 -0.7299  0.2983
18799TIP3    H177888   4.767   2.917   2.899 -0.2079 -1.0513  0.0286
18799TIP3    H277889   4.821   2.989   2.778 -0.1857 -0.9309  0.1102
18800TIP3   OH277890   6.662   0.341  11.984 -0.3113 -0.2722  0.2501
18800TIP3    H177891   6.660   0.288  11.904  1.3992  1.1556 -0.7843
18800TIP3    H277892   6.604   0.415  11.964  0.2510  0.1733  0.2445
18801TIP3   OH277893   1.811   6.598   2.958 -0.2761  0.3003 -0.3155
18801TIP3    H177894   1.818   6.502   2.951  0.2837  0.0240  2.8040
18801TIP3    H277895   1.719   6.614   2.977  0.3057 -0.0827  3.3459
18802TIP3   OH277896   2.292   2.110  16.662  0.0603 -0.5506 -0.6531
18802TIP3    H177897   2.364   2.063  16.703  0.9741  1.4774  0.1504
18802TIP3    H277898   2.241   2.145  16.735  0.2628  0.9593 -1.2064
18803TIP3   OH277899   2.159   0.679   2.429 -0.0129  0.0233  0.5098
18803TIP3    H177900   2.081   0.623   2.429  0.4354 -0.6434  2.2696
18803TIP3    H277901   2.222   0.631   2.482  1.6727  0.4853 -1.0334
18804TIP3   OH277902   6.243   2.129  11.577  0.1739 -0.5331  0.5340
18804TIP3    H177903   6.226   2.047  11.530  0.6134  0.3487 -1.1985
18804TIP3    H277904   6.211   2.197  11.519 -0.1987  0.5456  1.9820
18805TIP3   OH277905   4.057   1.358  14.696  0.2752 -0.1369  0.1890
18805TIP3    H177906   4.009   1.315  14.766  0.5446  0.2266  0.5989
18805TIP3    H277907   3.997   1.425  14.663 -0.0961 -0.7405 -0.3661
18806TIP3   OH277908   0.688   5.050  15.120 -0.4657  0.6842  0.1000
18806TIP3    H177909   0.783   5.049  15.125 -0.4106  1.5003 -0.5315
18806TIP3    H277910   0.669   5.046  15.026 -1.0787 -0.5450  0.2653
18807TIP3   OH277911   2.441   1.517   1.561  0.3316 -0.7419 -0.1367
18807TIP3    H177912   2.515   1.536   1.503 -0.7499 -0.8614 -1.5668
18807TIP3    H277913   2.422   1.602   1.603  0.7502 -0.5263 -0.3785
18808TIP3   OH277914   1.999   1.508  10.751 -0.0821 -0.0617 -0.1807
18808TIP3    H177915   2.066   1.528  10.817  1.2680 -0.4499 -1.4195
18808TIP3    H277916   1.923   1.480  10.802  1.4342 -1.8002  1.1836
18809TIP3   OH277917   6.167   1.374   6.032  0.5794  0.2244  0.6689
18809TIP3    H177918   6.073   1.391   6.020  0.9058  0.8526 -1.0991
18809TIP3    H277919   6.178   1.371   6.127 -1.4720 -1.2578  0.9081
18810TIP3   OH277920   2.619   3.638   2.070 -0.5212 -0.3770 -0.1005
18810TIP3    H177921   2.705   3.641   2.028 -0.6310 -1.1861 -0.3814
18810TIP3    H277922   2.638   3.644   2.163 -0.1909 -0.0516 -0.1864
18811TIP3   OH277923   2.681   1.441  12.966 -0.3968 -0.3433 -0.0366
18811TIP3    H177924   2.602   1.406  13.008  0.0306 -0.8299  0.3673
18811TIP3    H277925   2.731   1.479  13.038 -0.4436  0.3089 -0.3514
18812TIP3   OH277926   6.766   3.832   1.197 -0.5724 -0.2439 -0.0476
18812TIP3    H177927   6.680   3.873   1.188 -0.3894 -0.1614 -1.6695
18812TIP3    H277928   6.748   3.738   1.197 -0.7507 -0.2144  0.7931
18813TIP3   OH277929   0.054   6.430   3.601 -0.4909  0.0920  0.3401
18813TIP3    H177930   0.149   6.433   3.606 -0.5448  0.3290  1.4979
18813TIP3    H277931   0.033   6.456   3.512  0.4656  1.6268  0.5560
18814TIP3   OH277932   4.955   4.677  15.657  0.8037 -0.2957  0.2992
18814TIP3    H177933   4.988   4.753  15.705  0.9408 -0.0261 -0.2107
18814TIP3    H277934   4.912   4.715  15.580  0.5778 -0.7189  0.2151
18815TIP3   OH277935   5.077   5.518  16.051  0.4584  0.5156  0.2654
18815TIP3    H177936   5.025   5.572  16.111 -0.0988 -1.2257  1.3906
18815TIP3    H277937   5.115   5.580  15.990 -0.5707  2.1358  1.2307
18816TIP3   OH277938   1.963   1.927  12.932 -0.7161 -0.0144 -0.2278
18816TIP3    H177939   2.042   1.964  12.970 -0.6157 -0.1615 -0.2946
18816TIP3    H277940   1.911   1.899  13.008 -0.6353 -0.0638 -0.1919
18817TIP3   OH277941   6.808   4.313  14.038 -0.5809 -0.3588 -0.1439
18817TIP3    H177942   6.755   4.332  14.115  0.1606 -0.7887  0.4721
18817TIP3    H277943   6.893   4.353  14.056 -0.6022  0.1103 -1.0218
18818TIP3   OH277944   4.702   4.675  12.960  0.2348  0.1834 -0.4556
18818TIP3    H177945   4.769   4.717  13.013 -0.6947  1.5722 -0.3714
18818TIP3    H277946   4.744   4.658  12.876  1.1302 -0.3100  0.0802
18819TIP3   OH277947   0.697   1.809  13.478  0.3411  0.1782 -0.2049
18819TIP3    H177948   0.634   1.741  13.502 -0.1425  0.4649 -0.6707
18819TIP3    H277949   0.763   1.806  13.548 -0.4382  0.2015  0.5335
18820TIP3   OH277950   5.534   5.409   3.639 -0.3123  0.2104 -0.7649
18820TIP3    H177951   5.486   5.341   3.593 -0.6944 -0.5352  0.7064
18820TIP3    H277952   5.541   5.481   3.576  2.1139 -2.0399 -3.1474
18821TIP3   OH277953   1.712   1.139  14.103  0.3249  0.6535 -0.0795
18821TIP3    H177954   1.712   1.194  14.025  0.1915  0.2639 -0.3579
18821TIP3    H277955   1.657   1.186  14.166  0.0788  0.7536 -0.3705
18822TIP3   OH277956   5.718   5.583  13.836 -0.1026  0.5885  0.4099
18822TIP3    H177957   5.716   5.507  13.778  0.3098  2.1262 -1.6911
18822TIP3    H277958   5.775   5.556  13.908 -0.3997 -1.2690 -0.0101
18823TIP3   OH277959   5.153   4.965  13.805  0.0830 -0.2655  0.0062
18823TIP3    H177960   5.197   4.952  13.721  0.2060 -0.5276  0.1093
18823TIP3    H277961   5.177   5.053  13.832 -0.0227 -0.1487 -0.2725
18824TIP3   OH277962   6.167   4.945  12.543  0.3119 -0.1846 -0.2727
18824TIP3    H177963   6.133   4.864  12.505 -0.2860  0.5016 -1.2434
18824TIP3    H277964   6.262   4.938  12.537  0.2388 -0.1966 -1.7179
18825TIP3   OH277965   1.658   3.317  16.694  0.1651  0.2515 -0.7106
18825TIP3    H177966   1.600   3.311  16.770 -1.4662  0.9526 -1.8669
18825TIP3    H277967   1.700   3.403  16.702  1.2988 -0.3961  0.3037
18826TIP3   OH277968   5.802   3.086  15.481  0.2340  0.1669  0.3710
18826TIP3    H177969   5.862   3.109  15.409 -0.4420  0.2915 -0.1588
18826TIP3    H277970   5.717   3.121  15.453 -0.4269 -1.4087  0.3783
18827TIP3   OH277971   3.244   2.051  12.583  0.1108 -0.3587 -0.6320
18827TIP3    H177972   3.306   2.102  12.635  2.0901 -0.1908 -3.0906
18827TIP3    H277973   3.199   1.996  12.647  3.2716 -0.9833  1.1510
18828TIP3   OH277974   3.621   4.396  15.804 -0.1946 -0.9337  0.4715
18828TIP3    H177975   3.553   4.411  15.869 -0.9947  1.2634 -0.8475
18828TIP3    H277976   3.701   4.427  15.846 -0.7082  0.4891  0.4017
18829TIP3   OH277977   4.665   2.296   2.649  0.1199  0.5382  0.1807
18829TIP3    H177978   4.580   2.268   2.614  1.3799 -0.9761 -1.7158
18829TIP3    H277979   4.665   2.263   2.739  0.1482 -2.6452 -0.9250
18830TIP3   OH277980   6.656   1.753   4.033  0.1206  0.9870 -0.4437
18830TIP3    H177981   6.748   1.761   4.007  0.2162  0.7881 -0.1687
18830TIP3    H277982   6.631   1.665   4.003  0.6550  0.1614  1.4302
18831TIP3   OH277983   1.875   3.470   5.081 -0.2190 -0.1467  0.2567
18831TIP3    H177984   1.798   3.519   5.110 -0.9045 -0.4256 -1.0225
18831TIP3    H277985   1.950   3.524   5.108 -0.9122  0.8512  0.2125
18832TIP3   OH277986   5.847   2.640   3.981  0.0325 -0.3570 -0.0350
18832TIP3    H177987   5.866   2.697   4.055  2.6454  0.3669 -1.1683
18832TIP3    H277988   5.866   2.552   4.012  0.0879 -0.1610  0.4839
18833TIP3   OH277989   4.504   2.502  12.652  0.0387  0.1134 -0.0022
18833TIP3    H177990   4.471   2.421  12.612 -3.0006  2.1641 -1.7923
18833TIP3    H277991   4.599   2.497  12.641 -0.0453 -3.2997  0.1364
18834TIP3   OH277992   5.749   2.840   2.904  0.5190 -0.2374  0.2280
18834TIP3    H177993   5.783   2.886   2.981 -0.2573 -0.8397  0.9344
18834TIP3    H277994   5.724   2.754   2.937 -0.7154 -0.1688 -0.4954
18835TIP3   OH277995   6.260   3.250  12.531 -0.6899  0.3074  0.3020
18835TIP3    H177996   6.341   3.262  12.581 -0.4088 -0.8670  0.1378
18835TIP3    H277997   6.257   3.327  12.474  0.5393  0.1584  0.0051
18836TIP3   OH277998   6.234   2.258   1.764  0.6096 -0.2985  0.3996
18836TIP3    H177999   6.222   2.311   1.685  0.7697  0.6591  1.0185
18836TIP3    H278000   6.281   2.315   1.824  1.0090 -1.2302  0.9791
18837TIP3   OH278001   4.084   6.300  12.600 -0.5479 -0.0229  0.1299
18837TIP3    H178002   4.033   6.374  12.633 -1.3435  0.6215 -2.4312
18837TIP3    H278003   4.019   6.235  12.575  0.0281 -0.4058 -0.3957
18838TIP3   OH278004   4.403   6.045  11.964 -0.5192  0.0470 -0.0662
18838TIP3    H178005   4.386   5.968  12.017  1.4834  1.4248  2.6908
18838TIP3    H278006   4.322   6.096  11.969 -0.9577 -0.6624  0.1635
18839TIP3   OH278007   3.131   3.972   4.146 -0.0282  0.1882 -0.2151
18839TIP3    H178008   3.038   3.980   4.124  0.0913  2.5798  0.0415
18839TIP3    H278009   3.150   4.049   4.200  2.6298  0.9349 -2.1176
18840TIP3   OH278010   3.741   2.642  14.874  0.2364  0.3580 -0.1085
18840TIP3    H178011   3.763   2.578  14.942  0.4517  0.3424 -0.1911
18840TIP3    H278012   3.784   2.723  14.902  0.6287  0.2579 -0.4082
18841TIP3   OH278013   4.828   0.802   0.965  0.1667  0.0637 -0.1440
18841TIP3    H178014   4.767   0.774   1.034 -0.0515  0.7804 -0.0374
18841TIP3    H278015   4.831   0.729   0.904 -0.7349 -0.0250 -0.0958
18842TIP3   OH278016   1.238   5.645   2.573  0.1889 -0.2571 -0.2072
18842TIP3    H178017   1.241   5.740   2.570 -1.4988 -0.2435 -2.4096
18842TIP3    H278018   1.299   5.616   2.506 -1.3651 -0.6720 -1.4655
18843TIP3   OH278019   6.460   2.046  13.426 -0.3194  0.1094 -0.1802
18843TIP3    H178020   6.396   1.983  13.459 -0.4062  0.1729 -0.2270
18843TIP3    H278021   6.434   2.061  13.335 -0.0553 -0.0966 -0.2906
18844TIP3   OH278022   5.356   3.352  12.023 -0.3363  0.1078  0.0678
18844TIP3    H178023   5.408   3.285  11.979  1.3389  0.6750  1.1368
18844TIP3    H278024   5.399   3.434  12.001 -1.6243  0.7237 -0.1814
18845TIP3   OH278025   3.408   1.099   3.922 -0.2606  0.4864 -0.2853
18845TIP3    H178026   3.498   1.067   3.915 -0.4400  0.0303 -0.5402
18845TIP3    H278027   3.364   1.063   3.845 -0.4356  1.4633 -0.6455
18846TIP3   OH278028   3.570   3.619   4.103  0.2792  0.4841  0.3451
18846TIP3    H178029   3.486   3.577   4.081  0.4680 -0.0119  0.5826
18846TIP3    H278030   3.604   3.648   4.018 -0.2635  0.9380  0.2741
18847TIP3   OH278031   2.522   1.435   3.993 -0.9543 -0.1362 -0.2733
18847TIP3    H178032   2.462   1.424   3.920 -0.5132 -2.4281 -0.3457
18847TIP3    H278033   2.601   1.474   3.954 -1.0223 -0.5891 -0.8648
18848TIP3   OH278034   2.674   5.297  13.319 -0.3053 -0.7550 -0.4038
18848TIP3    H178035   2.596   5.308  13.374 -0.2759 -0.3572 -0.4394
18848TIP3    H278036   2.746   5.291  13.382 -0.4296 -1.7361 -0.3481
18849TIP3   OH278037   0.975   4.078   0.555 -0.3088 -0.1467 -0.2126
18849TIP3    H178038   1.017   4.046   0.635 -0.8017  2.0984  0.9896
18849TIP3    H278039   1.044   4.127   0.510 -0.7529  0.8602  0.1876
18850TIP3   OH278040   5.522   5.853   3.933 -0.1928  0.0230 -0.0112
18850TIP3    H178041   5.584   5.921   3.908  0.1066  0.8781  2.9159
18850TIP3    H278042   5.443   5.901   3.959  0.5377 -0.5959  3.5374
18851TIP3   OH278043   2.278   6.141  11.769 -0.6758 -0.1175  0.3646
18851TIP3    H178044   2.285   6.133  11.674  1.2259 -0.1783  0.4891
18851TIP3    H278045   2.212   6.075  11.793  0.2379 -1.4721 -0.7257
18852TIP3   OH278046   1.112   2.218   6.051 -0.5460  0.5586 -0.1139
18852TIP3    H178047   1.032   2.257   6.087  0.1068  1.8128 -0.0253
18852TIP3    H278048   1.177   2.228   6.121 -0.4977 -1.1766  0.1272
18853TIP3   OH278049   6.534   2.297  12.367 -0.0490 -0.0919  0.1854
18853TIP3    H178050   6.478   2.341  12.304  0.1434 -2.0714 -1.4115
18853TIP3    H278051   6.478   2.231  12.408  0.1882  0.2942  1.1644
18854TIP3   OH278052   5.470   6.308   6.327  0.1415  0.3458 -0.3772
18854TIP3    H178053   5.432   6.221   6.323 -1.1004  0.7386  1.7242
18854TIP3    H278054   5.524   6.315   6.249 -0.3835 -1.9968 -0.9811
18855TIP3   OH278055   6.635   5.329  14.222  0.9993 -0.5539  0.7102
18855TIP3    H178056   6.624   5.247  14.173 -0.3293  1.1989 -2.0474
18855TIP3    H278057   6.550   5.345  14.262  0.7534  0.3606 -0.1787
18856TIP3   OH278058   2.985   2.032   2.415  0.0523  0.0180 -1.0664
18856TIP3    H178059   2.986   2.004   2.507 -0.7266 -2.2651 -1.7137
18856TIP3    H278060   2.907   2.088   2.409  0.4474  0.6741 -0.2042
18857TIP3   OH278061   2.423   1.138  11.885  0.1692 -0.2380  0.3842
18857TIP3    H178062   2.340   1.120  11.930 -0.9628  1.0086 -1.1475
18857TIP3    H278063   2.438   1.231  11.897  0.5020 -0.1354 -0.7301
18858TIP3   OH278064   1.883   2.781  15.466 -0.3023  0.3584  0.1520
18858TIP3    H178065   1.920   2.710  15.518  0.7132  0.6935 -0.0998
18858TIP3    H278066   1.928   2.859  15.498  0.2154  0.5896 -1.1109
18859TIP3   OH278067   6.775   0.375   1.025  0.4240  0.0664 -0.9417
18859TIP3    H178068   6.869   0.355   1.019  0.4316 -0.2315  0.1135
18859TIP3    H278069   6.732   0.293   0.998  0.4665 -0.6489  1.0958
18860TIP3   OH278070   2.389   4.506   0.028 -0.0023 -0.0851 -0.1646
18860TIP3    H178071   2.406   4.565  -0.046 -0.3944  0.3261  0.0709
18860TIP3    H278072   2.293   4.503   0.033  0.0173 -0.8878 -0.2936
18861TIP3   OH278073   4.913   0.413   6.259 -0.2546  0.1119  0.0698
18861TIP3    H178074   4.997   0.459   6.255 -0.3349  0.2619  0.1136
18861TIP3    H278075   4.866   0.455   6.332 -0.8245  0.8093 -0.6833
18862TIP3   OH278076   1.727   3.021   2.812 -0.3310 -0.8972  0.7678
18862TIP3    H178077   1.693   3.072   2.885 -0.5017  0.7550 -0.4258
18862TIP3    H278078   1.684   2.936   2.818 -1.1598 -0.3936  1.9428
18863TIP3   OH278079   5.357   2.920   3.076 -0.2772  0.3374  0.4851
18863TIP3    H178080   5.381   2.993   3.132 -2.2759  1.2863  0.1318
18863TIP3    H278081   5.393   2.943   2.990  1.2602 -0.2921  0.9459
18864TIP3   OH278082   0.908   5.718   4.073 -0.1583  0.2155  0.3873
18864TIP3    H178083   0.860   5.736   3.993 -0.7466 -0.4031  0.5947
18864TIP3    H278084   0.911   5.802   4.119 -0.7227  0.3408  0.2007
18865TIP3   OH278085   2.189   3.920  13.670  0.4334  0.0324 -0.1760
18865TIP3    H178086   2.146   3.838  13.696 -1.6980  1.2365  0.1742
18865TIP3    H278087   2.208   3.908  13.577  0.8933 -1.1790  0.0633
18866TIP3   OH278088   0.156   0.932   5.685 -0.2518  0.5819 -0.6875
18866TIP3    H178089   0.246   0.917   5.659 -0.0825  0.6661 -0.1654
18866TIP3    H278090   0.103   0.897   5.613  0.1757 -0.3325 -0.5643
18867TIP3   OH278091   4.940   5.705   0.614 -0.0490  0.4706  0.4992
18867TIP3    H178092   4.869   5.642   0.625 -0.2134  0.8032  1.3766
18867TIP3    H278093   4.997   5.691   0.689  1.5858 -0.7629 -0.9330
18868TIP3   OH278094   4.032   0.844   0.370 -0.3170 -0.7377  0.0944
18868TIP3    H178095   3.993   0.758   0.352 -0.7578  0.0146 -2.6960
18868TIP3    H278096   3.958   0.905   0.369 -0.0767 -0.3358  2.5628
18869TIP3   OH278097   3.669   2.883  15.294  0.4187  0.1916  0.4733
18869TIP3    H178098   3.732   2.955  15.296  0.2902  0.4068 -1.9247
18869TIP3    H278099   3.590   2.921  15.254 -0.8071 -0.4226  2.2317
18870TIP3   OH278100   6.296   0.662  14.050 -0.1303  0.5970  0.4000
18870TIP3    H178101   6.266   0.688  13.963  0.0611  1.1908  0.5095
18870TIP3    H278102   6.375   0.611  14.034 -1.7905 -1.9483  0.0336
18871TIP3   OH278103   2.817   2.328  15.602 -0.5279  0.1092  0.1988
18871TIP3    H178104   2.789   2.359  15.516 -0.6827 -0.3013  0.0985
18871TIP3    H278105   2.872   2.253  15.584  1.8737  1.7840  0.3212
18872TIP3   OH278106   3.007   2.652  12.008  0.1311 -0.4053 -0.1304
18872TIP3    H178107   2.912   2.660  11.994  0.0280 -1.4019 -0.0663
18872TIP3    H278108   3.044   2.728  11.962 -0.8585  1.3324  1.8606
18873TIP3   OH278109   0.097   1.711  10.818 -0.1891  0.4517  0.0506
18873TIP3    H178110   0.084   1.630  10.868 -0.8091  0.2844 -0.3655
18873TIP3    H278111   0.052   1.778  10.869 -1.1550  0.2093 -0.4680
18874TIP3   OH278112   0.529   3.295   5.195  0.2286 -0.0160 -0.0463
18874TIP3    H178113   0.504   3.365   5.256  2.0830  1.3899 -0.8435
18874TIP3    H278114   0.605   3.254   5.236  0.2328 -0.4075 -0.4416
18875TIP3   OH278115   5.376   5.970   6.912  0.0861  0.2027  0.0724
18875TIP3    H178116   5.469   5.968   6.888 -0.2197  0.9699 -1.2055
18875TIP3    H278117   5.370   6.040   6.977  0.6308 -0.7938  1.2298
18876TIP3   OH278118   5.202   0.254  15.190 -0.1374  0.0024 -0.8393
18876TIP3    H178119   5.232   0.304  15.114 -1.2277  0.1974 -1.1433
18876TIP3    H278120   5.107   0.250  15.180 -0.5618  2.1617  1.8353
18877TIP3   OH278121   1.174   2.737   4.639  0.5224 -0.1705 -0.3968
18877TIP3    H178122   1.196   2.680   4.714  0.3966  0.7302  0.3353
18877TIP3    H278123   1.082   2.720   4.623 -0.2826  1.9382  1.7001
18878TIP3   OH278124   6.140   5.953   4.726  0.1558 -0.8426 -0.2379
18878TIP3    H178125   6.176   5.927   4.810  0.6600  1.1202  0.1774
18878TIP3    H278126   6.216   5.955   4.667  0.5277  1.7334  0.2576
18879TIP3   OH278127   0.924   2.628   4.553 -0.1164  0.6953  0.3557
18879TIP3    H178128   0.898   2.595   4.468  0.8985  0.5565  0.0862
18879TIP3    H278129   0.875   2.710   4.564  0.5524  1.2668 -0.8327
18880TIP3   OH278130   1.031   4.508   4.730 -0.3030 -0.0447  0.6173
18880TIP3    H178131   1.074   4.592   4.711  0.5547 -0.4667  0.6336
18880TIP3    H278132   0.985   4.486   4.649  0.2668 -0.0135  0.2764
18881TIP3   OH278133   5.407   4.683  15.127  0.0524 -0.1198  0.1145
18881TIP3    H178134   5.380   4.765  15.085  1.7795  1.0722  1.3076
18881TIP3    H278135   5.449   4.710  15.208 -0.4653 -2.2666  1.1273
18882TIP3   OH278136   0.887   4.472  12.127 -0.2192 -0.0932 -0.4906
18882TIP3    H178137   0.940   4.471  12.047 -1.2226 -1.4721 -1.1583
18882TIP3    H278138   0.923   4.402  12.181  0.0925  0.4675  0.0488
18883TIP3   OH278139   5.583   5.107   1.553  0.2995 -0.4178  0.1282
18883TIP3    H178140   5.677   5.119   1.540  0.2826 -0.7057 -0.3062
18883TIP3    H278141   5.571   5.012   1.553 -0.1637 -0.3747 -1.1973
18884TIP3   OH278142   5.920   4.016  13.593  0.3131  0.1723  0.0005
18884TIP3    H178143   5.863   4.075  13.642 -2.0135 -3.2309  1.5523
18884TIP3    H278144   5.991   3.994  13.654  0.2837  0.0893  0.0046
18885TIP3   OH278145   0.490   5.421   3.037  0.0608 -0.2098 -0.1962
18885TIP3    H178146   0.407   5.444   3.078  0.9907 -1.3509  2.4000
18885TIP3    H278147   0.466   5.386   2.951 -2.0445  0.3752  0.1354
18886TIP3   OH278148   4.711   3.365   1.636 -0.7382  0.4057  0.1203
18886TIP3    H178149   4.704   3.436   1.700  1.1504  1.0108 -0.2916
18886TIP3    H278150   4.628   3.318   1.642 -1.7229  2.1977  0.9438
18887TIP3   OH278151   3.258   3.301  10.654 -0.4346 -0.5281 -0.0656
18887TIP3    H178152   3.196   3.233  10.626 -0.9486  0.4022 -1.2182
18887TIP3    H278153   3.231   3.322  10.743 -2.5469  0.6821 -0.9532
18888TIP3   OH278154   5.288   5.797  14.722 -0.0415 -0.2614  0.2645
18888TIP3    H178155   5.302   5.748  14.803 -0.5564 -0.1223  0.4397
18888TIP3    H278156   5.372   5.838  14.704  0.3641 -1.1306  0.1697
18889TIP3   OH278157   1.554   0.740  13.299 -0.0326  0.0328 -0.1346
18889TIP3    H178158   1.606   0.777  13.228  0.6875  0.4904  0.6200
18889TIP3    H278159   1.570   0.799  13.373 -0.3175 -0.7692  0.5662
18890TIP3   OH278160   6.626   1.484  16.692 -0.3716  0.9100 -0.2988
18890TIP3    H178161   6.665   1.505  16.777 -0.8703 -0.6604  0.3490
18890TIP3    H278162   6.626   1.388  16.689  1.4959  0.9350 -2.9598
18891TIP3   OH278163   3.117   3.408  13.337 -0.0864  0.9351 -0.6913
18891TIP3    H178164   3.105   3.318  13.305  0.2000  1.4239 -2.2563
18891TIP3    H278165   3.059   3.461  13.282  0.2680  1.7881 -0.2541
18892TIP3   OH278166   3.321   4.591  11.898  0.5267 -0.3558 -0.4331
18892TIP3    H178167   3.373   4.633  11.966  1.0700  0.0910 -1.1157
18892TIP3    H278168   3.369   4.608  11.817  0.3999 -1.7019 -0.8132
18893TIP3   OH278169   5.154   3.021   2.795  0.1634  0.1069  0.1749
18893TIP3    H178170   5.183   3.078   2.867 -0.4857  0.2330  0.3458
18893TIP3    H278171   5.082   3.070   2.755  0.6314  0.1088 -0.6678
18894TIP3   OH278172   2.401   3.632  15.299 -0.1908  0.1423  0.3029
18894TIP3    H178173   2.411   3.675  15.214 -0.4953 -0.3992 -0.0093
18894TIP3    H278174   2.490   3.628  15.334  0.2384 -1.4727 -0.8953
18895TIP3   OH278175   4.859   2.690  11.537 -0.3293 -0.3437 -0.2027
18895TIP3    H178176   4.935   2.671  11.484 -0.1600 -0.9888  0.2657
18895TIP3    H278177   4.807   2.750  11.484  1.0416  1.0013 -0.0608
18896TIP3   OH278178   1.796   3.947  13.169 -0.0679  0.3464 -1.0206
18896TIP3    H178179   1.768   4.001  13.095 -0.0655  2.0509  0.1830
18896TIP3    H278180   1.877   3.988  13.199  0.4214 -0.8863 -0.6310
18897TIP3   OH278181   2.565   3.229  11.260 -0.0941 -0.0346 -0.2852
18897TIP3    H178182   2.510   3.216  11.183  1.7533  0.5602 -1.7538
18897TIP3    H278183   2.654   3.210  11.229  0.5654 -0.8006  1.9682
18898TIP3   OH278184   3.821   2.390  10.642  0.0799  0.7371 -0.1588
18898TIP3    H178185   3.850   2.359  10.556 -0.4739  1.9738 -0.8010
18898TIP3    H278186   3.764   2.464  10.623 -0.2133  0.8940  1.2731
18899TIP3   OH278187   0.166   6.376  15.857  0.9881 -0.7199 -0.1309
18899TIP3    H178188   0.137   6.285  15.854  2.7454 -1.3374  1.0676
18899TIP3    H278189   0.208   6.385  15.943 -1.0506  1.8153  0.6592
18900TIP3   OH278190   4.808   1.282  13.989  0.2846 -0.5004 -0.1262
18900TIP3    H178191   4.893   1.326  13.982  0.5097 -0.9913 -0.5500
18900TIP3    H278192   4.744   1.353  13.988  0.6988 -0.1146  0.3645
18901TIP3   OH278193   4.129   6.427  14.955  0.0964 -0.1864  0.1598
18901TIP3    H178194   4.150   6.495  14.891  0.7723 -0.8856 -0.3683
18901TIP3    H278195   4.213   6.408  14.997 -0.2195 -0.2122  0.7839
18902TIP3   OH278196   2.718   6.708   4.342  0.0061  0.0434  0.7019
18902TIP3    H178197   2.677   6.648   4.279 -1.0658  0.7348  0.7291
18902TIP3    H278198   2.651   6.773   4.360  0.4470  0.0905  2.2564
18903TIP3   OH278199   5.230   5.583  16.598  0.2118  0.2493 -0.0254
18903TIP3    H178200   5.216   5.653  16.534  0.6674 -0.8830 -1.3912
18903TIP3    H278201   5.148   5.534  16.597 -0.3554  1.1218  1.4230
18904TIP3   OH278202   2.361   2.246  13.101  0.3929 -0.0747  0.7131
18904TIP3    H178203   2.398   2.186  13.036  0.0491  1.0148 -0.5063
18904TIP3    H278204   2.423   2.243  13.174  1.7814  0.1072 -0.4296
18905TIP3   OH278205   5.766   6.551   5.342 -0.4595 -0.0989  0.1987
18905TIP3    H178206   5.809   6.605   5.276  1.0271 -2.0636 -0.4817
18905TIP3    H278207   5.801   6.581   5.425 -0.3620  0.6267 -0.1041
18906TIP3   OH278208   1.337   2.516   0.699  0.4211  0.2191 -0.2998
18906TIP3    H178209   1.404   2.449   0.684 -0.2543 -0.4508 -0.3836
18906TIP3    H278210   1.382   2.584   0.748  0.8555 -0.7720  0.7111
18907TIP3   OH278211   1.430   1.191   0.379 -0.3002 -0.2716  0.2726
18907TIP3    H178212   1.471   1.143   0.308  1.8826  1.5758  0.2042
18907TIP3    H278213   1.365   1.247   0.337  1.7051  1.5877 -0.4702
18908TIP3   OH278214   2.597   0.570  13.027 -0.2085 -0.4898  0.3035
18908TIP3    H178215   2.641   0.642  13.072  0.3928  1.3353 -3.0349
18908TIP3    H278216   2.506   0.600  13.019 -0.6457 -1.4453  1.5277
18909TIP3   OH278217   1.067   3.704   3.018 -0.1136  0.1245  0.3015
18909TIP3    H178218   0.973   3.711   3.034 -0.2039 -0.1752 -0.0935
18909TIP3    H278219   1.102   3.667   3.099 -0.8038 -3.0816 -0.7586
18910TIP3   OH278220   3.377   2.282   4.112  0.5072  0.3088 -0.0081
18910TIP3    H178221   3.364   2.262   4.205 -0.6823  2.0356  0.2318
18910TIP3    H278222   3.469   2.304   4.105  1.2021 -2.3612  0.2436
18911TIP3   OH278223   4.625   5.241   5.641 -0.1545  0.1817 -0.4485
18911TIP3    H178224   4.718   5.222   5.630 -0.1526 -0.7611  1.0586
18911TIP3    H278225   4.580   5.165   5.604 -0.2883 -0.1076  0.3075
18912TIP3   OH278226   6.820   4.556  14.301  0.5280 -0.1913  0.1016
18912TIP3    H178227   6.864   4.487  14.351  1.9323  0.3508 -0.3526
18912TIP3    H278228   6.746   4.512  14.259  0.6760 -1.1416  0.8249
18913TIP3   OH278229   2.166   1.091   0.637  0.4673  0.6249 -0.1702
18913TIP3    H178230   2.183   1.090   0.543  0.0163  0.0388 -0.2440
18913TIP3    H278231   2.087   1.038   0.648  0.0990  1.3019  0.4572
18914TIP3   OH278232   2.817   6.091   4.983  0.1183  0.0597  0.4802
18914TIP3    H178233   2.812   6.136   4.898 -2.4036  1.5841  1.3954
18914TIP3    H278234   2.759   6.016   4.975  0.3582 -0.1484  0.6682
18915TIP3   OH278235   4.436   6.415  13.172 -0.3807 -0.4928 -0.5276
18915TIP3    H178236   4.511   6.378  13.218 -1.2676 -0.1412  1.2447
18915TIP3    H278237   4.394   6.340  13.130 -0.5880 -1.0860  0.7391
18916TIP3   OH278238   1.938   1.400   2.754  0.0038 -0.1939 -0.0594
18916TIP3    H178239   1.999   1.341   2.710  1.0326  1.0623 -0.3543
18916TIP3    H278240   1.971   1.487   2.734 -0.7045  0.4476  1.5099
18917TIP3   OH278241   3.722   4.411  14.331  0.3657  0.2138  0.2016
18917TIP3    H178242   3.761   4.498  14.323  0.9008 -0.1590 -1.4410
18917TIP3    H278243   3.786   4.361  14.383  0.5245  0.5274  0.3091
18918TIP3   OH278244   5.362   2.244  15.654  0.0625 -0.4917  0.6469
18918TIP3    H178245   5.399   2.278  15.573 -0.2220 -0.5003  0.5120
18918TIP3    H278246   5.360   2.319  15.713 -2.1206  0.1541 -0.1908
18919TIP3   OH278247   6.700   4.374  13.100 -0.9922 -0.1530 -0.4825
18919TIP3    H178248   6.688   4.442  13.166  1.8479 -0.2960  0.2487
18919TIP3    H278249   6.748   4.304  13.145  0.8178 -0.3520 -2.5675
18920TIP3   OH278250   1.015   0.360   4.269  0.1657  0.2604  0.0452
18920TIP3    H178251   0.946   0.400   4.322  0.7148  0.3433  0.7115
18920TIP3    H278252   0.987   0.269   4.258  0.5604 -0.0514  1.4032
18921TIP3   OH278253   2.474   1.825   1.248 -0.2693 -0.0711 -0.7909
18921TIP3    H178254   2.393   1.875   1.256 -0.7970 -1.1306  0.5386
18921TIP3    H278255   2.494   1.828   1.154 -1.0792  1.3819 -0.9298
18922TIP3   OH278256   4.967   1.673  14.619  0.1002  0.0652 -0.2533
18922TIP3    H178257   4.874   1.687  14.602  0.1639  1.3861  0.3554
18922TIP3    H278258   4.990   1.596  14.568 -0.9605  0.6670 -1.6666
18923TIP3   OH278259   3.444   3.803  12.688 -0.3709 -0.4132  0.6414
18923TIP3    H178260   3.407   3.747  12.756 -1.1057 -0.2297  0.3951
18923TIP3    H278261   3.375   3.809  12.622  0.5237 -1.0361 -0.3721
18924TIP3   OH278262   5.798   0.205   1.553 -0.2064 -0.5906 -0.3069
18924TIP3    H178263   5.733   0.195   1.623  0.0191 -0.9193 -0.1448
18924TIP3    H278264   5.762   0.153   1.481 -0.8694  0.4484 -0.7410
18925TIP3   OH278265   2.617   5.907   5.616 -0.5941  0.4096  0.5067
18925TIP3    H178266   2.552   5.973   5.593  0.5350  2.4906  3.0096
18925TIP3    H278267   2.602   5.889   5.709  2.0365  0.5467  0.9992
18926TIP3   OH278268   6.150   3.126  16.191 -0.0427  0.2451 -0.2370
18926TIP3    H178269   6.235   3.132  16.148 -0.2691 -0.3387 -0.7869
18926TIP3    H278270   6.167   3.149  16.282  1.3703 -3.1100  0.4562
18927TIP3   OH278271   5.960   0.439   5.848  0.0624  0.1749 -0.0873
18927TIP3    H178272   5.927   0.524   5.817 -0.3127  0.0529 -0.0211
18927TIP3    H278273   5.928   0.376   5.783  0.1668  0.0573 -0.0237
18928TIP3   OH278274   5.601   5.993   4.546 -0.0210  0.3819  0.1105
18928TIP3    H178275   5.671   5.976   4.484 -1.0157  0.1828 -0.9705
18928TIP3    H278276   5.585   5.910   4.589 -1.1930 -0.1703 -1.3332
18929TIP3   OH278277   6.383   1.689  14.007  0.4537 -0.0788  0.2998
18929TIP3    H178278   6.317   1.638  14.054 -0.3903 -0.0333 -0.8281
18929TIP3    H278279   6.459   1.631  14.000  0.1320 -0.5325  0.5777
18930TIP3   OH278280   3.062   5.068   4.478  0.0649 -0.3734  0.4853
18930TIP3    H178281   3.136   5.101   4.427 -0.4887  0.7085  0.3523
18930TIP3    H278282   3.089   5.076   4.569  0.3537 -0.5652  0.4153
18931TIP3   OH278283   4.253   5.572  11.218  0.0766  0.4189 -0.2291
18931TIP3    H178284   4.170   5.535  11.187  0.4820 -1.3613  0.7684
18931TIP3    H278285   4.282   5.628  11.146 -3.0363  2.7753  0.2553
18932TIP3   OH278286   1.439   5.074   0.200 -0.3377 -0.1915 -0.0421
18932TIP3    H178287   1.372   5.141   0.217  1.0875  1.1020  0.5813
18932TIP3    H278288   1.412   5.033   0.118 -0.9376  1.5226 -0.7095
18933TIP3   OH278289   0.865   5.713  14.796 -0.5728 -0.0733  0.1052
18933TIP3    H178290   0.782   5.701  14.750 -0.7599  0.7074  0.2284
18933TIP3    H278291   0.861   5.652  14.869 -0.9829 -0.1261  0.0406
18934TIP3   OH278292   3.189   0.020   5.843  0.1402 -0.0123  0.5476
18934TIP3    H178293   3.248   0.043   5.915  0.7186 -0.5716  0.2651
18934TIP3    H278294   3.231   0.059   5.766 -0.3157  0.3269  0.4735
18935TIP3   OH278295   1.213   2.337  13.912  0.0841 -0.4370  0.7834
18935TIP3    H178296   1.255   2.297  13.836  0.5077  1.9243 -0.2648
18935TIP3    H278297   1.129   2.368  13.880  0.5888  1.2727  1.0433
18936TIP3   OH278298   1.293   1.094   3.141  0.7137  0.2553 -0.5157
18936TIP3    H178299   1.266   1.141   3.062  0.1399 -0.2024 -0.6041
18936TIP3    H278300   1.235   1.128   3.210 -3.0087 -3.5683 -1.4902
18937TIP3   OH278301   1.788   3.122  10.905  0.3187  0.6454  0.0554
18937TIP3    H178302   1.712   3.177  10.885 -0.7824 -1.0090 -0.3584
18937TIP3    H278303   1.821   3.094  10.820  1.0065  0.8169  0.2587
18938TIP3   OH278304   5.491   2.796   5.124  0.5030  0.1234 -0.2821
18938TIP3    H178305   5.529   2.805   5.212 -0.3399 -0.3734  0.1387
18938TIP3    H278306   5.407   2.841   5.130  0.9807  1.1474 -1.1859
18939TIP3   OH278307   2.365   5.971   3.209  0.1198 -0.5295 -0.2294
18939TIP3    H178308   2.342   5.884   3.177  0.2152 -0.0484 -1.6611
18939TIP3    H278309   2.418   6.009   3.138  0.4677  0.5109  0.5800
18940TIP3   OH278310   0.620   3.290   0.299 -0.1220 -0.3375 -0.0277
18940TIP3    H178311   0.692   3.329   0.348 -0.3675 -0.4412  0.4188
18940TIP3    H278312   0.580   3.364   0.252 -0.2528 -0.1396  0.3917
18941TIP3   OH278313   3.292   4.506   1.401 -0.1960  0.5587 -0.7624
18941TIP3    H178314   3.225   4.568   1.431  0.9938  1.1436  0.7850
18941TIP3    H278315   3.267   4.485   1.311 -2.9121  0.1413  0.0334
18942TIP3   OH278316   0.838   2.446  14.305  0.1209  0.1907 -0.3856
18942TIP3    H178317   0.891   2.394  14.245 -0.7302  0.4818 -1.4137
18942TIP3    H278318   0.783   2.382  14.351  2.8684 -0.3362  2.2727
18943TIP3   OH278319   0.516   1.496   4.561 -0.6099 -0.1176  0.2247
18943TIP3    H178320   0.504   1.544   4.479 -0.2428  1.5018  1.0946
18943TIP3    H278321   0.457   1.539   4.623 -2.5552 -2.7300  0.2883
18944TIP3   OH278322   3.035   2.908  16.139  0.5962  0.0039 -0.0464
18944TIP3    H178323   3.070   2.960  16.067 -0.6032 -0.9152 -1.3197
18944TIP3    H278324   2.998   2.972  16.200 -1.1908  0.6696 -1.7683
18945TIP3   OH278325   5.479   2.604  10.232 -0.2905  0.4722  0.0192
18945TIP3    H178326   5.536   2.638  10.301  0.1375  0.1716 -0.1779
18945TIP3    H278327   5.478   2.509  10.247  0.1960  0.3492 -0.6717
18946TIP3   OH278328   0.532   2.694   5.205  0.0980  0.4381 -0.1792
18946TIP3    H178329   0.456   2.662   5.254  0.8212 -1.2481 -0.1017
18946TIP3    H278330   0.562   2.771   5.254  0.3344 -0.7563  1.6183
18947TIP3   OH278331   1.187   0.830   0.607  0.3959  0.4293  0.0367
18947TIP3    H178332   1.221   0.823   0.517 -0.8300  0.7119 -0.4590
18947TIP3    H278333   1.092   0.827   0.597  0.2412 -3.5248  1.6576
18948TIP3   OH278334   2.441   6.572  11.949 -0.0513 -0.1383 -0.7125
18948TIP3    H178335   2.363   6.530  11.912 -1.6221 -0.1487  2.4609
18948TIP3    H278336   2.424   6.666  11.939  0.2040 -0.1633 -1.3712
18949TIP3   OH278337   2.256   4.008   1.239 -0.5790 -0.1092 -0.7803
18949TIP3    H178338   2.169   4.029   1.205 -2.7940 -0.7631  4.1378
18949TIP3    H278339   2.257   3.912   1.246  0.7935 -0.1546 -1.4110
18950TIP3   OH278340   3.652   6.472  15.445  0.3305  0.6637  0.2946
18950TIP3    H178341   3.582   6.494  15.507  2.0772  0.4155  2.3954
18950TIP3    H278342   3.732   6.504  15.486  1.6155 -0.0752 -1.5532
18951TIP3   OH278343   3.465   1.514   1.830 -0.1966 -0.4850  0.3683
18951TIP3    H178344   3.378   1.483   1.853 -0.2755 -2.5752 -2.4787
18951TIP3    H278345   3.523   1.440   1.849  0.6200  0.0888  0.1324
18952TIP3   OH278346   1.125   0.086  13.998  0.2269  0.5076  0.3320
18952TIP3    H178347   1.090   0.156  14.053 -0.8983  0.1948  0.0402
18952TIP3    H278348   1.100   0.006  14.043 -0.7138  0.2497 -0.6337
18953TIP3   OH278349   6.411   5.117  10.810  0.4144  0.6639 -0.1393
18953TIP3    H178350   6.331   5.148  10.768 -0.2663 -0.0051  0.6345
18953TIP3    H278351   6.473   5.190  10.801  0.0292  0.8245 -1.5712
18954TIP3   OH278352   4.637   3.992  15.315 -0.6228 -0.1171  0.0445
18954TIP3    H178353   4.622   3.897  15.318 -2.0615  0.0905 -0.1430
18954TIP3    H278354   4.560   4.029  15.358  0.0211  0.9679  0.2733
18955TIP3   OH278355   0.720   0.209  12.867  0.5722  0.3010  0.4969
18955TIP3    H178356   0.640   0.247  12.903  0.3207 -0.5807  0.8952
18955TIP3    H278357   0.783   0.281  12.866 -0.2291  1.0051  0.1639
18956TIP3   OH278358   3.173   5.852  11.152 -0.2124 -0.6501 -0.1918
18956TIP3    H178359   3.253   5.831  11.201 -0.1551  0.0751  0.0249
18956TIP3    H278360   3.127   5.768  11.146 -0.3990 -0.6796  1.4347
18957TIP3   OH278361   3.094   5.717  14.459 -0.0516  0.2135  0.3124
18957TIP3    H178362   3.008   5.679  14.477 -0.5488  0.7022 -1.0015
18957TIP3    H278363   3.143   5.703  14.540 -1.2414 -0.3990  0.9480
18958TIP3   OH278364   4.386   2.416  14.330  0.1190 -0.4138  0.7103
18958TIP3    H178365   4.442   2.346  14.363  0.5500  0.3026  1.5250
18958TIP3    H278366   4.377   2.399  14.236  2.7596  0.2005  0.3192
18959TIP3   OH278367   1.655   3.412   4.658  0.5092  0.0392 -0.5934
18959TIP3    H178368   1.595   3.479   4.625  0.3566  0.3006  0.2089
18959TIP3    H278369   1.602   3.363   4.721  1.3803  0.7872  0.7375
18960TIP3   OH278370   3.505   6.585  10.877 -0.0175  0.0555 -0.1022
18960TIP3    H178371   3.542   6.606  10.791  0.8005  1.8973  0.6683
18960TIP3    H278372   3.546   6.648  10.937 -2.0228  0.0633  1.3068
18961TIP3   OH278373   6.698   2.310  15.839 -0.2988  0.1240  0.5189
18961TIP3    H178374   6.663   2.252  15.771  3.1761 -1.0892 -0.3102
18961TIP3    H278375   6.652   2.393  15.825 -2.2338 -1.1457 -0.9935
18962TIP3   OH278376   5.598   1.540   1.941 -0.2010 -0.4140 -0.1795
18962TIP3    H178377   5.535   1.588   1.995  0.8390 -0.2176  0.8709
18962TIP3    H278378   5.646   1.608   1.894 -0.0688 -0.5176 -0.1936
18963TIP3   OH278379   3.654   4.909  15.483 -0.9591 -0.6374 -0.3107
18963TIP3    H178380   3.708   4.845  15.529 -1.6277 -1.3319 -0.5000
18963TIP3    H278381   3.644   4.873  15.394  0.4638  0.7633 -1.0763
18964TIP3   OH278382   5.635   3.664  12.389  0.3168  0.3772  0.2528
18964TIP3    H178383   5.653   3.756  12.372  0.2220  0.6256  1.4778
18964TIP3    H278384   5.707   3.617  12.347 -0.7848  0.8572 -2.3009
18965TIP3   OH278385   0.628   4.305   3.985  0.0468 -0.1262  0.1198
18965TIP3    H178386   0.689   4.317   4.058  1.2546 -1.8586 -0.5613
18965TIP3    H278387   0.547   4.273   4.025  1.6668 -4.0434  0.4936
18966TIP3   OH278388   5.737   0.342  12.091 -0.2296  0.8216 -0.1073
18966TIP3    H178389   5.674   0.338  12.019  1.3790 -2.0908 -1.4270
18966TIP3    H278390   5.784   0.425  12.077 -0.7505  0.8672 -1.7223
18967TIP3   OH278391   0.990   1.115  16.594  0.0520  0.1008  0.3597
18967TIP3    H178392   0.927   1.187  16.592 -1.1888 -0.9483  1.3049
18967TIP3    H278393   0.993   1.084  16.504 -0.8848  0.0719  0.3335
18968TIP3   OH278394   5.769   4.754   6.165  0.5407  0.7451 -0.4336
18968TIP3    H178395   5.785   4.848   6.158  0.8773  0.7064 -0.1729
18968TIP3    H278396   5.692   4.738   6.109  0.4823  1.1730 -0.4730
18969TIP3   OH278397   5.722   5.007   4.809  0.4274 -0.0164  0.1144
18969TIP3    H178398   5.751   4.970   4.726 -0.9112  0.3919 -0.5497
18969TIP3    H278399   5.785   5.076   4.828  0.1825  0.5382 -1.0617
18970TIP3   OH278400   4.494   4.490   5.291 -0.0224 -0.4659  0.9589
18970TIP3    H178401   4.430   4.445   5.345  1.3832  0.4689  3.4833
18970TIP3    H278402   4.577   4.481   5.338  1.4688 -0.5581 -1.5955
18971TIP3   OH278403   3.948   4.133   0.308  0.5537 -0.1496  0.3429
18971TIP3    H178404   3.887   4.159   0.240  0.9117 -0.9026 -0.2823
18971TIP3    H278405   3.994   4.213   0.331  0.5398  0.0864 -0.4225
18972TIP3   OH278406   6.730   4.887  14.622  0.4098 -0.0488 -0.5263
18972TIP3    H178407   6.697   4.976  14.613  0.3788  0.2693  2.3159
18972TIP3    H278408   6.821   4.897  14.649  0.1881 -0.8513  0.5736
18973TIP3   OH278409   5.238   5.264   3.732  0.0521 -0.2099 -0.1885
18973TIP3    H178410   5.224   5.348   3.775 -1.7946 -0.7491  0.3453
18973TIP3    H278411   5.282   5.210   3.797 -0.7975 -0.3423  0.2945
18974TIP3   OH278412   6.208   1.016   2.472  0.3211 -0.0621  0.7017
18974TIP3    H178413   6.273   0.947   2.486  0.3094  0.2688  2.3989
18974TIP3    H278414   6.133   0.969   2.435  0.8852 -0.7022  0.3321
18975TIP3   OH278415   3.138   0.147  15.361 -0.1780 -0.0703  0.2971
18975TIP3    H178416   3.141   0.082  15.430 -1.0700 -0.5928 -0.1559
18975TIP3    H278417   3.198   0.114  15.294 -0.5710 -0.3896  0.1014
18976TIP3   OH278418   6.442   1.875  11.768 -0.1522  0.0436  0.0621
18976TIP3    H178419   6.435   1.925  11.849 -0.2765 -0.3394  0.2842
18976TIP3    H278420   6.513   1.812  11.784  0.4134  0.5468 -0.4265
18977TIP3   OH278421   3.246   1.125  14.918  0.1056  0.0358 -0.1855
18977TIP3    H178422   3.240   1.061  14.847  1.6098 -0.4113  0.0819
18977TIP3    H278423   3.238   1.210  14.874 -2.2888 -0.3110 -0.4981
18978TIP3   OH278424   2.922   3.013  15.092  0.2582 -0.1339 -0.4419
18978TIP3    H178425   2.902   3.106  15.089 -0.3111 -0.2249  0.2792
18978TIP3    H278426   2.868   2.979  15.163 -1.1807 -1.4099 -2.0886
18979TIP3   OH278427   0.071   0.861  12.023 -0.2782  0.5274  0.0299
18979TIP3    H178428   0.104   0.836  12.109 -0.2190  2.4695  0.5922
18979TIP3    H278429   0.027   0.782  11.990  2.0628 -1.1102  0.6481
18980TIP3   OH278430   4.737   2.880   0.127  0.0653 -0.0504  0.0248
18980TIP3    H178431   4.654   2.887   0.175  0.8998 -0.3283  1.5693
18980TIP3    H278432   4.742   2.787   0.102 -0.9421  0.3431 -1.6893
18981TIP3   OH278433   0.983   1.057   5.857 -0.0738  0.3983  0.0143
18981TIP3    H178434   1.038   1.136   5.859 -0.2496  0.5328 -0.5201
18981TIP3    H278435   0.926   1.066   5.933  1.8867 -0.6352  1.6641
18982TIP3   OH278436   1.392   3.497  13.834 -0.2391 -0.3716  0.0830
18982TIP3    H178437   1.470   3.553  13.828 -0.5095  0.1247  1.1904
18982TIP3    H278438   1.425   3.414  13.868 -0.0519 -0.4691 -0.3250
18983TIP3   OH278439   4.198   4.305  15.071  0.3179  0.2024  0.1752
18983TIP3    H178440   4.125   4.321  15.012 -0.0823  0.8763  0.8389
18983TIP3    H278441   4.273   4.292  15.013 -0.1539  0.4217 -0.4911
18984TIP3   OH278442   4.279   2.961   3.445  0.2421  0.5756 -0.2474
18984TIP3    H178443   4.360   2.968   3.394 -0.6666  4.4979 -1.2984
18984TIP3    H278444   4.212   2.944   3.379 -0.1848  0.0210  0.3254
18985TIP3   OH278445   3.103   2.952   5.475 -0.9419  0.0671 -0.7549
18985TIP3    H178446   3.115   2.928   5.567  2.9379  1.9859 -0.6393
18985TIP3    H278447   3.128   2.873   5.427 -1.9934 -0.6109 -0.2247
18986TIP3   OH278448   0.502   4.056  14.897  0.1380 -0.0515  0.5740
18986TIP3    H178449   0.540   4.140  14.871 -0.7013  0.1455 -0.0240
18986TIP3    H278450   0.513   4.000  14.820  1.3243 -0.7017  1.2154
18987TIP3   OH278451   0.872   5.184  13.955  0.6719 -0.2147  0.2403
18987TIP3    H178452   0.837   5.259  14.003  1.4004  0.7513 -0.6834
18987TIP3    H278453   0.818   5.110  13.981 -1.0281  0.9314  0.0417
18988TIP3   OH278454   3.047   1.612   3.894  0.4027  0.5026  0.1655
18988TIP3    H178455   3.138   1.586   3.904  0.0927 -0.7454 -0.2421
18988TIP3    H278456   3.012   1.556   3.825 -0.7085  0.8848  0.3909
18989TIP3   OH278457   1.521   0.493  16.600  0.5437 -0.2991  0.1313
18989TIP3    H178458   1.531   0.408  16.558 -2.1063  0.2263 -1.6838
18989TIP3    H278459   1.479   0.548  16.534 -1.3013  1.3237  2.5419
18990TIP3   OH278460   0.657   5.823  11.274  0.1414 -0.2501  0.3020
18990TIP3    H178461   0.633   5.915  11.265  0.1987 -0.2446  0.2041
18990TIP3    H278462   0.580   5.781  11.311  0.3961 -0.0148  1.1141
18991TIP3   OH278463   5.807   0.891   1.237 -0.2187  0.2745  0.6127
18991TIP3    H178464   5.869   0.855   1.175  0.1715 -1.1239  1.7919
18991TIP3    H278465   5.836   0.981   1.251  1.2005 -0.1970  0.7244
18992TIP3   OH278466   2.105   2.950  14.483 -0.6613  0.0779 -0.3166
18992TIP3    H178467   2.161   3.027  14.496 -2.2779  1.1263  0.5550
18992TIP3    H278468   2.022   2.985  14.451 -1.2212 -1.3637 -0.5027
18993TIP3   OH278469   5.863   3.563   1.956  1.4387  0.5203 -0.0353
18993TIP3    H178470   5.778   3.528   1.983  1.9646  1.1601  2.5333
18993TIP3    H278471   5.902   3.492   1.905 -0.5232  0.1321 -1.0677
18994TIP3   OH278472   5.745   4.969   0.678 -0.2264 -0.2319 -0.0948
18994TIP3    H178473   5.718   5.048   0.725  0.7260 -0.1356  0.2888
18994TIP3    H278474   5.663   4.922   0.664 -0.5938 -0.0190  1.2224
18995TIP3   OH278475   4.887   1.165  17.217  0.2933  0.7940  0.4354
18995TIP3    H178476   4.958   1.191  17.275  1.7918 -3.4752  0.7415
18995TIP3    H278477   4.926   1.098  17.160 -2.5624  0.9501 -1.8379
18996TIP3   OH278478   3.172   1.953  13.368  0.3831  0.0704  0.0966
18996TIP3    H178479   3.214   1.912  13.444 -0.0795  2.1047  1.4953
18996TIP3    H278480   3.081   1.922  13.371  0.1627  0.7965  0.8405
18997TIP3   OH278481   3.760   4.978   5.681  0.3129  0.5198 -0.0985
18997TIP3    H178482   3.808   4.895   5.686 -1.5221 -0.5866 -0.2982
18997TIP3    H278483   3.715   4.984   5.766 -0.0159  1.0360 -0.3107
18998TIP3   OH278484   3.954   0.852  16.266 -0.2344 -0.0433 -0.1464
18998TIP3    H178485   3.885   0.901  16.221  0.3261  0.6924 -0.2206
18998TIP3    H278486   3.926   0.849  16.358 -1.3366 -1.4720 -0.5042
18999TIP3   OH278487   1.544   0.595   5.851 -0.1212  0.2074 -0.3914
18999TIP3    H178488   1.521   0.539   5.925 -0.8712 -0.9425 -1.4787
18999TIP3    H278489   1.472   0.584   5.789  0.5523  1.0699 -1.3435
19000TIP3   OH278490   2.976   0.201  16.254 -0.0807  0.3268  0.5096
19000TIP3    H178491   2.916   0.157  16.194  1.1635 -1.0840  0.2474
19000TIP3    H278492   2.921   0.262  16.303 -1.4710  0.0336 -0.6538
19001TIP3   OH278493   5.341   6.242  12.070 -0.6268 -0.3588 -0.2166
19001TIP3    H178494   5.289   6.161  12.067 -0.6054 -0.3973  0.3791
19001TIP3    H278495   5.396   6.238  11.992 -2.2141  0.1626 -1.3769
19002TIP3   OH278496   0.184   1.842   2.024 -0.0340  0.3281  0.4609
19002TIP3    H178497   0.126   1.807   1.956  1.2029  1.2446 -1.0717
19002TIP3    H278498   0.177   1.777   2.095  1.1685 -2.3834 -1.7936
19003TIP3   OH278499   2.247   1.043  13.724 -0.0873 -0.7417  0.8348
19003TIP3    H178500   2.241   1.023  13.631 -0.8259  1.2664  0.4190
19003TIP3    H278501   2.335   1.077  13.736 -0.3576  0.0409  0.6390
19004TIP3   OH278502   3.622   2.930   3.117  0.1835 -0.2724  0.1817
19004TIP3    H178503   3.534   2.941   3.081 -0.3425 -1.5718  1.0365
19004TIP3    H278504   3.644   2.838   3.100  1.0157 -0.1862  0.7444
19005TIP3   OH278505   4.196   3.085   3.676 -0.5674 -0.5879  0.4156
19005TIP3    H178506   4.232   3.033   3.605 -0.5010  0.0222 -0.0062
19005TIP3    H278507   4.106   3.104   3.649 -0.4003  0.0297  0.2736
19006TIP3   OH278508   2.308   2.853  14.894  0.3565  0.7328  0.1097
19006TIP3    H178509   2.322   2.825  14.985 -0.7302  0.9125  0.3381
19006TIP3    H278510   2.249   2.787  14.858  1.2144  0.3651 -0.6338
19007TIP3   OH278511   2.592   5.601   5.735  0.4060 -1.0505  0.1014
19007TIP3    H178512   2.650   5.538   5.777 -1.4633 -1.1920  2.6107
19007TIP3    H278513   2.528   5.548   5.687 -0.4064 -1.0538  1.1690
19008TIP3   OH278514   2.263   2.733   4.360 -0.0145 -0.2814  0.8248
19008TIP3    H178515   2.324   2.669   4.323 -1.6330 -0.9245 -0.8123
19008TIP3    H278516   2.259   2.803   4.295 -1.5217 -0.5548  0.6117
19009TIP3   OH278517   5.942   2.765  15.421 -0.1224 -0.4593  0.1406
19009TIP3    H178518   5.948   2.730  15.510  1.0128 -0.9210 -0.1075
19009TIP3    H278519   6.028   2.802  15.404 -0.9792  1.4897 -0.0186
19010TIP3   OH278520   5.203   4.335   3.589  0.5284 -0.3384 -0.5339
19010TIP3    H178521   5.109   4.316   3.596  0.3717  1.1868  2.4849
19010TIP3    H278522   5.206   4.424   3.553  0.6688  0.8197  2.2285
19011TIP3   OH278523   1.075   5.352  16.388 -0.6347 -0.5721  0.9358
19011TIP3    H178524   1.029   5.433  16.411 -0.8532  0.0916 -1.6947
19011TIP3    H278525   1.092   5.310  16.472 -1.0327  1.9163  2.3225
19012TIP3   OH278526   2.763   4.197   0.965  0.1888 -0.9146 -0.2032
19012TIP3    H178527   2.750   4.133   0.895 -0.0270 -0.4034 -0.6329
19012TIP3    H278528   2.831   4.158   1.020 -0.7482 -2.0540  0.1822
19013TIP3   OH278529   6.684   6.749  12.972  0.1813  0.0243 -0.3560
19013TIP3    H178530   6.732   6.676  12.933  0.6734  1.1180 -1.8162
19013TIP3    H278531   6.596   6.741  12.935 -0.1789 -0.6847  0.6294
19014TIP3   OH278532   2.033   0.536   6.501 -0.2127 -0.0199 -0.6060
19014TIP3    H178533   2.081   0.585   6.435  0.6689  1.5452  1.1310
19014TIP3    H278534   1.944   0.571   6.498 -0.0981  0.2545 -0.7453
19015TIP3   OH278535   4.811   3.832   0.262 -0.4796  0.1038  0.1349
19015TIP3    H178536   4.766   3.749   0.276  1.5243 -1.2466 -1.3353
19015TIP3    H278537   4.838   3.859   0.350  0.2438 -1.5815  0.4368
19016TIP3   OH278538   6.354   5.621   5.752 -0.2020 -0.2945  0.0891
19016TIP3    H178539   6.305   5.555   5.800  0.5724  1.8870  4.0300
19016TIP3    H278540   6.287   5.680   5.717 -0.7268 -1.6181 -1.2346
19017TIP3   OH278541   2.714   3.439  16.459  0.2059 -0.1356 -0.1442
19017TIP3    H178542   2.739   3.363  16.510 -0.1272  0.2508  0.6023
19017TIP3    H278543   2.649   3.485  16.513  2.9612  2.5650  1.0080
19018TIP3   OH278544   1.926   3.723   2.254 -0.4597 -0.5196  0.4072
19018TIP3    H178545   1.858   3.687   2.197 -1.1222  0.1638  0.7539
19018TIP3    H278546   1.912   3.680   2.338 -1.4696  0.7746  0.9170
19019TIP3   OH278547   6.234   3.117   5.090  0.4700 -0.0978  0.2071
19019TIP3    H178548   6.243   3.137   4.997  1.9181  0.4130  0.4303
19019TIP3    H278549   6.149   3.153   5.115 -0.6413 -1.6308 -1.2530
19020TIP3   OH278550   0.279   0.665   2.388 -0.5162 -0.2005 -0.2405
19020TIP3    H178551   0.240   0.729   2.447  0.7485 -2.3165  2.9813
19020TIP3    H278552   0.211   0.599   2.375 -0.1030 -0.7829  0.5193
19021TIP3   OH278553   0.070   2.948   3.758  0.0408  0.1812 -0.3742
19021TIP3    H178554  -0.002   2.990   3.805 -0.8417 -0.5002 -1.1211
19021TIP3    H278555   0.028   2.899   3.688  1.1208 -1.4453  0.1015
19022TIP3   OH278556   4.184   4.477  10.927 -0.7162  0.0633 -0.4689
19022TIP3    H178557   4.205   4.505  11.016  0.2982  0.8496 -0.9566
19022TIP3    H278558   4.222   4.389  10.920 -3.7621 -1.4262  1.0071
19023TIP3   OH278559   3.689   6.122   1.513  0.0268  0.1372  0.1569
19023TIP3    H178560   3.626   6.072   1.461  1.1239  0.8492 -1.9258
19023TIP3    H278561   3.759   6.060   1.531 -0.2701 -0.0598  0.6408
19024TIP3   OH278562   3.180   5.242  10.978  0.0167  0.0205 -0.2399
19024TIP3    H178563   3.181   5.235  11.073 -2.3604 -0.2874 -0.2301
19024TIP3    H278564   3.102   5.194  10.950  2.3558 -2.6612 -2.5952
19025TIP3   OH278565   1.338   6.438  15.095 -0.0802  0.2474  0.0402
19025TIP3    H178566   1.318   6.371  15.161 -0.0014 -0.6690 -0.8597
19025TIP3    H278567   1.264   6.434  15.034 -0.4377  1.4914  0.3696
19026TIP3   OH278568   0.561   5.044  12.857  0.0962  0.0718  0.2902
19026TIP3    H178569   0.518   4.995  12.927 -0.3060 -0.7841 -0.5636
19026TIP3    H278570   0.625   4.984  12.820  0.3680  0.5527 -0.0344
19027TIP3   OH278571   2.228   6.100   6.503  0.2254 -0.4779  0.1599
19027TIP3    H178572   2.279   6.059   6.433  3.2581  2.4770  0.4976
19027TIP3    H278573   2.157   6.146   6.457 -1.5355 -3.6162 -0.4063
19028TIP3   OH278574   6.235   2.581  12.747  0.8214 -0.5331  0.6671
19028TIP3    H178575   6.244   2.537  12.831  0.7434 -0.7316  0.5722
19028TIP3    H278576   6.174   2.526  12.698  1.0285 -0.5272  0.4051
19029TIP3   OH278577   2.587   0.476  14.610 -0.3679  0.2165 -0.3480
19029TIP3    H178578   2.533   0.414  14.561  1.1276  0.4351 -2.2817
19029TIP3    H278579   2.670   0.431  14.624 -0.6197  0.3150  1.6531
19030TIP3   OH278580   3.541   0.126  14.166 -0.1313 -0.0551 -0.5989
19030TIP3    H178581   3.534   0.040  14.208  0.8780 -0.7302 -1.7787
19030TIP3    H278582   3.452   0.162  14.168 -0.5339 -1.0811 -0.0116
19031TIP3   OH278583   6.583   3.507  14.921 -0.3132  0.0732  0.1995
19031TIP3    H178584   6.616   3.437  14.865  0.1969 -1.3758  2.2721
19031TIP3    H278585   6.548   3.572  14.860 -0.2120 -1.6791 -1.7709
19032TIP3   OH278586   2.090   4.435   0.285 -0.2634  0.0920 -0.4688
19032TIP3    H178587   2.142   4.515   0.293  1.0868 -0.6440 -1.6485
19032TIP3    H278588   2.104   4.389   0.368  3.1895 -1.3712 -1.7799
19033TIP3   OH278589   4.170   3.184  16.349 -0.3874 -0.1677 -0.7396
19033TIP3    H178590   4.150   3.248  16.417 -0.4214  2.0128 -2.7456
19033TIP3    H278591   4.085   3.147  16.325 -0.3870 -0.8712  0.3033
19034TIP3   OH278592   5.879   6.501   2.569 -0.2807 -0.2727 -0.1431
19034TIP3    H178593   5.848   6.455   2.647  1.1452 -1.1405 -0.0701
19034TIP3    H278594   5.957   6.453   2.542 -0.4369  0.3606 -1.7850
19035TIP3   OH278595   4.819   0.368   0.417 -0.0224 -0.1861  0.3959
19035TIP3    H178596   4.778   0.390   0.333 -0.2398  0.3850  0.6494
19035TIP3    H278597   4.795   0.276   0.432 -3.1582  0.7802  1.6632
19036TIP3   OH278598   2.275   4.313  14.685 -0.1170 -0.0375 -0.2152
19036TIP3    H178599   2.237   4.393  14.721 -1.5670 -0.5584 -0.5579
19036TIP3    H278600   2.235   4.304  14.598  0.3423 -0.9159 -0.3460
19037TIP3   OH278601   4.172   6.389   6.556 -0.1393 -0.3300  0.2602
19037TIP3    H178602   4.113   6.348   6.492 -0.1098 -0.0471  0.0509
19037TIP3    H278603   4.160   6.338   6.636 -0.3063 -0.5771  0.0775
19038TIP3   OH278604   2.931   1.538  15.407  0.2988  0.2139 -0.5639
19038TIP3    H178605   2.916   1.606  15.472  2.3347 -0.3015  0.4863
19038TIP3    H278606   2.977   1.581  15.335 -2.6266  0.9540 -2.0714
19039TIP3   OH278607   0.672   4.159  13.620  0.1745  0.6356 -0.2062
19039TIP3    H178608   0.614   4.194  13.552  0.7234  1.6747 -0.1607
19039TIP3    H278609   0.696   4.072  13.589 -1.7050  0.0545 -0.0390
19040TIP3   OH278610   4.085   0.464  16.554  0.2908 -0.2087  0.3560
19040TIP3    H178611   3.994   0.449  16.580  0.4603  0.2175  1.1960
19040TIP3    H278612   4.078   0.512  16.471 -0.2627 -3.3014 -1.4890
19041TIP3   OH278613   5.930   5.376  12.162 -0.1754  0.5126 -0.2502
19041TIP3    H178614   5.877   5.454  12.181 -0.7762  0.0679 -0.1094
19041TIP3    H278615   5.959   5.389  12.072 -0.5953  0.7095 -0.3569
19042TIP3   OH278616   4.457   1.868  16.442  0.4347  0.1444  0.1083
19042TIP3    H178617   4.521   1.821  16.495  0.3419 -0.2295 -0.1119
19042TIP3    H278618   4.372   1.842  16.477  0.4026  0.6719  0.4255
19043TIP3   OH278619   2.204   5.663  13.545 -0.3256  0.4741 -0.2228
19043TIP3    H178620   2.216   5.637  13.453  0.8346  0.8155 -0.1671
19043TIP3    H278621   2.292   5.665  13.581 -0.7289  0.9681  0.7380
19044TIP3   OH278622   4.918   3.232   4.306 -0.4688  0.2048  0.3602
19044TIP3    H178623   4.878   3.297   4.249 -2.4758 -1.1024  0.2294
19044TIP3    H278624   4.949   3.163   4.247 -0.0924  0.1165  0.6505
19045TIP3   OH278625   6.449   0.516  11.928 -0.1879 -0.1005  0.8861
19045TIP3    H178626   6.409   0.461  11.861  1.5356 -1.0437  0.5816
19045TIP3    H278627   6.386   0.586  11.944 -2.3506 -2.0633  1.1353
19046TIP3   OH278628   6.331   2.521  15.607 -0.8911 -0.2154  0.3220
19046TIP3    H178629   6.375   2.447  15.567 -4.0709 -1.2106 -1.4077
19046TIP3    H278630   6.268   2.551  15.542 -0.3654  3.4387  1.3468
19047TIP3   OH278631   3.998   4.732   5.028 -0.1460  0.0264  0.0240
19047TIP3    H178632   4.080   4.770   5.061 -0.5130  1.3961 -0.5923
19047TIP3    H278633   3.929   4.780   5.073 -0.6229  0.5097 -1.2033
19048TIP3   OH278634   2.890   3.758  17.081 -0.5747 -0.1164  0.8571
19048TIP3    H178635   2.814   3.713  17.045 -0.8361  0.0253  1.2247
19048TIP3    H278636   2.901   3.835  17.026 -1.7676  0.7956  1.8628
19049TIP3   OH278637   5.085   4.540  16.260  0.1789  0.0623  0.5284
19049TIP3    H178638   5.060   4.592  16.183  0.5154 -0.1307  0.2851
19049TIP3    H278639   5.006   4.491  16.282  0.1546 -0.0700  0.1518
19050TIP3   OH278640   4.365   5.373  16.204  0.0095 -0.1226  0.3510
19050TIP3    H178641   4.441   5.316  16.193  0.9725  1.2027  0.0410
19050TIP3    H278642   4.292   5.321  16.172  1.1874 -0.3529 -2.0507
19051TIP3   OH278643   3.406   4.830   0.046  0.3021  0.0270  0.0886
19051TIP3    H178644   3.435   4.916   0.014 -0.9270  0.8914  1.2413
19051TIP3    H278645   3.483   4.795   0.091  1.1952 -0.0250 -1.4496
19052TIP3   OH278646   1.644   6.135  13.128  0.8878  0.3729  0.0403
19052TIP3    H178647   1.614   6.044  13.126 -0.1473  0.6398  2.2821
19052TIP3    H278648   1.673   6.152  13.038 -0.4005 -1.6746 -0.8061
19053TIP3   OH278649   3.784   4.436   0.783  0.0467 -0.3485  0.1112
19053TIP3    H178650   3.695   4.442   0.819 -0.2948 -1.3343 -0.5350
19053TIP3    H278651   3.785   4.353   0.736  1.0817  0.0102 -0.5219
19054TIP3   OH278652   5.300   5.794  12.171 -0.2127  0.0558 -0.1001
19054TIP3    H178653   5.258   5.761  12.250 -0.4825 -0.0521 -0.2865
19054TIP3    H278654   5.290   5.723  12.107  0.2085  0.0489 -0.1603
19055TIP3   OH278655   1.521   0.116   4.173 -0.2206 -0.0448  1.0006
19055TIP3    H178656   1.543   0.161   4.254  0.2396 -0.7046  1.2416
19055TIP3    H278657   1.538   0.181   4.105  1.6461 -0.2501  1.2555
19056TIP3   OH278658   5.323   5.387   4.243  0.1979 -0.2354  0.2136
19056TIP3    H178659   5.338   5.323   4.174  3.1300 -0.0689  0.6177
19056TIP3    H278660   5.369   5.466   4.214 -0.0035  0.3934  1.5442
19057TIP3   OH278661   5.900   4.170  14.653 -0.1240 -0.4355  0.1724
19057TIP3    H178662   5.971   4.177  14.716  0.3867 -0.6461 -0.3782
19057TIP3    H278663   5.941   4.136  14.574 -0.7647 -0.2039 -0.2661
19058TIP3   OH278664   4.333   2.398   1.197  0.4151  0.8509  0.4193
19058TIP3    H178665   4.265   2.346   1.238 -0.3099  0.7752 -0.8510
19058TIP3    H278666   4.347   2.471   1.257 -0.8529  0.9132  0.6517
19059TIP3   OH278667   1.785   3.803  11.339 -0.1129  0.3980 -0.0367
19059TIP3    H178668   1.733   3.724  11.355  0.3283  0.4899  1.9559
19059TIP3    H278669   1.739   3.872  11.387 -0.0540  1.1939 -1.1166
19060TIP3   OH278670   5.726   4.750   1.461  0.2318  0.1167 -0.6207
19060TIP3    H178671   5.706   4.774   1.551 -0.5637  0.6100 -0.9221
19060TIP3    H278672   5.813   4.786   1.445 -0.7494  2.4676 -0.9197
19061TIP3   OH278673   1.022   5.630  11.878 -0.3854 -0.1270  0.3528
19061TIP3    H178674   1.111   5.661  11.892 -0.4715 -0.2068  1.0840
19061TIP3    H278675   0.975   5.654  11.958 -1.3881  1.1982 -0.6178
19062TIP3   OH278676   2.940   1.949  15.926  0.2567 -0.2789 -0.8127
19062TIP3    H178677   2.855   1.910  15.908 -0.9597  2.5205 -1.4532
19062TIP3    H278678   2.977   1.894  15.995 -1.8124 -1.8764 -0.9104
19063TIP3   OH278679   2.529   1.623  16.440 -0.0431  0.1693 -0.2754
19063TIP3    H178680   2.438   1.602  16.421  0.0180 -0.0075 -0.3790
19063TIP3    H278681   2.527   1.670  16.523 -0.3163  0.9668 -0.7336
19064TIP3   OH278682   2.684   2.895   2.359  0.2375  0.8871  0.1141
19064TIP3    H178683   2.765   2.928   2.320 -1.1425  1.2143 -2.6452
19064TIP3    H278684   2.639   2.852   2.286 -1.1032 -1.1449  2.0923
19065TIP3   OH278685   6.092   4.048  14.310 -0.1649 -0.0042 -0.2546
19065TIP3    H178686   6.152   4.021  14.240  0.1955  0.0784  0.0240
19065TIP3    H278687   6.106   4.142  14.318  0.2043 -0.1102  0.3226
19066TIP3   OH278688   1.948   4.381  16.999  0.0242 -0.1893 -0.4259
19066TIP3    H178689   1.958   4.411  17.090  0.7270  0.0769 -0.5926
19066TIP3    H278690   1.894   4.302  17.006 -0.0468 -0.0887  0.2069
19067TIP3   OH278691   4.127   0.465  15.960  0.0335 -0.0546 -0.2420
19067TIP3    H178692   4.148   0.488  15.869 -3.0780 -0.0253 -1.0130
19067TIP3    H278693   4.082   0.381  15.953  2.3384 -1.5203  1.6059
19068TIP3   OH278694   6.171   6.239  15.284 -0.5827  0.0356 -0.0785
19068TIP3    H178695   6.142   6.330  15.276  0.7211  0.3300 -1.6556
19068TIP3    H278696   6.110   6.200  15.348 -1.3944  1.8932  0.3126
19069TIP3   OH278697   0.526   5.772  15.798 -0.1263 -0.2950 -0.3653
19069TIP3    H178698   0.457   5.708  15.779  1.0800 -1.4572 -0.8643
19069TIP3    H278699   0.504   5.805  15.885 -1.3000 -0.6666 -0.5063
19070TIP3   OH278700   0.737   2.366   5.453 -0.1252 -0.3033  0.4164
19070TIP3    H178701   0.663   2.397   5.504  0.1013  0.6859  0.1606
19070TIP3    H278702   0.804   2.346   5.518  0.7893  2.6268  0.4705
19071TIP3   OH278703   3.744   2.330  16.714  0.2079 -0.5072 -0.0548
19071TIP3    H178704   3.768   2.315  16.805 -0.2652  1.4132  0.3985
19071TIP3    H278705   3.826   2.321  16.665  0.4541 -1.5789  0.5264
19072TIP3   OH278706   1.423   1.619   5.539  0.3713  0.7404 -0.5732
19072TIP3    H178707   1.385   1.546   5.589  1.3530  0.2161 -0.5741
19072TIP3    H278708   1.347   1.663   5.499 -0.2503 -0.1639 -0.4107
19073TIP3   OH278709   3.054   4.936  11.772 -0.2606 -0.2797  0.2962
19073TIP3    H178710   2.965   4.902  11.766  0.0113 -0.8436 -0.6134
19073TIP3    H278711   3.077   4.958  11.681  0.8756 -1.0207  0.4058
19074TIP3   OH278712   0.988   1.039  16.318 -0.5329  0.0517  0.2091
19074TIP3    H178713   0.933   0.971  16.280  0.0703 -1.4752  1.9964
19074TIP3    H278714   1.020   1.089  16.242  0.6739 -2.9116 -1.3178
19075TIP3   OH278715   5.410   1.120  14.553  0.4528  0.0280 -0.1262
19075TIP3    H178716   5.399   1.039  14.505  0.2342 -0.1550  0.2277
19075TIP3    H278717   5.476   1.101  14.619  1.7210  0.6557 -1.1843
19076TIP3   OH278718   4.434   1.559   0.929 -0.1869  0.1402  0.6071
19076TIP3    H178719   4.464   1.591   1.014 -0.3897  0.1113  0.6891
19076TIP3    H278720   4.451   1.632   0.869 -1.1529  0.6103  0.8961
19077TIP3   OH278721   2.583   2.728   2.156 -0.7632  0.4529  0.2445
19077TIP3    H178722   2.641   2.655   2.174 -1.3936  0.3322  1.9105
19077TIP3    H278723   2.536   2.702   2.077 -0.4862 -0.6394  0.4278
19078TIP3   OH278724   2.282   0.019  16.776  0.1047 -0.0106 -0.2536
19078TIP3    H178725   2.195  -0.016  16.761  0.6061 -0.7759 -1.5041
19078TIP3    H278726   2.282   0.104  16.732 -0.1260  0.1539  0.0674
19079TIP3   OH278727   2.799   0.642   3.352  0.2868 -0.3504  0.0319
19079TIP3    H178728   2.790   0.711   3.418 -1.0751  0.4490 -0.9522
19079TIP3    H278729   2.710   0.629   3.320  0.9681 -0.5422 -1.8164
19080TIP3   OH278730   4.725   1.546  13.935 -0.5998  0.3315 -0.1514
19080TIP3    H178731   4.743   1.586  13.850 -1.3620 -1.0687 -0.9883
19080TIP3    H278732   4.805   1.561  13.985  0.3471  0.0585 -1.5414
19081TIP3   OH278733   5.840   2.982   0.460 -0.4470  0.6131  0.0335
19081TIP3    H178734   5.842   2.909   0.397 -0.5847  1.4072 -0.9116
19081TIP3    H278735   5.890   3.052   0.418 -1.8563  1.6966  0.1070
19082TIP3   OH278736   2.699   3.015   2.854 -0.5672 -0.3611 -0.9255
19082TIP3    H178737   2.672   3.102   2.885  0.2150 -0.4327 -0.0216
19082TIP3    H278738   2.775   3.031   2.799  1.0959 -0.6581  1.1990
19083TIP3   OH278739   5.557   0.242   2.574 -0.4070 -0.1318  0.1399
19083TIP3    H178740   5.552   0.233   2.669 -0.1225  0.7657  0.2509
19083TIP3    H278741   5.478   0.291   2.550  0.6659  1.6910  0.2102
19084TIP3   OH278742   1.434   3.231   3.461  0.3005  0.7322  0.1367
19084TIP3    H178743   1.496   3.168   3.424 -0.1383  1.7512 -2.4690
19084TIP3    H278744   1.480   3.315   3.457 -0.3388  1.0992  0.4858
19085TIP3   OH278745   1.078   0.579  14.516  0.3051 -0.1384 -0.4332
19085TIP3    H178746   1.159   0.530  14.500  1.4731  1.4719  0.3967
19085TIP3    H278747   1.032   0.528  14.583  0.7372 -0.9441 -0.7393
19086TIP3   OH278748   6.723   1.403   3.171  0.1498 -0.7406  0.7197
19086TIP3    H178749   6.631   1.388   3.149  0.7315 -2.2887 -0.6860
19086TIP3    H278750   6.745   1.332   3.232  1.0229 -1.6581 -0.6561
19087TIP3   OH278751   4.504   0.786   3.490  0.2280  0.2348  0.0859
19087TIP3    H178752   4.426   0.757   3.536  0.4317 -0.7674 -0.2031
19087TIP3    H278753   4.498   0.747   3.403  0.5519  0.9748 -0.2785
19088TIP3   OH278754   5.178   2.659   4.854 -0.5030  0.2784  0.0176
19088TIP3    H178755   5.240   2.733   4.859 -0.8575  0.4709  2.2582
19088TIP3    H278756   5.233   2.584   4.833  0.2086  0.7879  0.0129
19089TIP3   OH278757   2.223   4.141  14.447 -0.8554 -0.1832  0.0876
19089TIP3    H178758   2.191   4.058  14.483 -0.1376  0.5410  2.5079
19089TIP3    H278759   2.315   4.125  14.428 -0.8396 -0.1076  0.1012
19090TIP3   OH278760   1.920   1.146   3.491  0.2056 -0.0985  0.2070
19090TIP3    H178761   1.971   1.085   3.437  0.2687  0.3925 -0.2989
19090TIP3    H278762   1.986   1.202   3.532  0.1254 -0.1184  0.3647
19091TIP3   OH278763   5.427   2.294  11.992  0.2397  0.1803  0.8261
19091TIP3    H178764   5.364   2.319  12.059 -0.8796 -2.4188  0.7795
19091TIP3    H278765   5.378   2.301  11.909  0.1095 -1.4094  0.7504
19092TIP3   OH278766   2.378   5.422  15.584  0.1030 -0.5153 -0.1059
19092TIP3    H178767   2.394   5.340  15.631  1.4532 -0.8850 -1.1732
19092TIP3    H278768   2.286   5.417  15.559  0.0718 -1.5298  0.1759
19093TIP3   OH278769   6.053   4.758  14.391 -0.5893  0.8930  0.0821
19093TIP3    H178770   6.136   4.766  14.438 -0.3254 -2.7196  0.3380
19093TIP3    H278771   6.020   4.848  14.386  1.5054  1.9418  3.2748
19094TIP3   OH278772   3.448   0.458   2.899 -0.0680  0.6060  0.0874
19094TIP3    H178773   3.539   0.429   2.892 -0.4537 -0.9778  1.4103
19094TIP3    H278774   3.449   0.523   2.969  0.0607  0.6550  0.0408
19095TIP3   OH278775   0.160   1.814  13.952  0.4383  0.0496 -0.0060
19095TIP3    H178776   0.150   1.907  13.933 -1.4190 -0.2884 -0.8108
19095TIP3    H278777   0.144   1.806  14.046 -0.9737  0.3554 -0.2069
19096TIP3   OH278778   2.807   2.109  14.196  0.6203 -0.2424  0.7705
19096TIP3    H178779   2.743   2.068  14.255  1.8551 -0.5672  1.9202
19096TIP3    H278780   2.892   2.091  14.237  1.5462 -0.9089 -1.4028
19097TIP3   OH278781   4.176   4.702  10.273 -0.5144  0.1902 -0.1575
19097TIP3    H178782   4.086   4.670  10.276 -0.2722 -0.6873 -1.7578
19097TIP3    H278783   4.172   4.782  10.220 -0.7463  1.6091  1.9310
19098TIP3   OH278784   4.630   3.557  11.471 -0.1280  0.1403 -0.4891
19098TIP3    H178785   4.678   3.563  11.388 -0.8741 -0.1001 -0.9463
19098TIP3    H278786   4.698   3.546  11.537  0.4645  0.0825 -1.0990
19099TIP3   OH278787   0.725   4.993  14.709  0.2525  0.2583 -0.1743
19099TIP3    H178788   0.760   5.082  14.713  0.3775  0.2583 -1.1622
19099TIP3    H278789   0.676   4.990  14.627 -1.0195 -0.1279  0.5802
19100TIP3   OH278790   1.241   1.108   1.486 -0.1122 -0.4682  0.0991
19100TIP3    H178791   1.179   1.075   1.421  0.0281 -2.5321  0.9469
19100TIP3    H278792   1.227   1.202   1.487 -0.9656 -0.5300 -2.0355
19101TIP3   OH278793   4.070   3.350   2.480 -0.0205  0.4332  0.4569
19101TIP3    H178794   4.142   3.410   2.459  0.1876 -0.2083 -0.7417
19101TIP3    H278795   4.072   3.342   2.575 -0.1086  2.3942  0.6544
19102TIP3   OH278796   5.407   3.840  14.176 -0.4838  0.1787  0.5114
19102TIP3    H178797   5.321   3.860  14.139  0.5664 -0.3348 -2.3669
19102TIP3    H278798   5.467   3.897  14.128  1.4926 -3.5814 -1.7299
19103TIP3   OH278799   2.363   2.503   0.124  0.3831  0.0852  0.0510
19103TIP3    H178800   2.267   2.505   0.125  0.3692 -0.6695  0.8313
19103TIP3    H278801   2.387   2.551   0.045 -0.6672 -0.5001 -0.6364
19104TIP3   OH278802   4.358   1.638   3.213  0.5415  0.0638 -0.8275
19104TIP3    H178803   4.287   1.599   3.163  1.0447 -0.8999 -0.8093
19104TIP3    H278804   4.326   1.640   3.303 -0.5636  2.2685 -1.2352
19105TIP3   OH278805   6.447   4.127  11.663 -0.0902  0.0403 -0.5412
19105TIP3    H178806   6.525   4.182  11.666  1.3468 -1.9807  0.8395
19105TIP3    H278807   6.424   4.124  11.570  0.6509  1.7748 -0.8005
19106TIP3   OH278808   5.833   3.149  14.873  0.4602 -0.0571  0.6354
19106TIP3    H178809   5.765   3.082  14.882  1.9529 -1.3962  2.4969
19106TIP3    H278810   5.793   3.230  14.904 -1.1495 -0.2312 -0.9564
19107TIP3   OH278811   0.757   6.036  12.504  0.3714 -0.2694  0.3932
19107TIP3    H178812   0.824   5.990  12.556 -0.3626 -0.5671  1.0807
19107TIP3    H278813   0.803   6.061  12.423  1.1024 -1.1763  0.5148
19108TIP3   OH278814   2.639   5.437   4.574 -0.1288 -0.2767  0.1733
19108TIP3    H178815   2.704   5.498   4.540 -0.0177 -0.1673  0.5740
19108TIP3    H278816   2.556   5.485   4.572 -0.4402 -0.8561 -1.5597
19109TIP3   OH278817   6.670   2.489  17.048  0.2481  0.2840  0.2699
19109TIP3    H178818   6.677   2.394  17.040  1.2239  0.1500  2.4723
19109TIP3    H278819   6.723   2.523  16.975  1.0053 -0.8477  0.2835
19110TIP3   OH278820   1.698   6.498  14.683 -0.3619 -0.1885  0.1824
19110TIP3    H178821   1.666   6.485  14.773 -0.5857 -1.5012 -0.0790
19110TIP3    H278822   1.672   6.418  14.637  1.7781 -0.5063 -0.4831
19111TIP3   OH278823   1.924   1.464  16.509 -0.4594  0.3245  0.5488
19111TIP3    H178824   1.953   1.455  16.418 -0.4993 -1.2032  0.6825
19111TIP3    H278825   1.841   1.513  16.503 -1.2302 -1.0649 -0.3711
19112TIP3   OH278826   1.968   4.761  17.132  0.5025  0.2905 -0.3614
19112TIP3    H178827   1.956   4.676  17.175  0.4837  0.4645 -0.0301
19112TIP3    H278828   1.881   4.799  17.129  0.5593  0.4264 -0.2548
19113TIP3   OH278829   5.079   3.778   4.967 -0.0525 -0.5967 -0.3068
19113TIP3    H178830   4.986   3.781   4.942 -0.3403  0.1755  0.7851
19113TIP3    H278831   5.123   3.830   4.900 -0.5901  0.1107 -0.1187
19114TIP3   OH278832   2.744   6.644   1.973 -0.0193  0.3152  0.2042
19114TIP3    H178833   2.730   6.613   1.883  1.8947  0.0617 -0.0414
19114TIP3    H278834   2.699   6.729   1.976 -0.8976 -0.1048 -0.6993
19115TIP3   OH278835   1.340   0.509  11.614  0.4299  0.1206 -0.1477
19115TIP3    H178836   1.390   0.563  11.553  1.3674 -1.3725 -0.7329
19115TIP3    H278837   1.301   0.441  11.558 -1.6881  0.8668  0.4009
19116TIP3   OH278838   1.982   2.380   5.391 -0.6504  0.5763 -0.0636
19116TIP3    H178839   2.025   2.410   5.471 -0.0463 -0.9595  0.1977
19116TIP3    H278840   2.009   2.443   5.324  1.4294  0.0411  0.2464
19117TIP3   OH278841   5.209   3.071   1.106  0.2135  0.4202 -0.3682
19117TIP3    H178842   5.190   3.115   1.023  0.3199  1.7681  0.3126
19117TIP3    H278843   5.168   3.126   1.172  0.6184 -0.3494  0.5351
19118TIP3   OH278844   5.551   3.110  16.108  0.1210 -0.2322 -0.3246
19118TIP3    H178845   5.589   3.072  16.029  2.0674 -0.8680  0.8598
19118TIP3    H278846   5.563   3.042  16.175 -0.8160  0.5678  0.6780
19119TIP3   OH278847   1.571   1.869  13.486  0.1133 -0.1649  0.3819
19119TIP3    H178848   1.662   1.841  13.476 -0.0104 -0.7249  0.7672
19119TIP3    H278849   1.568   1.956  13.448  0.5907 -0.5430 -0.5438
19120TIP3   OH278850   3.044   3.958  14.423  0.0361  0.4468 -0.3138
19120TIP3    H178851   2.998   4.037  14.452 -2.2256 -0.4775 -1.3146
19120TIP3    H278852   3.115   3.990  14.368 -1.0415  1.7591 -0.9469
19121TIP3   OH278853   2.084   0.734   4.766  0.3556 -0.3638  0.2638
19121TIP3    H178854   2.042   0.811   4.726 -1.0297 -1.2271  0.0134
19121TIP3    H278855   2.129   0.768   4.843  1.9847  1.1300 -1.2845
19122TIP3   OH278856   0.256   1.591   1.601 -0.2468  0.1433 -0.2375
19122TIP3    H178857   0.187   1.547   1.552 -1.5461 -1.1148  2.5735
19122TIP3    H278858   0.336   1.546   1.576 -1.2619 -2.3408  0.8266
19123TIP3   OH278859   1.949   5.990   2.621 -0.3641 -0.0967 -0.2358
19123TIP3    H178860   2.000   5.932   2.565 -1.0395 -1.4680  0.5433
19123TIP3    H278861   1.933   6.067   2.567  1.5593 -0.1177 -0.8814
19124TIP3   OH278862   2.136   5.414  10.771 -0.1463 -0.1034 -0.5249
19124TIP3    H178863   2.079   5.468  10.826  1.5505  0.4677  0.7122
19124TIP3    H278864   2.086   5.403  10.690 -1.5424  1.3280  0.0940
19125TIP3   OH278865   2.472   1.244   3.188  0.0719  0.4301 -0.0842
19125TIP3    H178866   2.392   1.214   3.231  0.7217  1.5945  1.9544
19125TIP3    H278867   2.461   1.215   3.097 -2.3112 -0.1019  0.3229
19126TIP3   OH278868   4.211   6.254   5.718  0.3067 -0.5967 -0.3713
19126TIP3    H178869   4.256   6.222   5.796 -1.4998  1.8320  1.7575
19126TIP3    H278870   4.275   6.309   5.674  0.4609  0.3149  0.9615
19127TIP3   OH278871   6.293   0.504  12.704  0.2636  0.1057  0.1356
19127TIP3    H178872   6.351   0.574  12.674 -0.7571  1.2097  0.7133
19127TIP3    H278873   6.213   0.515  12.653  0.3281 -1.0610 -0.2441
19128TIP3   OH278874   1.584   6.354  11.579 -0.0324 -0.3478  0.7849
19128TIP3    H178875   1.662   6.385  11.533 -0.5374 -1.3960 -0.7957
19128TIP3    H278876   1.513   6.362  11.515 -0.6976 -2.0842  1.2701
19129TIP3   OH278877   0.804   3.104   5.636  0.1258  0.3200 -0.1874
19129TIP3    H178878   0.895   3.075   5.638  0.3274  0.9706  0.5592
19129TIP3    H278879   0.779   3.111   5.728 -1.2210 -1.4877 -0.3997
19130TIP3   OH278880   2.086   1.134  14.182  0.0257 -0.2826 -0.2036
19130TIP3    H178881   2.157   1.094  14.133 -0.0250  0.8352 -1.2475
19130TIP3    H278882   2.101   1.228  14.172 -2.8248  0.0155 -2.3756
19131TIP3   OH278883   4.644   4.141  12.345 -0.9324 -0.0225 -0.9042
19131TIP3    H178884   4.609   4.129  12.434 -0.0803 -2.4410 -0.8679
19131TIP3    H278885   4.662   4.235  12.339  1.8986 -0.2450  2.5910
19132TIP3   OH278886   4.468   6.104  16.103 -0.5667 -0.6082  0.8042
19132TIP3    H178887   4.391   6.101  16.046  0.8180 -3.0636 -1.0218
19132TIP3    H278888   4.516   6.181  16.074 -1.0756 -0.4818  0.2744
19133TIP3   OH278889   1.411   4.678   0.895  0.2709 -0.3247 -0.2442
19133TIP3    H178890   1.437   4.754   0.947 -1.2249 -0.2119  0.3611
19133TIP3    H278891   1.331   4.705   0.852  0.1454 -1.2986 -0.6271
19134TIP3   OH278892   1.296   6.806  10.924  0.1199  0.2217  0.2773
19134TIP3    H178893   1.383   6.767  10.929  0.2897  0.1039 -2.6307
19134TIP3    H278894   1.260   6.774  10.841 -2.6841  0.3139  1.4023
19135TIP3   OH278895   4.918   2.628  15.123  0.0932 -0.7074 -0.0220
19135TIP3    H178896   4.933   2.631  15.217 -2.2785  1.2362  0.3424
19135TIP3    H278897   4.981   2.563  15.090  2.3697  0.0965  2.5891
19136TIP3   OH278898   1.939   5.962  15.898 -0.1538 -0.3277  0.1759
19136TIP3    H178899   1.855   5.993  15.931 -0.0087  2.0004 -1.4798
19136TIP3    H278900   2.005   6.010  15.948  0.0775  1.8821 -2.1082
19137TIP3   OH278901   1.337   6.513  15.632  0.1288 -0.4402 -0.0538
19137TIP3    H178902   1.289   6.532  15.713 -1.6998 -0.0876 -1.1932
19137TIP3    H278903   1.272   6.474  15.574  1.2505 -0.0599 -1.5951
19138TIP3   OH278904   0.062   5.299   0.974  0.5185  0.0770  0.3418
19138TIP3    H178905   0.064   5.246   0.895 -2.0570  0.7834 -0.2348
19138TIP3    H278906   0.018   5.380   0.948 -1.2463 -0.0622  2.6845
19139TIP3   OH278907   0.954   4.269  13.623 -0.3908  0.0720 -0.5273
19139TIP3    H178908   0.933   4.296  13.533  0.2017 -0.9724 -0.9806
19139TIP3    H278909   0.884   4.209  13.647 -1.8721  2.1718  0.5906
19140TIP3   OH278910   4.607   3.154   5.423  0.0903 -0.0164 -0.6525
19140TIP3    H178911   4.604   3.059   5.426 -1.6606  0.0604  0.7681
19140TIP3    H278912   4.646   3.180   5.507  2.7116  0.4677 -1.9753
19141TIP3   OH278913   6.528   3.453  16.751 -0.5159 -0.5243  0.2142
19141TIP3    H178914   6.436   3.428  16.740 -0.8378  1.5520 -2.6371
19141TIP3    H278915   6.531   3.545  16.723  1.9305  0.3387  3.0535
19142TIP3   OH278916   5.079   5.649  14.998  0.3776 -0.0535 -0.2491
19142TIP3    H178917   5.110   5.567  14.959 -1.1126 -0.0985 -1.3471
19142TIP3    H278918   5.156   5.707  14.995  1.2944 -1.2196  0.0728
19143TIP3   OH278919   4.250   3.630  12.095 -0.3423  0.6335  0.1299
19143TIP3    H178920   4.301   3.617  12.015 -1.0570  0.5165 -0.3130
19143TIP3    H278921   4.195   3.552  12.101 -1.4033  1.3429 -0.1062
19144TIP3   OH278922   0.229   2.212   5.420 -0.6473  0.5490 -0.3539
19144TIP3    H178923   0.216   2.306   5.409 -0.7693  0.6877  0.9413
19144TIP3    H278924   0.320   2.198   5.393 -0.3755  1.1679  0.2254
19145TIP3   OH278925   2.885   0.766   2.899  0.1334 -0.7139 -0.7818
19145TIP3    H178926   2.859   0.708   2.828 -2.6787 -0.7951  0.2611
19145TIP3    H278927   2.810   0.822   2.914  1.6529  1.0804  0.3835
19146TIP3   OH278928   4.614   1.335   3.337 -0.6344 -0.6686 -0.1014
19146TIP3    H178929   4.643   1.363   3.250  1.3107 -0.6203  0.5363
19146TIP3    H278930   4.666   1.257   3.355 -1.2407 -0.8377  0.8974
19147TIP3   OH278931   3.187   1.855  12.047 -0.0963 -0.5219  0.6432
19147TIP3    H178932   3.132   1.891  11.977  0.6608 -0.2930  0.1580
19147TIP3    H278933   3.232   1.931  12.083 -1.3661 -0.4730  2.1810
19148TIP3   OH278934   5.641   4.794   2.199 -0.4410 -0.0672  0.3386
19148TIP3    H178935   5.588   4.758   2.270 -0.9336  0.0575  0.0345
19148TIP3    H278936   5.694   4.720   2.168  0.6648  0.1605  1.6340
19149TIP3   OH278937   1.180   1.363  15.863  0.5991  0.1311 -0.3757
19149TIP3    H178938   1.242   1.435  15.877  1.3179 -0.6896  0.6429
19149TIP3    H278939   1.231   1.284  15.875 -0.0736 -0.5766 -2.0455
19150TIP3   OH278940   5.208   3.388  15.708  0.1586  0.0929 -0.5605
19150TIP3    H178941   5.168   3.330  15.644  2.6790 -1.4708 -0.7921
19150TIP3    H278942   5.229   3.468  15.659 -2.1249  0.7285 -0.5453
19151TIP3   OH278943   5.384   6.058   6.318 -0.1467  0.2815  0.0115
19151TIP3    H178944   5.376   5.985   6.257 -1.3394  0.4072  0.0175
19151TIP3    H278945   5.448   6.029   6.383 -1.1701 -1.0344  0.4334
19152TIP3   OH278946   3.858   4.345   2.198  0.2966  0.0697 -0.1987
19152TIP3    H178947   3.845   4.281   2.128  1.8665 -1.8004  1.1364
19152TIP3    H278948   3.947   4.377   2.185  0.1202  0.7110  0.1553
19153TIP3   OH278949   5.403   6.444   0.716 -0.4954  0.1494  0.0215
19153TIP3    H178950   5.449   6.400   0.644 -0.5344 -0.7380  0.5373
19153TIP3    H278951   5.472   6.468   0.777 -0.6828 -1.0214  0.7103
19154TIP3   OH278952   4.286   6.141   6.013  0.0589 -0.0936  0.3469
19154TIP3    H178953   4.257   6.151   6.104 -0.1983  0.8652  0.1611
19154TIP3    H278954   4.209   6.109   5.966 -0.6920  2.3295 -0.1208
19155TIP3   OH278955   5.172   4.418   4.142  0.2517  0.2159 -0.7170
19155TIP3    H178956   5.234   4.351   4.113  0.9146  0.6783 -0.3777
19155TIP3    H278957   5.225   4.495   4.159 -0.3356  0.4490  0.1288
19156TIP3   OH278958   3.444   3.032  17.261  0.0247 -0.5642  0.3917
19156TIP3    H178959   3.525   3.026  17.312  1.2164 -0.4866 -1.4470
19156TIP3    H278960   3.402   3.112  17.293  1.2914  0.0728  0.5106
19157TIP3   OH278961   4.974   4.565   3.733  0.1649  0.1641 -0.0393
19157TIP3    H178962   4.997   4.609   3.651 -2.3572  0.1021 -0.8221
19157TIP3    H278963   4.920   4.629   3.780 -1.7882 -1.2540 -0.2713
19158TIP3   OH278964   0.402   5.412   2.070  0.6796 -0.1324  0.1415
19158TIP3    H178965   0.400   5.426   1.975 -0.7263 -0.7963  0.0606
19158TIP3    H278966   0.393   5.500   2.108  2.0394  0.2139 -0.3388
19159TIP3   OH278967   4.625   4.500   4.301 -0.4646 -0.0224 -0.5877
19159TIP3    H178968   4.555   4.523   4.363 -0.7198 -0.3057 -0.7704
19159TIP3    H278969   4.627   4.405   4.302  1.3033  0.0008  0.9826
19160TIP3   OH278970   0.666   4.530   0.828 -0.1576  0.3584  0.2425
19160TIP3    H178971   0.624   4.606   0.787 -1.5879 -0.9843 -0.8187
19160TIP3    H278972   0.730   4.568   0.888 -0.5716  2.4025 -0.5693
19161TIP3   OH278973   3.534   0.268  13.839  0.3271  0.5535  0.4906
19161TIP3    H178974   3.545   0.327  13.764 -2.2108 -0.7383 -0.9489
19161TIP3    H278975   3.483   0.319  13.902 -1.4440  0.1253 -0.5524
19162TIP3   OH278976   6.444   3.281  14.299  0.1753 -0.5770  0.3089
19162TIP3    H178977   6.506   3.335  14.250 -0.5618  1.5182  1.6064
19162TIP3    H278978   6.363   3.285  14.249 -0.0713  0.0994  0.7526
19163TIP3   OH278979   1.863   4.017  13.492  0.0402  0.4037 -0.3777
19163TIP3    H178980   1.815   4.092  13.457  0.2500  1.7403  2.0847
19163TIP3    H278981   1.814   3.941  13.460 -0.8863  1.6084 -1.9152
19164TIP3   OH278982   5.068   1.734   4.547 -0.1860 -0.4815  0.3724
19164TIP3    H178983   5.140   1.764   4.491 -0.1430 -0.3602  0.4933
19164TIP3    H278984   5.072   1.790   4.624 -0.9779  0.1172 -0.0226
19165TIP3   OH278985   5.325   4.029   1.254  0.1643 -0.1613  0.4393
19165TIP3    H178986   5.403   4.053   1.203  1.1080 -0.4582  1.7192
19165TIP3    H278987   5.284   4.113   1.275  0.5177  0.0379  0.3464
19166TIP3   OH278988   6.395   3.442  12.389  0.2828 -0.6676  0.6946
19166TIP3    H178989   6.405   3.535  12.366  0.0022 -0.3006  2.0548
19166TIP3    H278990   6.478   3.402  12.364  0.4848 -0.0143  0.3126
19167TIP3   OH278991   3.648   2.393  13.419 -0.2325  0.2199  0.1672
19167TIP3    H178992   3.666   2.351  13.335 -1.2976 -0.6593  0.3696
19167TIP3    H278993   3.593   2.468  13.398  1.3541  1.3074 -0.1542
19168TIP3   OH278994   3.579   0.064   0.425  0.1372  0.2663  0.3618
19168TIP3    H178995   3.544  -0.020   0.395 -0.6200  0.3187  1.1103
19168TIP3    H278996   3.627   0.098   0.349 -1.7122  0.3680 -0.7964
19169TIP3   OH278997   6.405   6.688   3.533 -0.0425  0.0009 -0.2804
19169TIP3    H178998   6.412   6.725   3.445  0.4950 -0.5219 -0.4608
19169TIP3    H278999   6.488   6.710   3.576 -0.0022 -0.3839 -0.1550
19170TIP3   OH279000   2.463   2.867  12.132 -0.2854 -0.4917  0.4215
19170TIP3    H179001   2.495   2.853  12.221  1.8309  2.2315  0.1814
19170TIP3    H279002   2.390   2.928  12.142 -1.1386 -1.5021  0.4138
19171TIP3   OH279003   6.766   3.078  11.725 -0.7267  0.0403  0.0276
19171TIP3    H179004   6.786   2.991  11.689 -0.9579  0.0889 -0.2162
19171TIP3    H279005   6.851   3.117  11.742 -0.6161 -0.4942  0.7632
19172TIP3   OH279006   4.908   4.329   3.538 -0.0769 -0.0221 -0.7580
19172TIP3    H179007   4.885   4.415   3.572 -0.5436 -0.1722 -0.6998
19172TIP3    H279008   4.829   4.297   3.496 -0.4577 -1.2016  0.8102
19173TIP3   OH279009   3.190   1.736   5.011 -0.0345  0.0470 -0.0205
19173TIP3    H179010   3.264   1.781   5.052 -1.2783 -0.1811  2.5904
19173TIP3    H279011   3.174   1.784   4.930  3.2499 -0.1850 -0.8787
19174TIP3   OH279012   4.670   2.301   3.867  0.2127 -0.4534  0.6141
19174TIP3    H179013   4.707   2.388   3.854  0.0315 -0.0616  2.5625
19174TIP3    H279014   4.725   2.261   3.935 -1.0812 -1.0119  1.3516
19175TIP3   OH279015   6.135   1.587  16.559 -0.6708 -0.1955  0.2837
19175TIP3    H179016   6.093   1.501  16.564 -0.7533 -0.2363 -1.0726
19175TIP3    H279017   6.228   1.569  16.549 -0.7907 -0.1352 -0.9543
19176TIP3   OH279018   6.001   5.185   2.967  0.5679  0.4036  0.5443
19176TIP3    H179019   5.939   5.113   2.958  0.9197 -0.1581  2.4375
19176TIP3    H279020   6.086   5.148   2.943  0.7981  0.0846  1.8123
19177TIP3   OH279021   5.619   2.717  12.826  0.0378 -0.3454 -0.4243
19177TIP3    H179022   5.672   2.764  12.890  0.5566 -0.3416 -0.8530
19177TIP3    H279023   5.656   2.629  12.824 -0.8205 -0.7353  0.2489
19178TIP3   OH279024   4.821   4.450  14.393 -0.4775 -0.1393 -0.6422
19178TIP3    H179025   4.880   4.376  14.402 -1.5759 -1.2739 -2.4589
19178TIP3    H279026   4.781   4.460  14.480 -1.4070 -2.6134 -0.7415
19179TIP3   OH279027   2.624   2.711   6.064 -0.9023  0.4186  0.5221
19179TIP3    H179028   2.719   2.722   6.059 -0.7011 -1.4928 -0.3471
19179TIP3    H279029   2.597   2.766   6.137  1.0547 -0.1021  1.6732
19180TIP3   OH279030   3.934   1.348  15.210  0.1209 -0.6324  0.1373
19180TIP3    H179031   3.845   1.380  15.224 -0.2206 -1.0528 -1.0199
19180TIP3    H279032   3.940   1.270  15.264 -0.8057 -1.5940 -1.1058
19181TIP3   OH279033   1.393   0.774   2.149 -0.1150  0.7873  0.1701
19181TIP3    H179034   1.476   0.802   2.110 -0.0039 -0.8593 -0.8139
19181TIP3    H279035   1.377   0.838   2.218  1.1289  2.1065 -0.7202
19182TIP3   OH279036   3.162   2.268  15.631 -0.1201  0.1947  0.0558
19182TIP3    H179037   3.141   2.361  15.625  1.8607  0.6548  0.0922
19182TIP3    H279038   3.085   2.229  15.675 -0.1108  2.1135  1.8661
19183TIP3   OH279039   0.694   0.876  16.976 -0.0804  0.3889 -0.1444
19183TIP3    H179040   0.683   0.933  16.900  1.1836  2.0201  0.8693
19183TIP3    H279041   0.631   0.805  16.962 -0.4282  1.0943 -2.2996
19184TIP3   OH279042   2.436   2.343  14.532 -0.5254  0.5520 -0.4155
19184TIP3    H179043   2.526   2.340  14.564 -1.2836  4.0836  2.3604
19184TIP3    H279044   2.410   2.251  14.523  2.8247 -0.4997  0.1978
19185TIP3   OH279045   4.091   1.847  11.271 -0.2678 -0.2433 -0.3791
19185TIP3    H179046   4.143   1.882  11.199  0.1422  0.5238  0.2770
19185TIP3    H279047   4.068   1.924  11.323  1.4588 -1.0249  1.6199
19186TIP3   OH279048   1.771   2.077  15.151  0.1233  0.8097  0.6379
19186TIP3    H179049   1.810   2.155  15.111 -2.3843  2.3667  1.1130
19186TIP3    H279050   1.764   2.097  15.244  0.2661 -0.3267  0.9043
19187TIP3   OH279051   1.975   4.664  11.676  0.1593  0.2256 -0.2191
19187TIP3    H179052   2.037   4.666  11.604  2.3526 -0.8778  1.5531
19187TIP3    H279053   1.994   4.744  11.726 -0.5876  0.4289 -0.2545
19188TIP3   OH279054   4.581   5.482  11.555  0.5622  0.6227  0.3021
19188TIP3    H179055   4.570   5.442  11.641 -2.1929  1.1558  0.2506
19188TIP3    H279056   4.491   5.492  11.522  1.4606  2.4500 -1.6848
19189TIP3   OH279057   0.752   4.521  16.656  0.4671  0.2671 -0.1692
19189TIP3    H179058   0.671   4.534  16.706  1.3344  0.1371  1.2905
19189TIP3    H279059   0.802   4.458  16.707  0.1533 -2.0791 -2.6538
19190TIP3   OH279060   5.799   2.443  15.774  0.1468 -0.1646 -0.3953
19190TIP3    H179061   5.889   2.412  15.787 -0.2253 -0.9575  0.2858
19190TIP3    H279062   5.790   2.447  15.679  0.2939 -1.9018 -0.5009
19191TIP3   OH279063   3.000   5.312   0.902  0.7213 -0.5298  0.0511
19191TIP3    H179064   2.954   5.235   0.935  1.5761 -0.9336  0.3196
19191TIP3    H279065   3.022   5.362   0.981  1.0405 -0.5153 -0.0431
19192TIP3   OH279066   0.128   1.340  13.638 -0.2188  0.0859 -0.2414
19192TIP3    H179067   0.075   1.287  13.697  1.6426  0.1927  1.5924
19192TIP3    H279068   0.154   1.416  13.690  3.0143 -0.7192 -0.5544
19193TIP3   OH279069   6.534   6.722  16.018  0.2137 -0.2597 -0.1467
19193TIP3    H179070   6.586   6.764  16.087 -1.8996 -1.3103  2.1863
19193TIP3    H279071   6.547   6.628  16.032 -0.7303 -0.4968 -0.7761
19194TIP3   OH279072   6.119   1.229  14.760  0.3268  0.3196  0.3049
19194TIP3    H179073   6.085   1.150  14.801  0.9443 -0.1238 -0.0322
19194TIP3    H279074   6.093   1.300  14.819  0.6349 -0.2426  1.1281
19195TIP3   OH279075   3.522   1.564   3.702 -0.0434 -0.2040  0.4003
19195TIP3    H179076   3.596   1.523   3.657 -0.4759 -1.0840  0.4840
19195TIP3    H279077   3.543   1.556   3.795  0.4513  0.8683  0.3932
19196TIP3   OH279078   1.947   0.490   1.222  0.6997 -0.3015 -0.7219
19196TIP3    H179079   1.932   0.582   1.199  0.5788  0.4988  2.3194
19196TIP3    H279080   2.011   0.493   1.293 -0.0974 -2.5032  0.1457
19197TIP3   OH279081   4.211   1.655   1.357 -0.3146 -0.1519  1.1394
19197TIP3    H179082   4.298   1.640   1.393 -0.0940 -0.4885  0.4774
19197TIP3    H279083   4.201   1.587   1.290 -0.1168  1.3702 -0.4728
19198TIP3   OH279084   6.046   6.271   0.280 -0.2656  0.0389  0.2435
19198TIP3    H179085   5.997   6.251   0.201  1.2994 -3.0298 -0.0145
19198TIP3    H279086   5.994   6.234   0.351  1.2730 -2.6328  0.0310
19199TIP3   OH279087   6.145   5.635  11.322  0.1948  0.3379  0.2782
19199TIP3    H179088   6.173   5.620  11.231 -0.1546  1.3956 -0.0129
19199TIP3    H279089   6.094   5.558  11.344  2.4102 -1.1241  0.4426
19200TIP3   OH279090   5.314   4.284   4.773 -0.5704  0.0814  0.2383
19200TIP3    H179091   5.341   4.193   4.790  1.5920  0.7465  0.5040
19200TIP3    H279092   5.396   4.330   4.756 -1.5574  2.2124  1.1182
19201TIP3   OH279093   0.355   2.620   1.909 -0.1869  0.3468 -0.2131
19201TIP3    H179094   0.311   2.705   1.906  1.0631  0.9738 -1.3623
19201TIP3    H279095   0.408   2.618   1.829  1.1272 -0.7802  0.6695
19202TIP3   OH279096   2.586   6.095  13.970 -0.3682  0.1645 -0.0942
19202TIP3    H179097   2.669   6.060  14.002  0.5962  0.9746 -1.6366
19202TIP3    H279098   2.520   6.039  14.010  0.9688 -1.2126  0.2501
19203TIP3   OH279099   3.124   0.285  13.862  0.7970  0.3999  0.1915
19203TIP3    H179100   3.065   0.250  13.930 -1.7136  1.3494 -1.4243
19203TIP3    H279101   3.099   0.239  13.782  2.5498  0.5497 -0.4690
19204TIP3   OH279102   0.753   5.615   1.343 -0.5389  0.0906 -0.3709
19204TIP3    H179103   0.713   5.689   1.389  0.4601  1.0000 -0.9321
19204TIP3    H279104   0.681   5.576   1.293 -1.0068  0.9205 -0.3499
19205TIP3   OH279105   4.334   1.653  12.878 -0.4189 -0.1407  0.2722
19205TIP3    H179106   4.303   1.743  12.886 -0.8760 -0.4720  2.4651
19205TIP3    H279107   4.377   1.635  12.961  0.6855 -1.5751 -0.5923
19206TIP3   OH279108   5.233   1.880   3.684  0.1292  0.3751  0.1249
19206TIP3    H179109   5.294   1.938   3.638 -1.5124  3.0989  1.2746
19206TIP3    H279110   5.240   1.906   3.776 -1.6906 -0.2770  0.4593
19207TIP3   OH279111   6.256   0.012   0.920  0.4302  0.1045 -0.5328
19207TIP3    H179112   6.303  -0.014   0.841 -0.5628 -1.8878 -0.5176
19207TIP3    H279113   6.198  -0.062   0.938  1.8771 -0.2555  3.0283
19208TIP3   OH279114   4.783   0.006  14.607  0.2314  0.7227 -0.3624
19208TIP3    H179115   4.688   0.007  14.615  0.3728  0.0785  1.7002
19208TIP3    H279116   4.801   0.060  14.530 -1.7996  0.7417 -0.8514
19209TIP3   OH279117   4.180   0.898   3.874 -0.0509  0.0226  0.2633
19209TIP3    H179118   4.225   0.823   3.913 -0.7659  0.1121  1.2707
19209TIP3    H279119   4.250   0.961   3.855  0.6385 -1.1324 -1.1857
19210TIP3   OH279120   5.211   0.816  14.117  0.3113 -0.2289 -0.5645
19210TIP3    H179121   5.214   0.730  14.159 -1.2684 -0.5580 -1.1284
19210TIP3    H279122   5.174   0.800  14.031  0.2926  0.9809 -0.7897
19211TIP3   OH279123   1.690   0.159  15.661  0.8797 -0.1393 -0.4272
19211TIP3    H179124   1.781   0.174  15.634  1.5960 -2.1189  0.7055
19211TIP3    H279125   1.659   0.244  15.690  2.8525  0.3075  0.4948
19212TIP3   OH279126   5.036   2.795  10.249  0.1057 -0.3728 -0.3466
19212TIP3    H179127   5.106   2.771  10.188  0.1607 -0.5193 -0.2254
19212TIP3    H279128   4.976   2.720  10.247  0.5615 -0.7567  0.4486
19213TIP3   OH279129   5.426   0.165  11.282 -0.4885  0.3392  0.2190
19213TIP3    H179130   5.431   0.112  11.203 -0.4859 -0.8673  1.0172
19213TIP3    H279131   5.485   0.122  11.344 -1.9035  0.1959  1.5031
19214TIP3   OH279132   1.002   1.557   4.445 -0.5910  0.8179 -0.6898
19214TIP3    H179133   0.951   1.637   4.437 -0.5282  1.1016  1.5143
19214TIP3    H279134   0.940   1.487   4.424 -1.6272  1.2220  0.9474
19215TIP3   OH279135   3.152   5.060  17.215  0.2890  0.4772 -0.7134
19215TIP3    H179136   3.127   5.151  17.202  1.0592  0.5397 -1.7686
19215TIP3    H279137   3.154   5.022  17.127 -1.4531 -0.9496 -0.1765
19216TIP3   OH279138   0.129   5.667   3.009  0.1366 -0.0593 -0.5716
19216TIP3    H179139   0.151   5.605   3.078  0.1545  2.3053  1.6081
19216TIP3    H279140   0.183   5.641   2.935  0.2471 -2.5423  0.3433
19217TIP3   OH279141   0.230   1.920   5.266  0.6683 -0.1370  0.1372
19217TIP3    H179142   0.235   2.014   5.280  3.7648 -0.3012  0.4112
19217TIP3    H279143   0.207   1.884   5.352 -2.4752  0.4511 -0.3965
19218TIP3   OH279144   3.649   1.772  12.176  0.1323  0.1788 -0.1415
19218TIP3    H179145   3.678   1.861  12.158  0.0849  0.2587  0.1836
19218TIP3    H279146   3.556   1.781  12.198 -0.1305 -0.0673 -1.1146
19219TIP3   OH279147   4.467   0.765  11.790  0.4724  0.0027  0.4390
19219TIP3    H179148   4.381   0.760  11.748  0.8614 -1.3862 -0.2129
19219TIP3    H279149   4.493   0.857  11.781  0.3752 -0.1814 -2.0293
19220TIP3   OH279150   5.296   3.567  14.067  0.0912  0.5421  0.0821
19220TIP3    H179151   5.311   3.592  13.976  1.7710  0.1301  0.2423
19220TIP3    H279152   5.207   3.598  14.085  0.7462  3.1008 -0.8575
19221TIP3   OH279153   6.403   4.800  15.671  0.2048  0.4428  0.4215
19221TIP3    H179154   6.403   4.750  15.590 -0.7533 -2.3405  2.0474
19221TIP3    H279155   6.487   4.846  15.672  0.2554  0.4451 -2.0632
19222TIP3   OH279156   0.350   3.749   1.646  0.3415  0.1817  0.7374
19222TIP3    H179157   0.271   3.780   1.602  0.6102  1.1059  0.8744
19222TIP3    H279158   0.364   3.660   1.614 -0.5864  0.1271  0.4946
19223TIP3   OH279159   3.757   6.465   4.117 -0.0657 -0.5108  0.6791
19223TIP3    H179160   3.678   6.449   4.170  1.0262 -2.7461  1.7156
19223TIP3    H279161   3.757   6.394   4.053  1.0527 -0.4854  0.6459
19224TIP3   OH279162   0.281   1.062   1.232 -0.6117 -0.4559  0.7888
19224TIP3    H179163   0.330   0.989   1.270 -0.4597 -1.0901 -0.5927
19224TIP3    H279164   0.262   1.034   1.142 -2.3374  0.3458  0.8819
19225TIP3   OH279165   6.293   6.059  12.132 -0.3420 -0.1433 -0.4330
19225TIP3    H179166   6.315   6.079  12.041  2.7682  0.9889  0.4986
19225TIP3    H279167   6.306   5.964  12.139 -0.1539 -0.1662 -1.0609
19226TIP3   OH279168   0.170   3.238   3.715  0.4962  0.2936 -0.3207
19226TIP3    H179169   0.207   3.156   3.750 -1.9318  0.2902  2.4674
19226TIP3    H279170   0.212   3.307   3.768 -0.5193  0.5520  0.1528
19227TIP3   OH279171   2.912   2.526   1.009  0.0894 -0.2005 -0.8932
19227TIP3    H179172   2.951   2.459   0.952 -1.3908 -0.9874 -1.0078
19227TIP3    H279173   2.935   2.499   1.097  2.9747  1.3932 -1.1016
19228TIP3   OH279174   6.260   6.087   6.256  0.1338  0.2242  0.4014
19228TIP3    H179175   6.302   6.090   6.342  0.4433 -1.9808  0.3551
19228TIP3    H279176   6.298   6.160   6.208  1.2578  0.4173  1.5642
19229TIP3   OH279177   6.006   4.512   1.440  0.6411 -0.0908 -0.1967
19229TIP3    H179178   6.017   4.510   1.345  0.2995 -1.5303 -0.2051
19229TIP3    H279179   6.084   4.468   1.475  1.1649  1.1464  0.2330
19230TIP3   OH279180   5.454   0.743   2.318 -0.1202  0.1852 -0.3638
19230TIP3    H179181   5.543   0.741   2.352 -0.6578  1.2287  1.1954
19230TIP3    H279182   5.452   0.820   2.261 -0.0137  0.1048 -0.4779
19231TIP3   OH279183   6.721   0.049  15.116 -0.0173  0.4202 -0.0382
19231TIP3    H179184   6.708   0.130  15.165  0.7797  0.6710 -0.2268
19231TIP3    H279185   6.663   0.057  15.040 -0.1034  0.7208  0.0592
19232TIP3   OH279186   4.457   4.490   5.899 -0.0200 -0.2109 -0.2289
19232TIP3    H179187   4.439   4.584   5.897 -1.7634 -0.5367 -0.7807
19232TIP3    H279188   4.542   4.481   5.856  0.3631  1.1532  0.2124
19233TIP3   OH279189   0.969   2.488  14.957 -0.7011  0.0482  0.2555
19233TIP3    H179190   1.030   2.424  14.922  1.4182  1.3466  1.4737
19233TIP3    H279191   0.897   2.489  14.894  0.0790 -2.1837 -0.7171
19234TIP3   OH279192   0.328   1.954  15.676  0.0239  0.5616  0.5056
19234TIP3    H179193   0.344   1.906  15.594 -2.6076  1.2507 -0.4906
19234TIP3    H279194   0.322   1.885  15.742  0.6336 -0.1455 -0.1595
19235TIP3   OH279195   5.871   4.956   0.157  0.0973 -0.1505 -0.3830
19235TIP3    H179196   5.803   4.963   0.091 -0.5574  1.3178  0.4349
19235TIP3    H279197   5.928   5.032   0.143 -0.5028  0.6294  1.2204
19236TIP3   OH279198   3.947   4.013  13.303  0.2600 -0.0702  0.2557
19236TIP3    H179199   3.862   4.048  13.328 -0.2249  0.5371 -2.0795
19236TIP3    H279200   3.954   3.930  13.349 -2.2558 -0.8423 -0.6644
19237TIP3   OH279201   3.641   3.499  14.713 -0.0201  0.5508  0.6741
19237TIP3    H179202   3.731   3.524  14.731  0.6676 -0.6024 -1.0521
19237TIP3    H279203   3.646   3.449  14.631 -2.0326 -0.7123  1.3005
19238TIP3   OH279204   5.210   2.136   3.058 -0.3931 -0.3936  0.0752
19238TIP3    H179205   5.258   2.058   3.031  1.5574  1.0115 -0.6497
19238TIP3    H279206   5.122   2.124   3.023  0.1508 -1.8182 -0.8342
19239TIP3   OH279207   3.733   5.617  16.441  0.6133  0.6387  0.5994
19239TIP3    H179208   3.750   5.711  16.449  1.0276  0.5597  0.6870
19239TIP3    H279209   3.658   5.601  16.498  0.8737  0.8222  0.9937
19240TIP3   OH279210   1.355   4.327   1.317 -0.2066 -0.7331  0.2174
19240TIP3    H179211   1.270   4.365   1.338 -0.7487 -1.2863 -0.9495
19240TIP3    H279212   1.398   4.393   1.262  0.6125  0.0606  1.7590
19241TIP3   OH279213   2.037   3.719   4.417  0.1374  0.0921 -0.2172
19241TIP3    H179214   1.980   3.750   4.346  0.2051 -2.0670 -1.2424
19241TIP3    H279215   2.012   3.628   4.430  3.5357 -0.9996 -0.8578
19242TIP3   OH279216   6.193   4.130  12.390  0.3676 -0.0237 -0.7313
19242TIP3    H179217   6.214   4.080  12.469 -0.2735  2.2988  0.9878
19242TIP3    H279218   6.259   4.200  12.389 -0.8305  1.1126 -1.1671
19243TIP3   OH279219   1.433   2.639   0.954  0.6889  0.5173  0.0402
19243TIP3    H179220   1.402   2.722   0.992 -2.0180  0.8020 -2.5864
19243TIP3    H279221   1.381   2.572   0.999  0.5336  0.5156 -0.1412
19244TIP3   OH279222   0.672   5.515  11.402 -0.4162 -0.8033  0.3264
19244TIP3    H179223   0.754   5.472  11.375  0.0551  0.8213 -0.9552
19244TIP3    H279224   0.659   5.583  11.336 -2.3264 -0.4483  1.0547
19245TIP3   OH279225   3.576   4.176  15.660 -0.5060 -0.3311 -0.3480
19245TIP3    H179226   3.585   4.243  15.728 -0.7507  0.0929 -0.7259
19245TIP3    H279227   3.525   4.220  15.591  0.4228 -0.5062 -1.1443
19246TIP3   OH279228   0.538   1.912   3.997  0.6357 -0.5574 -0.1040
19246TIP3    H179229   0.614   1.926   4.053 -1.3016  1.3028  2.1554
19246TIP3    H279230   0.469   1.885   4.057 -0.9949 -0.3657 -1.8597
19247TIP3   OH279231   5.652   5.026  16.735  0.0932  0.3908  0.4752
19247TIP3    H179232   5.589   4.965  16.697  0.8367  0.2361 -0.5160
19247TIP3    H279233   5.723   5.030  16.672  1.2316  0.3389  1.7211
19248TIP3   OH279234   2.217   4.866  16.122 -0.0055 -0.2635 -0.0806
19248TIP3    H179235   2.230   4.902  16.210 -2.6452  1.8337 -0.4783
19248TIP3    H279236   2.297   4.888  16.074  0.7712  0.0162  1.3299
19249TIP3   OH279237   3.556   4.564  12.474  0.5854  0.1783 -0.0472
19249TIP3    H179238   3.570   4.644  12.524  1.1916 -0.1646  0.3257
19249TIP3    H279239   3.497   4.512  12.528  1.0836 -0.1075  0.2230
19250TIP3   OH279240   2.484   1.593   2.545  0.2349 -0.6904 -0.5654
19250TIP3    H179241   2.443   1.631   2.467 -1.7266  1.8165  1.5723
19250TIP3    H279242   2.577   1.612   2.535 -0.2586  1.5253 -1.3203
19251TIP3   OH279243   6.465   0.823   4.136 -0.0517  0.4714 -1.0136
19251TIP3    H179244   6.555   0.856   4.131  0.1073  0.6120  2.1799
19251TIP3    H279245   6.412   0.902   4.145 -0.1694  0.2011  0.7517
19252TIP3   OH279246   0.075   3.562  12.503 -0.2546 -0.3966  0.1211
19252TIP3    H179247   0.007   3.625  12.481 -0.1224 -0.7323 -1.3320
19252TIP3    H279248   0.036   3.477  12.484  0.6982 -0.5718 -1.1317
19253TIP3   OH279249   1.126   0.024  17.234 -0.1154 -0.2823  0.3205
19253TIP3    H179250   1.130  -0.037  17.308 -1.5052  0.9457  1.4334
19253TIP3    H279251   1.216   0.055  17.224  0.5257 -2.2058 -0.0029
19254TIP3   OH279252   4.854   2.015  16.874  0.6001 -0.2476  0.4454
19254TIP3    H179253   4.859   2.105  16.842  1.9155 -0.1603  0.8574
19254TIP3    H279254   4.804   1.968  16.807 -1.6584  1.1614  1.0931
19255TIP3   OH279255   5.118   2.790   3.008  0.3247  0.2033 -0.5899
19255TIP3    H179256   5.092   2.846   2.935 -1.4887  0.1983  0.0279
19255TIP3    H279257   5.190   2.837   3.050 -0.3549  1.4788 -0.8304
19256TIP3   OH279258   4.775   2.117  16.507 -0.1093 -0.0497  0.3582
19256TIP3    H179259   4.754   2.100  16.599 -2.5443  1.0911  0.0626
19256TIP3    H279260   4.869   2.101  16.500 -0.2188 -2.0012  2.6113
19257TIP3   OH279261   0.048   4.934  16.177  0.0896 -0.3966  0.3094
19257TIP3    H179262   0.061   5.022  16.211  0.8266  0.3763 -1.9024
19257TIP3    H279263  -0.012   4.945  16.104 -0.0370 -1.7607  0.1979
19258TIP3   OH279264   2.170   0.432  15.138  0.4774 -0.6064  0.1411
19258TIP3    H179265   2.164   0.488  15.215 -0.5538 -1.3808  0.6518
19258TIP3    H279266   2.098   0.461  15.081 -0.2654 -1.5833  0.5509
19259TIP3   OH279267   3.638   2.983  16.135 -0.4894  0.4495  0.1732
19259TIP3    H179268   3.679   3.012  16.053 -0.6871  0.6595  0.1506
19259TIP3    H279269   3.582   3.056  16.161 -0.4990  0.3441  0.4488
19260TIP3   OH279270   3.973   5.952  14.936 -0.0869 -0.0383 -0.5872
19260TIP3    H179271   3.944   6.023  14.993  0.5402 -1.1424  1.1351
19260TIP3    H279272   3.904   5.886  14.941  0.0413 -0.2054 -0.9763
19261TIP3   OH279273   5.133   0.706  15.093  0.3506  0.0346  0.4723
19261TIP3    H179274   5.222   0.672  15.083  0.2386 -0.0984 -0.0476
19261TIP3    H279275   5.145   0.792  15.133  0.6302 -0.6626  1.9307
19262TIP3   OH279276   6.657   2.501   3.560 -0.0511  0.3978 -0.2359
19262TIP3    H179277   6.640   2.584   3.604  1.3136 -0.1421  1.3707
19262TIP3    H279278   6.610   2.436   3.612 -0.2234  0.0312 -0.8487
19263TIP3   OH279279   1.231   4.407  14.243  0.0965 -0.3209  0.6160
19263TIP3    H179280   1.138   4.407  14.262  0.0391  1.1428  0.3260
19263TIP3    H279281   1.272   4.379  14.325 -0.5427 -0.1938  0.9825
19264TIP3   OH279282   6.616   1.708   0.591 -0.4314 -0.1393 -0.4642
19264TIP3    H179283   6.652   1.651   0.522 -1.8313 -1.3766 -0.1995
19264TIP3    H279284   6.528   1.673   0.607 -0.4355  0.6800  1.3589
19265TIP3   OH279285   4.521   4.156  16.835  0.4956  0.7367  0.2135
19265TIP3    H179286   4.495   4.157  16.928 -0.1580  0.5521  0.0317
19265TIP3    H279287   4.447   4.115  16.790  1.2224 -0.0525 -0.2694
19266TIP3   OH279288   3.745   5.588  13.982 -0.1095 -0.5274  0.0530
19266TIP3    H179289   3.770   5.498  13.958  0.5994  0.0643 -1.4930
19266TIP3    H279290   3.827   5.638  13.976 -1.1203  0.9304 -2.6292
19267TIP3   OH279291   1.084   2.398   6.338 -0.0970  0.2475  0.3370
19267TIP3    H179292   1.013   2.419   6.398 -2.3703  0.6002 -2.3677
19267TIP3    H279293   1.117   2.482   6.309  1.0569  0.0774  1.1127
19268TIP3   OH279294   4.724   1.048   1.369 -0.3033  0.8656 -0.4135
19268TIP3    H179295   4.633   1.017   1.376 -0.0720  0.7374  2.4840
19268TIP3    H279296   4.716   1.136   1.333 -1.4935  0.3930 -1.3455
19269TIP3   OH279297   3.661   0.436   5.609  0.3029 -0.1894 -0.0022
19269TIP3    H179298   3.647   0.413   5.518  1.4820  0.0123 -0.2454
19269TIP3    H279299   3.645   0.355   5.657  0.7117 -0.5616 -0.4919
19270TIP3   OH279300   0.854   1.717   3.230  0.1443 -0.0418 -0.2298
19270TIP3    H179301   0.897   1.696   3.313  0.2162 -0.9379 -0.4860
19270TIP3    H279302   0.807   1.798   3.247  1.5249  0.6828  0.1961
19271TIP3   OH279303   4.144   1.116  11.632 -0.2321 -0.8336  0.2514
19271TIP3    H179304   4.064   1.111  11.580  0.1996  0.8036 -0.6021
19271TIP3    H279305   4.207   1.062  11.583  0.0707  0.4113 -0.7650
19272TIP3   OH279306   1.276   3.494  15.241  0.0778  0.4361 -0.7044
19272TIP3    H179307   1.351   3.499  15.183 -0.1264 -1.6917 -1.2094
19272TIP3    H279308   1.311   3.460  15.324 -0.2642 -0.3791 -0.8823
19273TIP3   OH279309   4.498   6.558  12.114 -0.2769  0.5972  0.1107
19273TIP3    H179310   4.534   6.496  12.050  0.4260  0.6636  0.4362
19273TIP3    H279311   4.572   6.579  12.171 -0.0098  3.1016 -1.0658
19274TIP3   OH279312   1.618   0.778   1.639  0.2496 -0.0764 -0.1312
19274TIP3    H179313   1.649   0.837   1.570 -1.8870  1.6278  0.3196
19274TIP3    H279314   1.579   0.704   1.592  0.1553  0.3601 -0.7409
19275TIP3   OH279315   6.030   2.096  12.533  0.5083  0.3320 -0.2811
19275TIP3    H179316   6.050   2.007  12.504  0.1456 -0.7278  2.5394
19275TIP3    H279317   6.115   2.135  12.552  0.6352  0.3471 -0.8881
19276TIP3   OH279318   2.853   3.738  12.174 -0.9036 -0.1111 -0.1036
19276TIP3    H179319   2.901   3.803  12.124 -1.3263  0.2274 -0.0756
19276TIP3    H279320   2.779   3.786  12.211  1.3784  0.5440  3.9152
19277TIP3   OH279321   1.187   6.443  11.882 -0.7642 -0.7382  0.2703
19277TIP3    H179322   1.151   6.527  11.912 -0.7118 -0.8824  0.7362
19277TIP3    H279323   1.146   6.430  11.796 -0.3701  0.0189 -0.0416
19278TIP3   OH279324   2.401   0.241   5.274 -0.2284  0.9232 -0.2147
19278TIP3    H179325   2.449   0.219   5.194 -0.3900 -0.2044 -0.0056
19278TIP3    H279326   2.446   0.317   5.310  0.3454  0.9221 -0.9396
19279TIP3   OH279327   3.120   2.999  12.844  0.4455 -0.9987 -0.2978
19279TIP3    H179328   3.058   3.047  12.790  0.4056 -0.8023 -0.0794
19279TIP3    H279329   3.132   2.915  12.799 -1.9289 -2.0802  0.9856
19280TIP3   OH279330   1.471   3.993   4.557 -0.4600  0.1431 -0.0404
19280TIP3    H179331   1.526   4.069   4.542 -0.7839  0.1623 -1.1502
19280TIP3    H279332   1.487   3.969   4.649  0.1135  1.1559  0.1234
19281TIP3   OH279333   4.354   2.940   1.220 -0.0127 -0.1118 -0.4221
19281TIP3    H179334   4.406   3.014   1.249  0.1551 -0.3091 -0.2159
19281TIP3    H279335   4.292   2.924   1.291 -1.5314  1.2277 -1.4138
19282TIP3   OH279336   5.918   2.123   5.157 -0.1274 -0.0912 -0.8020
19282TIP3    H179337   5.873   2.202   5.127  1.7688  1.1740 -0.3538
19282TIP3    H279338   5.942   2.141   5.247  0.1584 -1.2597 -0.6356
19283TIP3   OH279339   2.293   3.265   2.818  0.4413 -0.2557  0.2164
19283TIP3    H179340   2.324   3.175   2.817  0.2629 -0.3210  0.5005
19283TIP3    H279341   2.300   3.292   2.910  0.5918  0.0508  0.1133
19284TIP3   OH279342   2.718   0.506   2.805  0.3581 -0.3871 -0.3946
19284TIP3    H179343   2.696   0.544   2.890 -1.6207 -1.6822 -0.2912
19284TIP3    H279344   2.727   0.412   2.823 -0.1660 -0.6815 -1.6470
19285TIP3   OH279345   0.451   5.587  13.589 -0.4161  0.0471 -0.4723
19285TIP3    H179346   0.537   5.546  13.582 -0.5546 -0.1611 -1.0035
19285TIP3    H279347   0.389   5.518  13.566 -0.6909  0.3641 -0.6971
19286TIP3   OH279348   0.744   2.710  13.727  0.5055  0.1723  0.1190
19286TIP3    H179349   0.780   2.738  13.812 -0.4430 -0.5692  0.7799
19286TIP3    H279350   0.808   2.650  13.692  0.7419  0.2136  0.4799
19287TIP3   OH279351   0.448   0.752  13.733  0.1117 -0.2031  0.4050
19287TIP3    H179352   0.416   0.667  13.705 -0.1275 -0.1229  0.4343
19287TIP3    H279353   0.482   0.737  13.821 -0.3724 -0.1638  0.5989
19288TIP3   OH279354   3.781   6.128   2.467  0.2336  0.5768  0.4272
19288TIP3    H179355   3.791   6.118   2.562  1.1557  3.5307  0.6887
19288TIP3    H279356   3.710   6.191   2.457 -0.8783 -0.8563 -0.9130
19289TIP3   OH279357   3.617   6.807  13.105  0.0248  0.3318 -0.1948
19289TIP3    H179358   3.643   6.716  13.111 -0.4549  0.1324 -1.0424
19289TIP3    H279359   3.579   6.828  13.191 -1.5444 -0.7915 -0.5885
19290TIP3   OH279360   2.960   5.425  11.639 -0.4699  0.0254  0.4682
19290TIP3    H179361   2.968   5.397  11.731  0.8224  2.0829  1.0026
19290TIP3    H279362   2.914   5.352  11.597  1.0072 -2.0151  2.2355
19291TIP3   OH279363   0.820   1.335   3.578 -0.0936  0.2846  0.6614
19291TIP3    H179364   0.794   1.424   3.602  1.8687  1.2059 -0.5066
19291TIP3    H279365   0.904   1.346   3.534  0.7580 -2.2861  1.5848
19292TIP3   OH279366   0.352   0.743  14.442 -0.1405  0.1507 -0.0619
19292TIP3    H179367   0.365   0.658  14.400 -0.3388 -0.0328  0.2462
19292TIP3    H279368   0.295   0.791  14.382 -0.0716  0.0465 -0.2098
19293TIP3   OH279369   1.338   6.415  10.963  0.1319 -0.1928  0.5132
19293TIP3    H179370   1.425   6.444  10.933 -0.7343  3.2737  1.1317
19293TIP3    H279371   1.294   6.386  10.883  0.6499  1.3703 -0.3630
19294TIP3   OH279372   1.576   4.864   3.551 -0.4602 -0.9239  0.2279
19294TIP3    H179373   1.534   4.782   3.527 -0.8825 -0.6707  0.0895
19294TIP3    H279374   1.657   4.838   3.595 -0.1758 -1.3979 -0.5745
19295TIP3   OH279375   5.462   0.592  15.764 -0.1725  0.1710 -0.4959
19295TIP3    H179376   5.541   0.620  15.811 -2.6080  2.6212  2.4071
19295TIP3    H279377   5.444   0.505  15.798 -0.9622  1.2499  1.9697
19296TIP3   OH279378   5.233   1.382   0.195 -0.6697  0.2182  0.4103
19296TIP3    H179379   5.291   1.419   0.129 -1.4070  1.4435  0.4263
19296TIP3    H279380   5.283   1.311   0.235  1.0227  1.6036  0.8190
19297TIP3   OH279381   0.475   2.634  12.863 -0.0978 -0.0451 -0.3668
19297TIP3    H179382   0.379   2.629  12.870 -0.2367  1.6374 -1.0004
19297TIP3    H279383   0.506   2.568  12.925 -1.6631 -0.6339 -0.1654
19298TIP3   OH279384   4.205   1.816  14.173  0.2620  0.2071 -0.2596
19298TIP3    H179385   4.129   1.827  14.230  0.6960  1.3773  0.0934
19298TIP3    H279386   4.226   1.723  14.180 -2.1234 -0.5011 -1.6124
19299TIP3   OH279387   1.763   3.087  16.616 -0.4289 -0.0326  0.3566
19299TIP3    H179388   1.849   3.082  16.658  0.1471 -1.0616 -0.9032
19299TIP3    H279389   1.728   3.172  16.642  0.7549  0.1797  1.2955
19300TIP3   OH279390   1.243   1.564   1.285 -1.0379  0.3840 -0.2137
19300TIP3    H179391   1.158   1.590   1.321  0.1576  3.6154  0.4260
19300TIP3    H279392   1.255   1.621   1.209  1.3848  1.3004  0.8227
19301TIP3   OH279393   3.324   2.521  13.492 -0.4375 -0.4474 -0.2544
19301TIP3    H179394   3.384   2.535  13.419 -1.4682  1.2130 -0.8047
19301TIP3    H279395   3.381   2.517  13.569  0.3831  1.1373 -0.7683
19302TIP3   OH279396   6.002   4.567   4.196 -0.6448 -0.4168  0.3107
19302TIP3    H179397   6.052   4.627   4.141 -0.4212  0.6683  1.6535
19302TIP3    H279398   6.059   4.492   4.209 -0.5831 -0.5472 -0.6754
19303TIP3   OH279399   4.945   1.247   3.130 -0.3281  0.2734  0.1191
19303TIP3    H179400   4.882   1.310   3.095  1.3533  0.9601 -1.7329
19303TIP3    H279401   4.898   1.164   3.129 -1.3923  0.8677 -0.7055
19304TIP3   OH279402   1.960   0.492   2.506 -0.3340  0.4427 -0.4897
19304TIP3    H179403   1.883   0.500   2.451 -0.4135 -0.6655 -0.5496
19304TIP3    H279404   1.946   0.412   2.556 -0.2976  1.4613  1.2173
19305TIP3   OH279405   1.317   1.241   5.287  0.3493 -0.2353  0.1403
19305TIP3    H179406   1.306   1.242   5.192  0.0407 -0.3868  0.1727
19305TIP3    H279407   1.370   1.164   5.305 -0.4381 -0.7778  0.1743
19306TIP3   OH279408   6.121   6.707  16.948  0.3663  0.0405 -0.0056
19306TIP3    H179409   6.058   6.653  16.900  0.2771 -0.0926  0.2595
19306TIP3    H279410   6.161   6.647  17.011 -0.1828  0.4158  0.7143
19307TIP3   OH279411   1.352   1.936  12.113  0.2505 -0.2710  0.2693
19307TIP3    H179412   1.268   1.966  12.148  0.5975  0.7104  0.2848
19307TIP3    H279413   1.340   1.842  12.100 -0.0958 -0.5840  2.5029
19308TIP3   OH279414   0.301   2.380   4.992 -0.0463 -0.7948  0.4229
19308TIP3    H179415   0.272   2.432   5.067  1.5670 -0.2134  0.6688
19308TIP3    H279416   0.306   2.291   5.025  1.6736 -0.3842  1.3301
19309TIP3   OH279417   3.135   0.740  14.542  0.4110 -0.5066  0.0033
19309TIP3    H179418   3.041   0.729  14.555 -0.0035  1.9671 -0.4971
19309TIP3    H279419   3.142   0.818  14.487  2.8647  1.8239  3.3664
19310TIP3   OH279420   6.724   3.446  11.847  0.4685 -0.3463  0.4025
19310TIP3    H179421   6.683   3.359  11.854  0.6851 -0.7174 -2.2476
19310TIP3    H279422   6.803   3.431  11.794  0.8915  1.3401  0.5287
19311TIP3   OH279423   4.154   1.416   5.412 -0.6979  0.0311 -0.0640
19311TIP3    H179424   4.166   1.510   5.414  0.9409 -0.1223 -1.5291
19311TIP3    H279425   4.201   1.387   5.334 -0.7938 -2.0508  0.6081
19312TIP3   OH279426   0.534   1.196  17.290 -0.1707  0.2023  0.1624
19312TIP3    H179427   0.528   1.290  17.273 -1.6810 -0.1576 -1.2959
19312TIP3    H279428   0.477   1.155  17.226 -0.0090 -1.6928  1.1789
19313TIP3   OH279429   0.497   1.988  14.538 -0.6181 -0.2162 -0.2879
19313TIP3    H179430   0.530   2.074  14.511  0.3923 -0.4201  0.2610
19313TIP3    H279431   0.502   1.989  14.634  0.1765 -1.1804 -0.3091
19314TIP3   OH279432   4.963   4.505   5.340 -0.4168  0.0498  0.1990
19314TIP3    H179433   5.024   4.445   5.297 -0.0485  0.8152 -0.3459
19314TIP3    H279434   4.894   4.448   5.373  1.2588 -0.9978  2.0235
19315TIP3   OH279435   3.720   1.863   5.557  0.1222  0.1841  0.0566
19315TIP3    H179436   3.777   1.837   5.630 -0.4838  0.1071  0.5126
19315TIP3    H279437   3.697   1.780   5.515  1.6139  0.3398 -1.1009
19316TIP3   OH279438   3.572   5.139  12.604  0.4431  0.4189 -0.7333
19316TIP3    H179439   3.647   5.109  12.553 -0.1352 -0.5509 -1.0218
19316TIP3    H279440   3.604   5.142  12.694  0.1189 -2.5621 -0.4588
19317TIP3   OH279441   1.421   0.742  14.909 -0.0523 -0.7475  0.2409
19317TIP3    H179442   1.357   0.739  14.837  1.5900  0.0297 -1.2963
19317TIP3    H279443   1.376   0.701  14.982 -2.0083 -1.0065 -1.0523
19318TIP3   OH279444   0.477   1.752  12.736  0.3023  0.1596  0.0155
19318TIP3    H179445   0.461   1.811  12.810  0.3355  2.0207 -1.4432
19318TIP3    H279446   0.560   1.710  12.757  0.3225  0.6800  1.0318
19319TIP3   OH279447   2.823   6.487  14.073  0.2499 -0.2651  0.7294
19319TIP3    H179448   2.784   6.441  13.999  0.5097  1.7332 -0.7142
19319TIP3    H279449   2.825   6.423  14.143 -0.9192 -1.9211 -0.7014
19320TIP3   OH279450   6.200   1.347   1.141 -0.3502  0.3046 -0.5779
19320TIP3    H179451   6.178   1.370   1.231 -0.3249 -0.6504 -0.3147
19320TIP3    H279452   6.153   1.411   1.088  0.9490  1.8725  0.1552
19321TIP3   OH279453   4.074   5.852   5.166  0.3686 -0.2291  0.0588
19321TIP3    H179454   4.011   5.813   5.105  0.8176 -0.0709 -0.5062
19321TIP3    H279455   4.062   5.946   5.155 -0.1301 -0.1972  0.8219
19322TIP3   OH279456   4.196   5.421  13.737 -0.0978  0.5335  0.0353
19322TIP3    H179457   4.207   5.466  13.653  0.2931 -0.8752 -0.6811
19322TIP3    H279458   4.221   5.486  13.802  0.5699  1.3190 -0.9825
19323TIP3   OH279459   2.114   3.887  14.160  0.2006  0.4218  0.2179
19323TIP3    H179460   2.154   3.864  14.244 -0.7011 -0.2813  0.4581
19323TIP3    H279461   2.126   3.809  14.105 -1.0015  0.1278  0.3558
19324TIP3   OH279462   5.397   3.157   3.209  0.3144 -0.4751 -0.2462
19324TIP3    H179463   5.476   3.172   3.261 -0.5640 -0.3854  1.0979
19324TIP3    H279464   5.358   3.244   3.200 -1.3845 -0.9531  2.0026
19325TIP3   OH279465   4.042   6.449  12.181  0.7148  0.2659 -0.4172
19325TIP3    H179466   4.128   6.485  12.200  0.9367 -0.8171  0.7073
19325TIP3    H279467   4.058   6.356  12.166 -0.2905  0.0098  0.0511
19326TIP3   OH279468   3.628   5.542  13.510  0.4374 -0.2378  0.3731
19326TIP3    H179469   3.538   5.509  13.513 -0.3988  1.7706 -1.3340
19326TIP3    H279470   3.622   5.629  13.550  1.7937 -0.4316  1.0160
19327TIP3   OH279471   1.749   3.815  14.447  0.2227 -0.5057  0.3321
19327TIP3    H179472   1.721   3.784  14.361  1.0870  0.8464 -0.4612
19327TIP3    H279473   1.805   3.745  14.481 -0.0282 -0.9972 -0.2549
19328TIP3   OH279474   6.736   4.151   0.925 -0.2643 -0.2741 -0.0626
19328TIP3    H179475   6.791   4.114   0.856 -1.7539 -1.3166 -0.7047
19328TIP3    H279476   6.797   4.201   0.980  1.8534 -3.7054  0.8696
19329TIP3   OH279477   4.304   1.158  16.301 -0.4162  0.3434  0.4828
19329TIP3    H179478   4.241   1.121  16.239  0.7702  0.5169 -0.8634
19329TIP3    H279479   4.298   1.252  16.288  0.2861  0.3507  0.1483
19330TIP3   OH279480   4.083   0.027  16.507  0.3375  0.0544  0.0839
19330TIP3    H179481   4.176   0.030  16.530 -0.2616  2.3643  2.4184
19330TIP3    H279482   4.075   0.087  16.433  1.1020 -2.2200 -1.9318
19331TIP3   OH279483   5.554   2.870  14.032  0.6976  0.0013 -0.3681
19331TIP3    H179484   5.464   2.838  14.025  0.1025  0.9159  2.3237
19331TIP3    H279485   5.607   2.791  14.040 -0.1153 -0.4794  0.3359
19332TIP3   OH279486   3.378   5.900  15.772 -0.0355  0.2182  0.1420
19332TIP3    H179487   3.407   5.991  15.767 -0.2042  0.1974 -1.1270
19332TIP3    H279488   3.435   5.861  15.839 -1.3176  1.7669  2.1912
19333TIP3   OH279489   3.512   0.125  11.674  0.0107  0.8940 -0.6471
19333TIP3    H179490   3.522   0.212  11.712  1.0706  0.4455  0.1253
19333TIP3    H279491   3.599   0.086  11.679 -0.6940 -0.6586  0.1398
19334TIP3   OH279492   0.766   1.131   0.533 -0.0508 -0.5132  0.3442
19334TIP3    H179493   0.796   1.155   0.620 -1.0059 -0.2967  0.6256
19334TIP3    H279494   0.743   1.215   0.492 -1.1157 -0.7471  0.4576
19335TIP3   OH279495   6.126   4.624  15.928 -0.0531  0.3934  0.8632
19335TIP3    H179496   6.032   4.611  15.911 -0.4167  2.3343  1.3171
19335TIP3    H279497   6.141   4.581  16.012 -0.5905  0.3262  0.9289
19336TIP3   OH279498   6.085   2.205  17.154  0.0686  0.2960  0.0982
19336TIP3    H179499   6.170   2.241  17.128  1.3750 -2.1557  0.8164
19336TIP3    H279500   6.021   2.252  17.100  2.0433  0.9093 -1.7727
19337TIP3   OH279501   4.794   0.323   1.874  1.0689 -0.6762  0.0040
19337TIP3    H179502   4.774   0.416   1.871  3.1388 -0.2237 -0.0583
19337TIP3    H279503   4.736   0.288   1.941 -0.9350  0.3307 -1.1526
19338TIP3   OH279504   4.254   4.872  16.626 -0.1545  0.2995 -0.0560
19338TIP3    H179505   4.260   4.936  16.555 -1.0617  0.4486 -0.0008
19338TIP3    H279506   4.338   4.881  16.673  0.8493 -0.4886 -1.6670
19339TIP3   OH279507   1.397   2.579  11.259  0.5051 -0.1908  0.7183
19339TIP3    H179508   1.364   2.598  11.172 -0.2528 -0.9785  0.8397
19339TIP3    H279509   1.463   2.511  11.246  1.2234  0.5027  0.6318
19340TIP3   OH279510   5.952   6.245  16.026  0.9710 -0.3422  0.8101
19340TIP3    H179511   6.046   6.234  16.043  1.1740 -3.9173 -2.0531
19340TIP3    H279512   5.910   6.199  16.099  1.4951 -0.6876  0.9006
19341TIP3   OH279513   0.287   0.146   6.031 -0.1976  0.1977  0.0152
19341TIP3    H179514   0.339   0.092   5.971 -1.6181  0.2782 -1.3193
19341TIP3    H279515   0.351   0.206   6.070  0.7357  0.3041 -1.6023
19342TIP3   OH279516   0.209   0.748   2.874 -1.0063  0.4796  0.4095
19342TIP3    H179517   0.258   0.742   2.956 -0.0576 -0.4199 -0.2047
19342TIP3    H279518   0.196   0.842   2.860 -0.5924  0.6619  1.2481
19343TIP3   OH279519   3.613   1.143   3.126  0.2349  0.9462  0.2308
19343TIP3    H179520   3.654   1.057   3.118 -0.0160  0.9525 -1.3056
19343TIP3    H279521   3.641   1.175   3.211 -0.2639 -0.9794  1.1604
19344TIP3   OH279522   3.594   3.943  17.045 -1.1788 -0.4644  0.3980
19344TIP3    H179523   3.663   3.955  16.981 -0.9245 -0.8126  0.6037
19344TIP3    H279524   3.639   3.911  17.123 -1.6209 -1.0789  0.4049
19345TIP3   OH279525   4.689   5.945  13.268  0.5219 -0.4569 -0.2594
19345TIP3    H179526   4.665   5.863  13.224  1.1094 -0.4597 -0.5832
19345TIP3    H279527   4.782   5.956  13.248  0.6484 -0.1464  0.4922
19346TIP3   OH279528   5.319   2.148   1.544  0.3513 -0.2669  0.1374
19346TIP3    H179529   5.232   2.128   1.580 -0.2238 -0.2197 -1.2002
19346TIP3    H279530   5.301   2.184   1.457  1.8708 -4.4135 -2.0316
19347TIP3   OH279531   1.635   0.019   5.611 -0.0617 -0.1981  0.0169
19347TIP3    H179532   1.656  -0.074   5.603 -1.2749 -0.4749 -0.1416
19347TIP3    H279533   1.629   0.049   5.520 -0.6162 -0.1927  0.0553
19348TIP3   OH279534   2.307   2.611   0.875  0.5212 -0.5847  0.7473
19348TIP3    H179535   2.378   2.585   0.816 -1.5299 -1.4876 -1.3927
19348TIP3    H279536   2.282   2.698   0.844  0.1567 -0.6085  0.9723
19349TIP3   OH279537   2.667   4.162  13.747  0.1812  0.1382  0.2693
19349TIP3    H179538   2.585   4.124  13.778 -0.5391  0.4600 -1.1806
19349TIP3    H279539   2.724   4.086  13.734 -0.5329 -0.2752 -0.5319
19350TIP3   OH279540   2.179   3.631  14.037  0.4192 -0.1427 -0.5322
19350TIP3    H179541   2.127   3.603  14.113 -0.3845  0.7921 -0.7258
19350TIP3    H279542   2.255   3.573  14.037  0.1946 -0.4488  0.7258
19351TIP3   OH279543   6.594   5.242   6.227  0.2790 -0.4097  0.3678
19351TIP3    H179544   6.592   5.304   6.153 -1.2025  0.3163  0.9772
19351TIP3    H279545   6.662   5.275   6.284 -0.0698  0.3129  0.3786
19352TIP3   OH279546   2.864   5.062  12.059  0.5495 -0.2315 -0.4498
19352TIP3    H179547   2.845   4.972  12.032  0.9726 -0.4902  0.1294
19352TIP3    H279548   2.778   5.103  12.068  0.3462 -0.6992 -0.2859
19353TIP3   OH279549   4.693   2.894   5.836  0.4322 -0.0173 -0.1625
19353TIP3    H179550   4.644   2.976   5.842  3.3634  1.7386  0.6656
19353TIP3    H279551   4.626   2.827   5.821 -2.0597  2.4494 -0.4022
19354TIP3   OH279552   5.104   0.245   6.431  0.3098  0.4391  0.0389
19354TIP3    H179553   5.037   0.307   6.403 -0.7838  0.7547  3.1846
19354TIP3    H279554   5.187   0.287   6.407 -0.5150  1.3569 -1.2866
19355TIP3   OH279555   4.116   2.276  10.948  0.8889 -0.4256  1.0191
19355TIP3    H179556   4.167   2.265  11.028 -0.0007 -1.6657  1.4328
19355TIP3    H279557   4.151   2.209  10.889  1.2715  0.2253  0.4914
19356TIP3   OH279558   6.768   5.756   5.548 -0.2638 -0.0184  0.5758
19356TIP3    H179559   6.749   5.823   5.483  1.5327 -1.4218 -1.4749
19356TIP3    H279560   6.687   5.748   5.599 -1.3782  1.8123 -0.8464
19357TIP3   OH279561   2.599   5.013   3.530 -0.4800  0.1502 -0.4089
19357TIP3    H179562   2.577   4.986   3.440  1.2454  0.7637 -1.0418
19357TIP3    H279563   2.657   5.088   3.518 -0.8469  0.7199  1.2522
19358TIP3   OH279564   1.731   5.914  12.696 -0.5490  0.4385  0.5558
19358TIP3    H179565   1.682   5.898  12.615  1.6150 -2.3701 -0.2796
19358TIP3    H279566   1.816   5.947  12.666  0.0034  0.0684  1.6901
19359TIP3   OH279567   3.623   4.268   3.335  0.0835 -0.1463 -0.6350
19359TIP3    H179568   3.615   4.354   3.292 -0.0435  0.0714 -0.1799
19359TIP3    H279569   3.549   4.217   3.302 -1.7333  0.9876  1.5589
19360TIP3   OH279570   2.735   4.721  14.699 -0.1172  0.0062 -0.2600
19360TIP3    H179571   2.815   4.756  14.738  0.7194  0.5328 -2.3501
19360TIP3    H279572   2.667   4.742  14.762  1.3262 -0.1107  1.3877
19361TIP3   OH279573   5.787   0.884   4.024 -0.1837 -0.2591  0.4220
19361TIP3    H179574   5.861   0.824   4.013 -0.3105 -0.3508  0.0973
19361TIP3    H279575   5.826   0.972   4.015  0.3841 -0.2129  2.9428
19362TIP3   OH279576   3.294   1.309   1.352  0.2842 -0.2294 -0.1118
19362TIP3    H179577   3.312   1.353   1.436 -2.0470 -0.0071  0.2974
19362TIP3    H279578   3.280   1.218   1.375  2.5760 -0.7545 -0.6568
19363TIP3   OH279579   4.678   1.039  10.464 -0.3714 -0.2123 -0.8231
19363TIP3    H179580   4.615   1.111  10.464  0.3739  0.4460 -0.8499
19363TIP3    H279581   4.655   0.986  10.541 -1.6775 -0.6190 -1.4879
19364TIP3   OH279582   2.703   5.427  11.369  0.2495  0.6595  0.1772
19364TIP3    H179583   2.734   5.404  11.282 -2.6111 -1.2421 -0.4161
19364TIP3    H279584   2.732   5.354  11.425 -1.4262 -0.1862 -0.0214
19365TIP3   OH279585   3.397   5.859   0.697  0.3084  0.1360 -0.2215
19365TIP3    H179586   3.414   5.875   0.604  0.4293  0.7192 -0.1033
19365TIP3    H279587   3.351   5.775   0.699  3.7564 -1.8305 -0.4876
19366TIP3   OH279588   5.795   0.595  14.310  0.2418 -0.8067 -0.1348
19366TIP3    H179589   5.861   0.552  14.364  0.8592  1.0499  0.6274
19366TIP3    H279590   5.797   0.687  14.338  0.3782  0.1421 -3.1250
19367TIP3   OH279591   6.009   6.419  17.184  0.1487  0.1775 -0.6166
19367TIP3    H179592   6.036   6.443  17.272  0.0025 -0.9989 -0.2360
19367TIP3    H279593   6.067   6.346  17.160 -1.3892 -1.1094 -0.5369
19368TIP3   OH279594   4.346   5.586   0.048 -0.0620  0.2890  0.5108
19368TIP3    H179595   4.422   5.530   0.030 -0.5179 -0.7765  1.7815
19368TIP3    H279596   4.274   5.544   0.001  0.1141  1.2396 -0.6116
19369TIP3   OH279597   3.233   2.515   2.255  0.2006  0.0107 -0.5986
19369TIP3    H179598   3.196   2.434   2.291  0.1784  1.1166  1.9876
19369TIP3    H279599   3.326   2.496   2.244  0.1359 -0.4718 -0.3160
19370TIP3   OH279600   0.518   6.098   2.259  0.0677 -0.2542  0.5201
19370TIP3    H179601   0.482   6.179   2.222  0.1069 -0.8647 -0.8677
19370TIP3    H279602   0.613   6.106   2.246  0.3117  0.5365  2.5449
19371TIP3   OH279603   6.504   3.043   0.713 -0.2877  0.2701  0.7531
19371TIP3    H179604   6.545   2.957   0.698 -0.1640  0.3665  0.5300
19371TIP3    H279605   6.536   3.071   0.798 -0.2467  0.1395  0.7804
19372TIP3   OH279606   3.275   1.568  12.895  0.2734  0.0509  0.3170
19372TIP3    H179607   3.338   1.504  12.927 -0.3931 -0.6630  0.2173
19372TIP3    H279608   3.306   1.591  12.807 -0.1838 -1.0850 -0.1438
19373TIP3   OH279609   5.557   3.420  16.084  0.3751 -0.1446 -0.2591
19373TIP3    H179610   5.633   3.365  16.102  1.1245  1.1474  0.5408
19373TIP3    H279611   5.563   3.440  15.990 -0.2539 -1.9369 -0.6959
19374TIP3   OH279612   5.356   3.555  16.803 -0.2124 -0.0441 -0.2224
19374TIP3    H179613   5.373   3.543  16.896  0.1425 -1.6352 -0.4832
19374TIP3    H279614   5.338   3.649  16.794 -0.1375  0.1429  1.4190
19375TIP3   OH279615   0.610   6.710  14.167  0.1320 -0.2532 -0.0013
19375TIP3    H179616   0.622   6.781  14.229  2.7561 -2.1093  1.7030
19375TIP3    H279617   0.602   6.631  14.221  0.5250 -1.6681 -1.9363
19376TIP3   OH279618   4.676   3.732   6.053 -0.3381  0.7487 -0.3103
19376TIP3    H179619   4.665   3.737   6.148  1.0973  0.1012 -0.0926
19376TIP3    H279620   4.767   3.758   6.038 -0.1121 -0.6047 -1.3606
19377TIP3   OH279621   4.831   6.478  16.736  0.2366 -0.2651  0.0447
19377TIP3    H179622   4.911   6.427  16.739 -0.8063 -1.9410 -0.2204
19377TIP3    H279623   4.834   6.523  16.651  0.2795 -1.3719 -0.5540
19378TIP3   OH279624   5.390   2.801  11.489 -0.3064  0.4513  0.4278
19378TIP3    H179625   5.420   2.710  11.492 -1.9139 -0.0677  1.4036
19378TIP3    H279626   5.401   2.827  11.398 -0.4234 -0.9387  0.0033
19379TIP3   OH279627   0.042   2.841  11.597  0.7393  0.2914  0.2949
19379TIP3    H179628  -0.052   2.835  11.613  0.5261  2.6620  0.1809
19379TIP3    H279629   0.057   2.789  11.519 -0.6611  0.7084 -0.2602
19380TIP3   OH279630   0.853   2.394  15.760 -0.0327  0.2343 -0.1950
19380TIP3    H179631   0.914   2.411  15.831 -0.9286  0.8396  0.4518
19380TIP3    H279632   0.876   2.458  15.692 -1.6095  2.2573  1.1123
19381TIP3   OH279633   5.133   4.277   6.656  0.1581 -0.2286  0.3525
19381TIP3    H179634   5.085   4.233   6.726  3.3803 -0.4269  2.5319
19381TIP3    H279635   5.104   4.368   6.661  0.6152 -0.1730  2.1869
19382TIP3   OH279636   1.456   0.853   1.848  0.7597  0.2524 -0.1762
19382TIP3    H179637   1.517   0.838   1.776  0.6242 -1.0745 -0.0254
19382TIP3    H279638   1.502   0.915   1.905  0.6379  1.7540 -1.6642
19383TIP3   OH279639   1.135   1.871  14.937 -0.7816  0.4640  0.0906
19383TIP3    H179640   1.166   1.803  14.997  0.9505  0.9626 -0.1952
19383TIP3    H279641   1.042   1.879  14.955 -2.0451 -5.0553 -2.8856
19384TIP3   OH279642   0.615   0.662   5.376  0.1785 -0.2132  0.5118
19384TIP3    H179643   0.598   0.718   5.452  0.1838 -0.5565  0.7706
19384TIP3    H279644   0.562   0.699   5.306 -0.6297 -0.5171  0.9650
19385TIP3   OH279645   5.295   6.675   3.178  0.4182  0.0889  0.3012
19385TIP3    H179646   5.223   6.651   3.236 -0.2788  0.6783 -0.3007
19385TIP3    H279647   5.257   6.670   3.090  1.8370 -2.0866 -0.2017
19386TIP3   OH279648   2.762   2.212  11.502 -0.4184  0.5376 -0.1203
19386TIP3    H179649   2.802   2.294  11.474 -1.7381  1.5066  0.7742
19386TIP3    H279650   2.767   2.155  11.425  4.5894 -0.1683  0.5545
19387TIP3   OH279651   4.928   4.990   0.496  0.1132  0.0198  0.7607
19387TIP3    H179652   4.879   4.918   0.535 -1.2086  1.0446  1.0222
19387TIP3    H279653   5.010   4.993   0.546 -0.2809 -0.5979  1.4479
19388TIP3   OH279654   2.244   1.492  11.797 -0.1240  0.4954  0.5698
19388TIP3    H179655   2.335   1.473  11.777  0.2786  0.2742  2.4749
19388TIP3    H279656   2.247   1.564  11.860 -1.2020 -0.1655  1.4128
19389TIP3   OH279657   5.954   0.264  12.868 -0.2420  0.0232  0.4224
19389TIP3    H179658   5.968   0.201  12.797  0.0916  2.2102 -1.5301
19389TIP3    H279659   6.039   0.307  12.879 -0.3559 -0.1187  1.9919
19390TIP3   OH279660   5.578   1.677   5.890 -0.1681 -0.2402  0.4534
19390TIP3    H179661   5.484   1.679   5.910 -0.3075 -0.7304 -0.1355
19390TIP3    H279662   5.616   1.621   5.958 -0.5083 -1.1704 -0.1181
19391TIP3   OH279663   0.495   2.313   2.276  0.0402  0.5666  0.6581
19391TIP3    H179664   0.468   2.374   2.345  2.1231  0.2526  1.7752
19391TIP3    H279665   0.468   2.227   2.307  1.3816  0.3690  1.3348
19392TIP3   OH279666   2.022   1.011   2.134  0.4068 -0.0693 -0.2055
19392TIP3    H179667   1.936   0.974   2.153 -0.4303  1.8800 -0.0516
19392TIP3    H279668   2.078   0.979   2.205 -0.2756 -1.0035 -0.0740
19393TIP3   OH279669   3.719   2.541   1.546 -0.1548 -0.6290  0.4797
19393TIP3    H179670   3.770   2.607   1.592 -1.1923  0.4335  0.1156
19393TIP3    H279671   3.670   2.496   1.615 -0.1163 -0.4373  0.6319
19394TIP3   OH279672   1.846   4.121  17.056 -0.5697  0.0013  0.0228
19394TIP3    H179673   1.810   4.055  16.997 -0.4518 -0.9699  1.0105
19394TIP3    H279674   1.776   4.135  17.121  0.0921 -0.4701  0.8417
19395TIP3   OH279675   6.669   5.250  16.090 -0.3805 -0.0726 -0.1377
19395TIP3    H179676   6.598   5.286  16.144 -0.3566 -0.9547  0.5079
19395TIP3    H279677   6.641   5.161  16.070 -0.2014  0.1208 -1.2681
19396TIP3   OH279678   2.485   1.084   3.918  0.1470 -0.1815  0.2711
19396TIP3    H179679   2.531   1.106   3.999  0.2931  1.7906 -0.3138
19396TIP3    H279680   2.410   1.144   3.917 -0.9927 -1.6127 -0.0367
19397TIP3   OH279681   3.724   5.341   2.975  0.1719 -0.4370 -0.2014
19397TIP3    H179682   3.809   5.380   2.993 -0.1760 -0.4467  1.5363
19397TIP3    H279683   3.661   5.409   2.995 -0.2816 -0.8017 -0.3714
19398TIP3   OH279684   2.669   4.690   3.875  0.7190 -0.6633  0.3866
19398TIP3    H179685   2.708   4.735   3.950  1.6699  1.6564 -1.4273
19398TIP3    H279686   2.741   4.638   3.838  1.3802  1.3742 -1.2711
19399TIP3   OH279687   3.809   3.951  16.887  0.4845  0.5451  0.1062
19399TIP3    H179688   3.822   4.011  16.814  0.3189 -0.1329 -0.4905
19399TIP3    H279689   3.897   3.921  16.911  0.4381 -0.2397 -0.6809
19400TIP3   OH279690   1.397   1.836  13.889  0.4047 -0.1069 -0.1775
19400TIP3    H179691   1.351   1.903  13.941 -0.6101 -1.1072  0.2508
19400TIP3    H279692   1.426   1.772  13.954  0.4309 -0.6257 -0.6989
19401TIP3   OH279693   2.601   4.999  16.368  0.2344  0.4823 -0.1791
19401TIP3    H179694   2.608   4.905  16.357  1.6984  0.7524 -1.8234
19401TIP3    H279695   2.605   5.034  16.279 -2.2981  1.9988  0.2548
19402TIP3   OH279696   1.053   0.147   3.725  0.3833  0.4697  0.0513
19402TIP3    H179697   0.999   0.080   3.766 -0.7148  1.7503  0.7480
19402TIP3    H279698   1.042   0.132   3.631  1.1061 -1.0677  0.2110
19403TIP3   OH279699   3.294   2.038  14.717  0.0722 -0.0912 -0.2928
19403TIP3    H179700   3.367   1.980  14.697 -0.8579 -1.5160  0.4282
19403TIP3    H279701   3.328   2.126  14.699  2.5459 -0.5702  1.7743
19404TIP3   OH279702   3.395   0.443  13.348 -0.1353  0.0006 -0.2629
19404TIP3    H179703   3.338   0.519  13.341 -0.7470 -0.5515 -1.5008
19404TIP3    H279704   3.340   0.375  13.388  0.0919 -0.0918 -0.1072
19405TIP3   OH279705   3.237   4.962   2.396  0.0575  0.5021 -0.3157
19405TIP3    H179706   3.295   5.037   2.410  0.1681  0.9476 -2.8744
19405TIP3    H279707   3.200   4.977   2.309 -1.5587 -1.3433  0.0261
19406TIP3   OH279708   0.788   0.397  13.707 -0.1643  0.4651 -0.5085
19406TIP3    H179709   0.741   0.413  13.625  1.0911 -0.3166 -1.4119
19406TIP3    H279710   0.874   0.436  13.693 -0.2648  1.1717  0.8070
19407TIP3   OH279711   1.898   3.443   4.775  0.6289 -0.0232  0.2485
19407TIP3    H179712   1.872   3.448   4.867 -0.1711 -0.3960  0.0480
19407TIP3    H279713   1.818   3.417   4.729  1.2062 -0.5509 -0.4593
19408TIP3   OH279714   3.416   6.221   0.985  0.0908  0.4928  0.3964
19408TIP3    H179715   3.361   6.159   0.936  0.9054  1.5883 -1.9986
19408TIP3    H279716   3.358   6.257   1.052 -1.9037  1.0231 -1.5371
19409TIP3   OH279717   0.986   6.297  14.031 -0.3166  0.6019  0.1106
19409TIP3    H179718   0.982   6.374  14.088 -0.4508  0.1829  0.6748
19409TIP3    H279719   0.895   6.272  14.018 -0.3741  1.5816 -1.5213
19410TIP3   OH279720   4.035   4.774   5.453 -0.2290 -0.0991 -0.5671
19410TIP3    H179721   4.076   4.706   5.507 -1.7533 -0.8990 -0.3863
19410TIP3    H279722   4.099   4.793   5.385  1.6838  0.8396  1.4479
19411TIP3   OH279723   1.334   4.633  13.882  0.3114  1.2332  0.3370
19411TIP3    H179724   1.363   4.574  13.952  0.3279  2.4604  1.3863
19411TIP3    H279725   1.354   4.586  13.801 -0.0033 -0.3462  1.1655
19412TIP3   OH279726   4.341   3.914  12.024  0.1840  0.0059 -0.3334
19412TIP3    H179727   4.433   3.902  12.046  0.1000  0.1871  0.1287
19412TIP3    H279728   4.302   3.827  12.033 -0.0967  0.2912  1.4492
19413TIP3   OH279729   0.466   1.512   1.455 -0.0208  0.2827 -0.5653
19413TIP3    H179730   0.554   1.476   1.470  1.5208  4.1507  0.3563
19413TIP3    H279731   0.451   1.498   1.361  2.7295  1.7950 -1.3105
19414TIP3   OH279732   5.096   1.874  12.472  0.0658  0.4601  0.2887
19414TIP3    H179733   5.052   1.895  12.390 -1.3804  2.5972  1.5635
19414TIP3    H279734   5.094   1.778  12.476  1.0060  0.2677 -2.5754
19415TIP3   OH279735   6.009   0.425   2.610 -0.4094  0.8491 -0.7470
19415TIP3    H179736   5.918   0.443   2.586 -0.7172 -0.0466 -0.2479
19415TIP3    H279737   6.004   0.351   2.670  0.4133  2.5193  1.4322
19416TIP3   OH279738   6.538   2.729  15.669  0.0176  0.1636 -0.0173
19416TIP3    H179739   6.464   2.674  15.646  0.0125  0.0616  0.2413
19416TIP3    H279740   6.600   2.717  15.597 -0.4577  0.6984 -0.5172
19417TIP3   OH279741   3.634   5.142  11.666  0.1612 -0.0856  0.1883
19417TIP3    H179742   3.667   5.062  11.707  1.7195 -0.0449 -0.9083
19417TIP3    H279743   3.555   5.115  11.620  1.7365 -1.4816 -1.8244
19418TIP3   OH279744   6.009   2.900  13.911 -0.1807  0.1801 -0.2993
19418TIP3    H179745   6.072   2.916  13.981  0.4811  1.2909 -1.1331
19418TIP3    H279746   6.062   2.889  13.833 -1.0610  3.5907 -1.4704
19419TIP3   OH279747   6.487   4.290   0.896 -0.2950  0.0529 -0.2378
19419TIP3    H179748   6.475   4.211   0.843 -0.4172 -1.0663  1.4138
19419TIP3    H279749   6.577   4.284   0.928 -0.4714  0.3405  0.3102
19420TIP3   OH279750   1.360   0.793   5.600 -0.1693 -0.2192 -0.5906
19420TIP3    H179751   1.332   0.708   5.633  0.1718  0.2694  1.0009
19420TIP3    H279752   1.379   0.778   5.508 -0.1744 -1.8464 -0.3372
19421TIP3   OH279753   5.108   3.209   1.301 -0.0529 -0.3304 -0.4420
19421TIP3    H179754   5.172   3.281   1.308 -0.7795  0.0617  3.1087
19421TIP3    H279755   5.034   3.237   1.356 -1.4970 -2.6116 -1.1547
19422TIP3   OH279756   2.232   4.230  13.102  0.0380 -0.0467 -0.4447
19422TIP3    H179757   2.320   4.199  13.125 -0.3949  0.7068  2.3923
19422TIP3    H279758   2.187   4.151  13.069  0.3404 -1.5075  2.4850
19423TIP3   OH279759   0.595   5.613   0.127  0.3296  0.8848 -0.4532
19423TIP3    H179760   0.540   5.662   0.188 -0.4732  0.5472 -0.8865
19423TIP3    H279761   0.536   5.546   0.091  0.9390  0.7356 -1.1840
19424TIP3   OH279762   0.933   5.317  14.240 -0.1992 -0.5532 -0.0900
19424TIP3    H179763   0.971   5.400  14.270 -1.0496 -0.7955  1.7655
19424TIP3    H279764   0.856   5.343  14.189  0.2504 -0.1662 -0.5766
19425TIP3   OH279765   2.327   5.539   5.601  0.2612 -0.3019 -0.1287
19425TIP3    H179766   2.281   5.589   5.534 -0.6814  1.4459  1.7960
19425TIP3    H279767   2.285   5.453   5.600 -1.1555  0.3929 -0.3197
19426TIP3   OH279768   4.651   4.366   2.190  0.0534 -0.1101  0.2799
19426TIP3    H179769   4.686   4.370   2.279  0.5276  0.2899  0.0740
19426TIP3    H279770   4.661   4.274   2.164 -2.1236 -0.7306  1.4552
19427TIP3   OH279771   3.262   4.326  15.018  0.6785  0.3809  0.0584
19427TIP3    H179772   3.171   4.295  15.020  0.3205  1.4281  0.0287
19427TIP3    H279773   3.295   4.300  14.932 -0.0075  1.1771 -0.4474
19428TIP3   OH279774   2.640   3.517   5.524 -0.2809  0.7360 -0.0364
19428TIP3    H179775   2.640   3.423   5.543 -1.3640  0.1393 -2.8023
19428TIP3    H279776   2.720   3.531   5.474 -0.0673  1.3243  0.4636
19429TIP3   OH279777   6.141   1.374   1.403 -0.2281  0.2744 -0.4049
19429TIP3    H179778   6.139   1.361   1.498  0.0101 -1.3067 -0.5968
19429TIP3    H279779   6.147   1.285   1.367 -1.0381  0.8159 -1.9222
19430TIP3   OH279780   4.303   0.016   1.092 -0.8177  0.1898 -0.4439
19430TIP3    H179781   4.252  -0.066   1.095  0.3819 -0.5734 -0.6161
19430TIP3    H279782   4.323   0.028   1.000  0.3024 -0.1298 -0.2425
19431TIP3   OH279783   5.713   1.582   6.106 -0.0652  0.0910 -0.3905
19431TIP3    H179784   5.642   1.615   6.162  1.2723 -1.2524  2.1829
19431TIP3    H279785   5.788   1.639   6.127  0.8026 -1.2349  0.1869
19432TIP3   OH279786   2.373   6.740   0.244  0.3245 -0.1813 -0.4743
19432TIP3    H179787   2.364   6.646   0.264  3.0121  0.2137  3.1942
19432TIP3    H279788   2.413   6.742   0.157  1.0427 -2.4838 -0.2404
19433TIP3   OH279789   6.568   5.102   2.025  0.1797 -0.2813  0.2733
19433TIP3    H179790   6.634   5.158   1.984 -0.5764  0.7329  0.4360
19433TIP3    H279791   6.614   5.020   2.041  0.9791 -0.1068 -1.0101
19434TIP3   OH279792   1.895   0.701   3.365 -0.1494 -0.0997  0.0934
19434TIP3    H179793   1.823   0.638   3.364 -1.7502  1.6361  1.9982
19434TIP3    H279794   1.959   0.664   3.426 -0.5696 -0.4189  0.3371
19435TIP3   OH279795   1.701   1.639   5.877 -0.0722 -0.5293 -0.4497
19435TIP3    H179796   1.672   1.667   5.790 -1.3985 -0.7253 -0.0836
19435TIP3    H279797   1.698   1.719   5.930 -0.6116 -0.6903 -0.2380
19436TIP3   OH279798   4.253   0.300  13.571  0.3846 -0.0965  0.0215
19436TIP3    H179799   4.279   0.278  13.482  0.6443 -0.4723  0.1916
19436TIP3    H279800   4.194   0.229  13.597  0.9281 -0.3954  0.4330
19437TIP3   OH279801   2.814   2.657  16.136 -0.2929 -0.8862  0.0379
19437TIP3    H179802   2.873   2.656  16.060  1.6944 -0.2779  1.5206
19437TIP3    H279803   2.777   2.569  16.138  1.1378 -1.5281 -0.5162
19438TIP3   OH279804   4.076   2.143  11.715 -0.0370  0.3357  0.2930
19438TIP3    H179805   4.079   2.050  11.738 -0.2411  0.1719 -0.3140
19438TIP3    H279806   4.122   2.187  11.786 -0.4243 -0.1738  0.8707
19439TIP3   OH279807   1.035   1.962   6.414  0.1178 -0.2122 -0.0123
19439TIP3    H179808   1.079   2.047   6.420 -1.5918  0.7868 -1.1842
19439TIP3    H279809   1.050   1.934   6.324 -0.9298 -0.2367 -0.1873
19440TIP3   OH279810   0.593   0.671   4.219 -0.0648 -0.1829  0.0783
19440TIP3    H179811   0.628   0.582   4.223 -0.5080 -0.3390  0.5314
19440TIP3    H279812   0.669   0.726   4.200  0.2066 -0.6578 -0.2191
19441TIP3   OH279813   4.755   2.696  13.168 -0.9485  0.2674 -0.3097
19441TIP3    H179814   4.700   2.711  13.092 -0.1217  0.1800 -0.9384
19441TIP3    H279815   4.837   2.662  13.132 -0.5737  0.1587  0.6225
19442TIP3   OH279816   1.495   6.424  11.301  0.4459 -0.1560  0.3075
19442TIP3    H179817   1.407   6.443  11.267 -0.2213 -0.5591  1.7652
19442TIP3    H279818   1.545   6.504  11.286 -0.0341 -0.0777 -0.9467
19443TIP3   OH279819   2.626   5.093  11.682 -0.4041  0.5365 -0.2212
19443TIP3    H179820   2.539   5.064  11.654 -0.6593  1.2032 -0.1278
19443TIP3    H279821   2.611   5.133  11.768  0.1168 -0.0360  0.1449
19444TIP3   OH279822   0.644   6.422   2.179  0.3327 -0.3288  0.6226
19444TIP3    H179823   0.629   6.475   2.101  1.6034 -1.0159 -0.1017
19444TIP3    H279824   0.617   6.478   2.252  0.5738  0.8842 -0.2069
19445TIP3   OH279825   2.355   3.401  11.699  0.3214  0.4785 -0.0461
19445TIP3    H179826   2.422   3.457  11.739  0.1267 -0.5460  1.7516
19445TIP3    H279827   2.366   3.415  11.605  3.0388  0.3470  0.2023
19446TIP3   OH279828   2.333   5.203   6.182 -0.0129 -0.0279  0.3234
19446TIP3    H179829   2.330   5.178   6.274  2.3367  0.2568  0.5248
19446TIP3    H279830   2.343   5.298   6.184  0.7943 -0.1007 -0.1983
19447TIP3   OH279831   4.768   1.516   0.289 -0.6250 -0.5367 -0.2789
19447TIP3    H179832   4.862   1.519   0.273 -0.8545  0.1115 -1.5701
19447TIP3    H279833   4.752   1.428   0.322  0.3066 -0.9361 -0.8808
19448TIP3   OH279834   0.383   0.847   3.460 -0.5658 -0.5799  0.4766
19448TIP3    H179835   0.307   0.824   3.407 -0.4873 -0.9721  0.5387
19448TIP3    H279836   0.367   0.805   3.545 -0.4434 -0.3830  0.5984
19449TIP3   OH279837   2.431   5.396   0.333  0.4762 -0.4209 -0.2412
19449TIP3    H179838   2.523   5.371   0.319  1.2427  0.8445  2.3420
19449TIP3    H279839   2.420   5.477   0.282  1.3044  0.3981  0.8634
19450TIP3   OH279840   3.642   3.810   5.154  0.0615 -0.2698  0.0491
19450TIP3    H179841   3.605   3.783   5.238  2.1883 -1.2889  0.6785
19450TIP3    H279842   3.625   3.736   5.095 -0.8623  0.1865 -0.2787
19451TIP3   OH279843   0.510   2.474   4.791 -0.5888  0.8536  0.1054
19451TIP3    H179844   0.552   2.540   4.846 -1.2077  1.4235 -0.0848
19451TIP3    H279845   0.441   2.437   4.846 -0.4439  0.5852  0.1076
19452TIP3   OH279846   0.577   4.402   3.359 -0.2360 -0.0117  0.1655
19452TIP3    H179847   0.492   4.439   3.383 -0.3522 -0.3501  0.2675
19452TIP3    H279848   0.641   4.462   3.398 -0.4259  0.1822  0.1782
19453TIP3   OH279849   0.690   5.771  16.171  0.0934 -0.1277 -0.4366
19453TIP3    H179850   0.754   5.717  16.217 -0.8737 -1.1177 -0.2312
19453TIP3    H279851   0.707   5.754  16.079 -0.4640 -1.0876 -0.3654
19454TIP3   OH279852   3.759   5.550  12.766  0.3946 -0.1992 -0.2676
19454TIP3    H179853   3.817   5.608  12.815 -1.3604  0.0378  1.5951
19454TIP3    H279854   3.736   5.481  12.829 -0.2361 -1.0504 -1.4122
19455TIP3   OH279855   0.163   3.316  14.767 -0.0020  0.4832 -0.0379
19455TIP3    H179856   0.251   3.308  14.729  1.5414 -2.7510  3.8790
19455TIP3    H279857   0.171   3.388  14.829 -0.2043  0.3452  0.1446
19456TIP3   OH279858   1.364   6.428   0.007 -0.1342 -0.2610 -0.9987
19456TIP3    H179859   1.374   6.350  -0.048  0.7866 -0.5431 -0.4427
19456TIP3    H279860   1.448   6.437   0.052 -0.8330  0.0132  0.2882
19457TIP3   OH279861   3.601   2.176   2.725 -0.1884 -0.7110 -0.3690
19457TIP3    H179862   3.619   2.090   2.689 -0.7413 -1.2984  0.7127
19457TIP3    H279863   3.640   2.175   2.812  0.5511  0.4412 -0.6715
19458TIP3   OH279864   6.238   4.201  13.876 -0.4934 -0.2268  0.2127
19458TIP3    H179865   6.303   4.197  13.806 -0.7199 -0.9846  0.0367
19458TIP3    H279866   6.225   4.294  13.892 -3.0989  0.1035 -3.2746
19459TIP3   OH279867   1.150   6.062  11.809 -0.1333  1.1100  0.1915
19459TIP3    H179868   1.058   6.074  11.789 -0.2347  1.0597  0.6314
19459TIP3    H279869   1.183   6.008  11.737 -1.0203 -1.0322  1.3416
19460TIP3   OH279870   1.928   3.933  12.904  0.3999 -0.2690 -0.7893
19460TIP3    H179871   1.854   3.902  12.851  0.2549  0.5037 -1.0385
19460TIP3    H279872   1.958   3.854  12.950  0.6895 -1.0110 -2.2077
19461TIP3   OH279873   4.496   5.723   2.196 -0.2844 -0.3260  0.4593
19461TIP3    H179874   4.521   5.637   2.162 -1.4027 -0.6051  0.3094
19461TIP3    H279875   4.414   5.707   2.244 -0.0687  0.5128  1.1259
19462TIP3   OH279876   1.637   6.311  15.977  0.8352  0.0326 -0.4675
19462TIP3    H179877   1.680   6.393  16.001  0.9795  0.2014 -1.3097
19462TIP3    H279878   1.546   6.323  16.006  0.8544  0.4908 -0.5942
19463TIP3   OH279879   4.202   5.697  15.405  0.3321 -0.3630 -0.5087
19463TIP3    H179880   4.266   5.639  15.364  0.8309 -0.3000  0.1778
19463TIP3    H279881   4.128   5.640  15.428 -0.0358 -0.3644 -1.6698
19464TIP3   OH279882   3.070   3.379   2.448 -0.2651  0.3794  0.0751
19464TIP3    H179883   3.127   3.373   2.524 -0.5761 -3.4506  0.1061
19464TIP3    H279884   2.981   3.381   2.485 -0.4109 -1.3402 -0.1362
19465TIP3   OH279885   2.132   6.450  17.191 -0.3170  0.2725 -0.4738
19465TIP3    H179886   2.148   6.427  17.282  2.5512  0.9465 -0.7643
19465TIP3    H279887   2.068   6.520  17.194  0.0123  0.5135  1.0418
19466TIP3   OH279888   2.218   5.067  11.304 -0.3426  0.8872 -0.2208
19466TIP3    H179889   2.159   5.043  11.232 -0.3947  2.7420 -0.8370
19466TIP3    H279890   2.159   5.102  11.372 -0.3409 -1.2893  0.9427
19467TIP3   OH279891   4.031   2.493  14.733 -0.3469 -0.5636  0.2926
19467TIP3    H179892   4.004   2.402  14.726 -0.9260 -0.3224 -0.6792
19467TIP3    H279893   3.952   2.539  14.761 -0.0850 -0.3395  0.6689
19468TIP3   OH279894   1.573   3.629  15.445 -0.4238  0.5711  0.0540
19468TIP3    H179895   1.524   3.547  15.438  0.8294 -0.3240  1.3367
19468TIP3    H279896   1.650   3.614  15.389 -1.5746  1.9751 -1.9821
19469TIP3   OH279897   6.095   5.409  15.686 -0.6042  0.4001  0.8204
19469TIP3    H179898   6.187   5.437  15.694 -0.7364  1.8474 -1.9649
19469TIP3    H279899   6.058   5.423  15.773  1.4211  1.3585  1.5607
19470TIP3   OH279900   3.816   0.698   3.044  0.3207  0.4784  0.4181
19470TIP3    H179901   3.851   0.611   3.064 -0.2428  0.3617  0.9233
19470TIP3    H279902   3.863   0.725   2.965 -1.4327 -1.4546 -1.3695
19471TIP3   OH279903   0.283   6.782   3.631  0.3975  0.3459 -0.1467
19471TIP3    H179904   0.285   6.776   3.536 -0.3837  5.1885 -0.5990
19471TIP3    H279905   0.375   6.787   3.657  0.6006 -0.7054 -0.6230
19472TIP3   OH279906   5.858   4.386   2.556  0.1563 -0.0496 -0.0511
19472TIP3    H179907   5.768   4.366   2.528  0.7105 -1.2345 -1.0570
19472TIP3    H279908   5.865   4.345   2.643 -0.6105  0.9884  0.5083
19473TIP3   OH279909   2.652   3.639  16.999 -0.1470 -0.3303  0.1103
19473TIP3    H179910   2.581   3.694  17.031  0.2382 -0.0431  0.4766
19473TIP3    H279911   2.609   3.576  16.940 -0.9635 -1.3318  1.7539
19474TIP3   OH279912   4.068   1.543   4.007  0.2235  0.1785 -0.5540
19474TIP3    H179913   4.017   1.624   4.013  0.4879  0.3142 -0.1414
19474TIP3    H279914   4.157   1.571   3.986  0.0017 -0.0966 -1.9098
19475TIP3   OH279915   2.190   0.001  14.371 -0.5209 -0.2368  0.2141
19475TIP3    H179916   2.217   0.036  14.455 -0.1640  0.3607 -0.1437
19475TIP3    H279917   2.227  -0.087  14.368  1.6476  0.6653 -0.3764
19476TIP3   OH279918   6.690   2.124  16.718  0.8575  0.5538  0.8696
19476TIP3    H179919   6.756   2.054  16.715  0.9650  0.6738  0.0308
19476TIP3    H279920   6.720   2.186  16.651 -0.9511 -0.1508 -0.6189
19477TIP3   OH279921   1.968   0.425   6.007 -0.2168  0.4230 -0.3383
19477TIP3    H179922   1.894   0.401   5.950 -1.7582 -0.3009  1.8720
19477TIP3    H279923   1.927   0.471   6.080  1.7830  1.8103 -0.0831
19478TIP3   OH279924   4.005   1.320   5.163  0.1491  0.1755  0.8078
19478TIP3    H179925   4.094   1.333   5.132 -0.5793  1.4356 -0.8051
19478TIP3    H279926   4.012   1.248   5.227  2.0558 -0.7417 -0.3925
19479TIP3   OH279927   5.036   1.202  11.580  0.3059 -0.0588 -0.1070
19479TIP3    H179928   5.097   1.203  11.654 -0.2305 -1.5468  0.3631
19479TIP3    H279929   5.093   1.197  11.503  0.7951 -1.1146  0.3195
19480TIP3   OH279930   0.539   1.290   3.572 -0.6080 -1.0847  0.2870
19480TIP3    H179931   0.507   1.212   3.527 -0.7517 -1.1053  0.4232
19480TIP3    H279932   0.634   1.290   3.557 -1.1715  1.5430 -4.2388
19481TIP3   OH279933   4.649   1.299   6.019 -0.1996  0.2175 -0.4451
19481TIP3    H179934   4.726   1.346   6.049 -0.0221 -0.4610  0.1912
19481TIP3    H279935   4.617   1.253   6.097  0.9016 -2.4265 -1.4720
19482TIP3   OH279936   0.066   6.764   5.185  0.0719 -0.5967  0.7323
19482TIP3    H179937   0.135   6.824   5.155  0.9272 -1.2434  1.3817
19482TIP3    H279938  -0.016   6.810   5.165  0.7004  0.5248  0.6698
19483TIP3   OH279939   4.634   4.033   0.124 -0.2666  0.1173  0.0011
19483TIP3    H179940   4.671   4.018   0.212 -1.2983  0.5234  0.5113
19483TIP3    H279941   4.643   4.127   0.110  0.7230 -0.0817 -0.7098
19484TIP3   OH279942   5.487   4.024   0.147 -0.0914 -0.1226 -0.4121
19484TIP3    H179943   5.409   4.075   0.125 -0.2748 -1.0171 -1.8985
19484TIP3    H279944   5.490   3.954   0.081 -0.1853 -2.4146  1.9144
19485TIP3   OH279945   1.027   2.979   4.322 -0.2721  0.4951  0.4268
19485TIP3    H179946   1.057   2.888   4.326 -0.7637  0.3430  0.6543
19485TIP3    H279947   1.075   3.023   4.392 -1.6365 -0.0567  1.7299
19486TIP3   OH279948   4.073   1.029  13.384 -0.3325  0.1309  0.3023
19486TIP3    H179949   4.003   1.023  13.319 -1.1248  0.0936  1.1597
19486TIP3    H279950   4.108   0.940  13.390 -2.2502 -0.5262  2.1164
19487TIP3   OH279951   3.723   4.923  11.819 -0.3250 -0.2843  1.1819
19487TIP3    H179952   3.816   4.906  11.835 -0.0228 -0.1294 -0.3664
19487TIP3    H279953   3.679   4.841  11.842  0.3364 -0.7838  0.6867
19488TIP3   OH279954   2.914   3.118  14.810  0.3485  0.4820  0.1728
19488TIP3    H179955   2.966   3.111  14.890  0.0620 -1.3920  0.2090
19488TIP3    H279956   2.823   3.103  14.838  0.3203 -0.8425 -0.5942
19489TIP3   OH279957   3.416   3.142   4.558  0.0228 -0.3214 -0.0181
19489TIP3    H179958   3.372   3.059   4.539  1.0482 -0.5881 -1.3446
19489TIP3    H279959   3.493   3.141   4.501  1.6945  0.1685  2.1659
19490TIP3   OH279960   6.074   3.551  15.765  0.0120  0.1878 -0.3353
19490TIP3    H179961   5.999   3.535  15.823  0.2864 -0.0939 -0.0608
19490TIP3    H279962   6.141   3.587  15.822 -0.1408  1.0798 -0.7065
19491TIP3   OH279963   2.218   5.111  16.988  0.1673 -0.4189 -0.3632
19491TIP3    H179964   2.308   5.093  16.960  0.3437  0.4289 -0.3703
19491TIP3    H279965   2.210   5.069  17.073  0.6426 -0.3256 -0.2690
19492TIP3   OH279966   4.867   0.742   1.719 -0.5918 -0.0843  0.3084
19492TIP3    H179967   4.895   0.819   1.670 -1.4527 -0.3510 -0.6274
19492TIP3    H279968   4.817   0.777   1.793  1.1645  0.3424  1.3287
19493TIP3   OH279969   1.679   1.335  12.124  0.3325 -0.1571 -0.4387
19493TIP3    H179970   1.696   1.306  12.213  0.1454 -0.3909 -0.4794
19493TIP3    H279971   1.725   1.418  12.117  0.5488 -0.2571 -0.2015
19494TIP3   OH279972   2.249   3.739  16.544 -0.0961 -0.2928  0.8407
19494TIP3    H179973   2.169   3.705  16.503 -0.6057  1.7295  0.0707
19494TIP3    H279974   2.219   3.772  16.629 -0.1942  0.9087  0.3489
19495TIP3   OH279975   1.201   0.829   3.086 -0.1605 -0.2591 -0.1353
19495TIP3    H179976   1.231   0.920   3.082  1.0002 -0.6476 -0.6123
19495TIP3    H279977   1.107   0.835   3.106 -0.0978  1.0379 -0.1950
19496TIP3   OH279978   2.707   0.397   0.972  0.4836 -0.2976 -0.0087
19496TIP3    H179979   2.635   0.363   0.919  1.2052  0.6269 -1.6295
19496TIP3    H279980   2.664   0.448   1.040 -0.4655 -1.6191  0.3945
19497TIP3   OH279981   6.366   6.733  12.658 -0.4237  0.8282  0.1420
19497TIP3    H179982   6.450   6.775  12.677  0.0272 -0.3947  0.9129
19497TIP3    H279983   6.311   6.804  12.624  0.4515  1.9554  1.0288
19498TIP3   OH279984   5.718   5.128  15.170  0.3505 -0.0126 -0.1812
19498TIP3    H179985   5.785   5.179  15.123 -0.2359 -0.3732 -1.4243
19498TIP3    H279986   5.753   5.118  15.258  1.4090  0.8042 -0.4981
19499TIP3   OH279987   3.119   2.855   5.741 -0.2342  0.7450  0.1513
19499TIP3    H179988   3.066   2.922   5.783 -1.2400  0.4005 -0.5546
19499TIP3    H279989   3.130   2.787   5.808 -2.0763  0.0637 -0.2119
19500TIP3   OH279990   4.039   5.848   4.018  0.0904  0.0994  0.4652
19500TIP3    H179991   4.129   5.824   4.041 -0.2279 -0.5838  1.0041
19500TIP3    H279992   3.988   5.769   4.034 -0.8926  0.9705  1.7758
19501TIP3   OH279993   3.180   2.172   4.824 -0.0314  0.2455  0.0138
19501TIP3    H179994   3.240   2.246   4.835 -0.3413  0.3072  1.3998
19501TIP3    H279995   3.102   2.198   4.872  0.4152 -1.6081  1.8176
19502TIP3   OH279996   1.056   5.911   5.045  0.1646  0.1210 -0.2199
19502TIP3    H179997   1.017   5.959   5.118  0.3491  0.8478 -0.5967
19502TIP3    H279998   1.143   5.949   5.035  0.1376  0.0301 -0.8246
19503TIP3   OH279999   1.470   0.068   4.707  0.0310 -0.1402  0.2765
19503TIP3    H180000   1.413   0.023   4.645  1.1026 -0.6749 -0.3302
19503TIP3    H280001   1.419   0.071   4.788 -0.5657 -1.3139 -0.0344
19504TIP3   OH280002   4.189   5.503   0.405 -0.0293  0.0750  0.3609
19504TIP3    H180003   4.210   5.410   0.400  0.5655  0.2495 -0.5035
19504TIP3    H280004   4.126   5.517   0.335  0.1244  0.3904  0.2867
19505TIP3   OH280005   5.378   0.444   1.234 -0.0759 -0.4747  0.1678
19505TIP3    H180006   5.282   0.450   1.236 -0.2126 -2.3962  0.0163
19505TIP3    H280007   5.398   0.363   1.280  1.3142 -1.5885 -2.3166
19506TIP3   OH280008   0.527   2.575   1.696  0.8726  0.3738  0.1362
19506TIP3    H180009   0.551   2.482   1.687  2.1283  0.5944  1.1254
19506TIP3    H280010   0.610   2.620   1.712  0.1812  1.5827  0.3612
19507TIP3   OH280011   4.511   2.218   3.637  0.5890 -0.0958 -0.1890
19507TIP3    H180012   4.571   2.234   3.710  2.0839  0.4500 -1.4996
19507TIP3    H280013   4.514   2.123   3.624  1.8421  0.0185 -0.7921
19508TIP3   OH280014   0.227   4.235   0.390  0.1129  0.4767 -0.7149
19508TIP3    H180015   0.150   4.208   0.440 -0.5397  0.4711 -1.6990
19508TIP3    H280016   0.243   4.325   0.419  1.0958 -0.2548  1.1144
19509TIP3   OH280017   5.658   2.138  12.485 -0.8145 -0.0968 -0.2707
19509TIP3    H180018   5.719   2.075  12.446 -1.2097 -0.3559 -0.4725
19509TIP3    H280019   5.702   2.168  12.564 -0.8795 -1.0740  0.1379
19510TIP3   OH280020   0.939   2.572  14.602 -0.0607  0.2473 -0.1730
19510TIP3    H180021   0.955   2.621  14.521  1.8344 -0.0214  0.0184
19510TIP3    H280022   0.974   2.485  14.585 -0.3566 -0.0433  0.6701
19511TIP3   OH280023   5.039   3.651  13.955  0.6644 -0.4704  0.1465
19511TIP3    H180024   4.956   3.676  13.914  0.9219  2.1402  1.0997
19511TIP3    H280025   5.099   3.635  13.883 -0.2289 -0.7713 -0.5308
19512TIP3   OH280026   4.644   1.004   0.016 -0.1876 -0.5488 -0.2021
19512TIP3    H180027   4.587   0.981   0.089 -0.3813  0.3978 -0.0469
19512TIP3    H280028   4.631   0.933  -0.047  1.0363 -2.0923  1.2536
19513TIP3   OH280029   3.315   0.483   3.525 -0.6905 -0.3210 -0.2244
19513TIP3    H180030   3.236   0.491   3.471  0.5259  1.4176 -1.8045
19513TIP3    H280031   3.345   0.393   3.511 -1.4501 -0.4655 -0.9661
19514TIP3   OH280032   1.586   1.048  15.413 -0.1543 -0.4010 -0.0160
19514TIP3    H180033   1.651   1.116  15.426 -0.7402  0.2071 -0.2603
19514TIP3    H280034   1.515   1.070  15.474  0.4436 -1.8064  1.2166
19515TIP3   OH280035   1.658   4.529  13.815  0.3069 -0.1374 -0.0847
19515TIP3    H180036   1.594   4.468  13.853  1.9877 -0.8584  1.6438
19515TIP3    H280037   1.684   4.488  13.733 -0.0227 -0.7966  0.1351
19516TIP3   OH280038   5.597   4.570  16.569  0.1183 -0.3743 -0.2564
19516TIP3    H180039   5.665   4.541  16.508  0.0205  1.7541 -1.4148
19516TIP3    H280040   5.525   4.508  16.556 -0.3980  0.7901 -3.2539
19517TIP3   OH280041   4.764   1.121   2.169  0.6072 -0.2918 -0.1821
19517TIP3    H180042   4.831   1.116   2.100 -0.6388  1.8774 -1.6019
19517TIP3    H280043   4.781   1.205   2.212  1.3345 -1.6098  2.1444
19518TIP3   OH280044   5.036   3.321   0.004 -0.2217 -0.1416 -0.6949
19518TIP3    H180045   5.094   3.396   0.016 -0.6450  0.0609  0.1460
19518TIP3    H280046   4.994   3.309   0.090 -2.4975  0.6270 -1.6654
19519TIP3   OH280047   3.625   5.389  17.061 -0.5960 -0.1705  0.4404
19519TIP3    H180048   3.577   5.367  17.142  0.6097 -0.6288  1.0325
19519TIP3    H280049   3.571   5.353  16.991 -0.4968 -1.8013  1.1868
19520TIP3   OH280050   0.882   5.587  13.070  0.6035  0.1872 -0.9561
19520TIP3    H180051   0.858   5.635  13.149  1.7156 -0.5152 -0.1708
19520TIP3    H280052   0.828   5.625  13.001 -1.0387  0.1691  0.3146
19521TIP3   OH280053   0.924   4.147   4.903  0.1966 -0.0760 -0.2913
19521TIP3    H180054   0.911   4.056   4.875 -0.3573 -0.3624  0.8660
19521TIP3    H280055   0.971   4.140   4.986  0.2221  0.7035 -0.2378
19522TIP3   OH280056   6.196   4.150  14.668  0.3980 -0.1494 -0.1735
19522TIP3    H180057   6.221   4.142  14.760 -1.7518  1.0227  0.5350
19522TIP3    H280058   6.259   4.212  14.631  0.5860  0.2348  0.7788
19523TIP3   OH280059   1.484   2.357   2.607 -0.1058  0.2347  0.6129
19523TIP3    H180060   1.389   2.368   2.610 -0.0797  0.5696  0.3089
19523TIP3    H280061   1.498   2.275   2.559 -0.2318  0.3820  0.3233
19524TIP3   OH280062   0.342   0.810  12.236 -0.7498  0.0935  0.6848
19524TIP3    H180063   0.351   0.849  12.150  0.1944 -0.1479  0.6720
19524TIP3    H280064   0.338   0.716  12.219 -2.3651  0.1315  0.7627
19525TIP3   OH280065   6.550   3.702   3.196 -0.0392 -0.1465  0.2941
19525TIP3    H180066   6.546   3.651   3.116 -2.2106 -0.7849  0.7742
19525TIP3    H280067   6.541   3.793   3.167 -2.0765 -0.4550 -0.1128
19526TIP3   OH280068   6.064   4.032   5.698  0.4882 -0.7097 -0.2999
19526TIP3    H180069   6.154   4.039   5.729  0.0329 -0.3003  0.9605
19526TIP3    H280070   6.024   4.115   5.721 -0.4744 -1.2572  0.0498
19527TIP3   OH280071   0.815   2.524  16.926  0.9389 -0.7141  0.4342
19527TIP3    H180072   0.806   2.616  16.951  3.0073 -0.0005 -1.2065
19527TIP3    H280073   0.726   2.490  16.924  0.1785  1.1671  1.3756
19528TIP3   OH280074   1.768   4.782   0.351 -0.5943 -0.3024  0.7326
19528TIP3    H180075   1.793   4.699   0.310 -0.1427  0.8439 -1.3703
19528TIP3    H280076   1.689   4.761   0.401 -0.1456 -2.1237  0.7187
19529TIP3   OH280077   4.781   0.075  11.797  0.3085  0.2587 -0.7405
19529TIP3    H180078   4.804   0.001  11.740 -0.1223 -0.9228  0.5818
19529TIP3    H280079   4.863   0.099  11.839  0.1455 -0.5733  0.0788
19530TIP3   OH280080   4.460   2.328   3.125 -0.4661  0.3311 -0.2501
19530TIP3    H180081   4.457   2.423   3.114 -0.8051  0.4406  0.7188
19530TIP3    H280082   4.505   2.316   3.209  2.6882 -0.4676 -1.9690
19531TIP3   OH280083   6.078   2.503   5.389 -0.0330  0.0577 -0.3533
19531TIP3    H180084   6.116   2.590   5.375  1.5313 -0.5996 -0.2679
19531TIP3    H280085   6.075   2.464   5.302  1.8126 -0.8211 -0.0467
19532TIP3   OH280086   4.270   0.074   2.411 -0.3726 -0.3099  0.2601
19532TIP3    H180087   4.364   0.094   2.413 -0.6941  1.2331  3.3305
19532TIP3    H280088   4.257   0.008   2.479 -1.6523  0.2965  0.6318
19533TIP3   OH280089   2.204   4.169   2.712 -0.3909 -0.0958  0.2302
19533TIP3    H180090   2.123   4.210   2.681  0.0512  0.0912 -0.6852
19533TIP3    H280091   2.238   4.231   2.778 -0.9190 -0.1163  0.5268
19534TIP3   OH280092   4.226   4.131   3.988 -0.1824 -0.0673  0.5285
19534TIP3    H180093   4.279   4.167   4.059  0.7048  0.2307 -0.2793
19534TIP3    H280094   4.287   4.082   3.934 -0.6941  0.3915 -0.4860
19535TIP3   OH280095   4.539   2.434   0.017 -0.1594 -0.4389  0.2356
19535TIP3    H180096   4.630   2.464   0.016 -0.8219  1.6340  0.1593
19535TIP3    H280097   4.523   2.409   0.108 -0.3875  2.0020  0.8937
19536TIP3   OH280098   0.317   2.340  12.735 -0.2788  0.0998  0.1236
19536TIP3    H180099   0.350   2.408  12.676 -2.1641  0.0350 -1.0336
19536TIP3    H280100   0.230   2.369  12.760 -0.6705 -1.3496  0.5005
19537TIP3   OH280101   2.787   5.606   4.400 -0.2951 -0.3787 -0.2723
19537TIP3    H180102   2.865   5.574   4.353 -0.3462 -0.2745 -0.4285
19537TIP3    H280103   2.745   5.665   4.337  1.1735  2.0086  0.8976
19538TIP3   OH280104   2.418   6.573  16.767  0.3317  0.2093  0.2634
19538TIP3    H180105   2.379   6.657  16.790  1.1833  1.1510 -1.6833
19538TIP3    H280106   2.354   6.508  16.798 -0.6538  1.5696  1.1431
19539TIP3   OH280107   0.185   0.546   3.919 -0.1877 -0.0561  0.0166
19539TIP3    H180108   0.212   0.553   4.010  2.0242 -1.9499 -0.4585
19539TIP3    H280109   0.174   0.453   3.903 -1.2469  0.2949 -1.4543
19540TIP3   OH280110   4.185   0.134   0.854  0.1003 -0.9590  0.3503
19540TIP3    H180111   4.140   0.212   0.821 -1.5534 -1.9380  0.2810
19540TIP3    H280112   4.168   0.067   0.788  1.3758 -1.4449  0.5000
19541TIP3   OH280113   1.015   6.253   5.666  0.0455 -0.0397  0.0927
19541TIP3    H180114   0.940   6.280   5.718  0.0834  1.3717 -0.5537
19541TIP3    H280115   1.077   6.325   5.674  0.4856 -0.2809 -1.0303
19542TIP3   OH280116   1.676   4.272  12.881  0.7738 -0.4338 -0.0434
19542TIP3    H180117   1.587   4.241  12.864  0.6155 -0.3913  0.6873
19542TIP3    H280118   1.677   4.363  12.849  0.2357 -0.0839  0.8991
19543TIP3   OH280119   0.007   6.412  16.737  0.4272  0.0488 -0.2743
19543TIP3    H180120   0.079   6.473  16.722  0.9512 -0.3600  0.5166
19543TIP3    H280121  -0.054   6.460  16.793 -0.1192  0.5456 -1.3002
19544TIP3   OH280122   0.237   1.138  12.801  0.5067  1.2442  0.2848
19544TIP3    H180123   0.155   1.100  12.833  1.6676 -0.8242  0.9644
19544TIP3    H280124   0.226   1.145  12.707  0.2158 -0.7915  0.1454
19545TIP3   OH280125   4.726   3.770   2.689  0.4217  0.2391  0.3231
19545TIP3    H180126   4.670   3.827   2.742  1.8606  2.1123 -0.1158
19545TIP3    H280127   4.785   3.729   2.753 -0.7047 -0.8784  0.6552
19546TIP3   OH280128   4.917   4.866  13.945  0.6326  0.6391  0.1253
19546TIP3    H180129   4.988   4.884  13.883  0.2635  2.9930  0.3311
19546TIP3    H280130   4.852   4.818  13.894  0.2820  2.6527 -1.3700
19547TIP3   OH280131   6.753   1.575   0.024  0.5649 -0.0856  0.3602
19547TIP3    H180132   6.712   1.635   0.085  0.6028  1.1713 -0.8286
19547TIP3    H280133   6.809   1.630  -0.032 -0.9357 -0.8962 -2.0388
19548TIP3   OH280134   6.062   4.839  11.988 -0.4879 -0.4845  0.2607
19548TIP3    H180135   6.102   4.823  11.903 -1.6378 -1.0836 -0.1859
19548TIP3    H280136   6.088   4.928  12.011 -1.8187  0.4522 -1.6734
19549TIP3   OH280137   1.296   5.654   4.054  0.3429 -0.2877 -0.6062
19549TIP3    H180138   1.356   5.623   4.122  1.7674 -0.0922 -1.7276
19549TIP3    H280139   1.280   5.746   4.077 -0.5256 -0.6905  0.3931
19550TIP3   OH280140   3.144   5.120   0.634  0.1282 -0.0818  0.3964
19550TIP3    H180141   3.177   5.147   0.548  0.4909 -0.7197  0.3326
19550TIP3    H280142   3.196   5.043   0.656  0.5399  0.5030  1.5129
19551TIP3   OH280143   1.297   1.609  15.828  0.1155 -0.0451 -0.2245
19551TIP3    H180144   1.338   1.671  15.888 -0.3730 -0.9431  1.0514
19551TIP3    H280145   1.370   1.564  15.786  0.4750 -2.1715  2.5942
19552TIP3   OH280146   0.713   1.520   5.505  0.4317  0.1849 -0.0022
19552TIP3    H180147   0.785   1.543   5.446  0.1048 -1.4845 -1.1071
19552TIP3    H280148   0.725   1.426   5.521  0.6033  0.6453  2.7377
19553TIP3   OH280149   6.107   0.064   5.064 -0.6917 -0.2899 -0.1198
19553TIP3    H180150   6.076   0.047   4.975 -1.4482  0.4370 -0.0031
19553TIP3    H280151   6.166   0.139   5.054 -1.6362  0.4993  0.1384
19554TIP3   OH280152   5.530   1.978   6.216  0.1572  0.1990 -0.1731
19554TIP3    H180153   5.544   2.072   6.212  1.3197  0.1437  2.2533
19554TIP3    H280154   5.435   1.968   6.227  0.2392  1.1334  1.3916
19555TIP3   OH280155   2.928   2.060   3.596 -0.1817  0.7795  0.0049
19555TIP3    H180156   2.896   2.150   3.603 -0.8028  0.6003 -0.4692
19555TIP3    H280157   2.967   2.042   3.681 -1.3125  1.0243  0.5928
19556TIP3   OH280158   2.870   4.180  12.906 -0.1071  0.4305  0.9625
19556TIP3    H180159   2.923   4.102  12.890  0.5285  1.1030 -0.3296
19556TIP3    H280160   2.926   4.237  12.960 -0.5414  0.0410  1.8403
19557TIP3   OH280161   0.114   3.717  15.794 -0.1102  0.0590  0.0417
19557TIP3    H180162   0.159   3.690  15.875  1.2760 -0.3405 -0.8455
19557TIP3    H280163   0.051   3.647  15.778  0.5530 -0.5537  0.0569
19558TIP3   OH280164   2.166   4.820   2.361  0.1632 -0.0054  0.9412
19558TIP3    H180165   2.176   4.852   2.271 -0.6635  1.7142  1.4403
19558TIP3    H280166   2.243   4.765   2.376  0.5357  0.0648 -0.6638
19559TIP3   OH280167   5.824   2.938   4.155  0.5727 -0.1230 -0.2214
19559TIP3    H180168   5.880   3.013   4.176 -1.9124  2.1807 -1.5023
19559TIP3    H280169   5.777   2.965   4.076 -0.6799 -2.8986 -0.4696
19560TIP3   OH280170   5.472   2.734  12.610  0.1758  0.5542 -0.2569
19560TIP3    H180171   5.456   2.741  12.704  1.9614  0.9050  0.0447
19560TIP3    H280172   5.564   2.757  12.599  0.3785 -0.8617 -1.9242
19561TIP3   OH280173   5.712   3.417   5.776 -0.0707 -0.2870  0.1679
19561TIP3    H180174   5.803   3.430   5.751 -0.6447 -0.7412 -2.2686
19561TIP3    H280175   5.705   3.323   5.791  0.2749 -0.0196  2.2122
19562TIP3   OH280176   3.124   6.503   0.475 -0.0628 -0.2441  0.0010
19562TIP3    H180177   3.082   6.469   0.395 -0.5223 -2.3631  1.1093
19562TIP3    H280178   3.086   6.590   0.486 -0.2095 -0.0388 -1.9304
19563TIP3   OH280179   5.532   1.843   3.728 -0.2519 -0.2821  0.3526
19563TIP3    H180180   5.554   1.786   3.801  0.3914  0.4066  0.7082
19563TIP3    H280181   5.537   1.932   3.764 -2.6166 -0.0390  0.1798
19564TIP3   OH280182   0.101   0.111  17.050 -0.0769 -0.1762 -0.7154
19564TIP3    H180183   0.074   0.050  17.118 -1.2803  1.2673  0.1233
19564TIP3    H280184   0.104   0.196  17.093  3.1863  0.1352 -1.4664
19565TIP3   OH280185   4.778   6.123   5.196  1.0252 -0.3985 -0.0696
19565TIP3    H180186   4.699   6.176   5.181  2.4239  1.3051 -1.5654
19565TIP3    H280187   4.762   6.081   5.281 -1.3198  0.2155 -0.1575
19566TIP3   OH280188   3.955   6.441   3.348  0.4943  0.4480  0.2713
19566TIP3    H180189   3.981   6.353   3.373 -0.0626  0.0565 -0.5113
19566TIP3    H280190   3.947   6.438   3.252 -1.8262  0.6892  0.4071
19567TIP3   OH280191   3.957   6.252   4.535  0.5858  0.7208  0.0723
19567TIP3    H180192   3.874   6.294   4.512 -0.6552 -1.2192  0.7866
19567TIP3    H280193   3.979   6.198   4.459  0.2828 -0.0702  0.5304
19568TIP3   OH280194   2.494   2.766   1.165 -0.0614 -0.3845 -0.0095
19568TIP3    H180195   2.419   2.792   1.220 -0.8291 -0.6130 -0.9346
19568TIP3    H280196   2.465   2.685   1.122  0.4852 -0.1323 -0.8596
19569TIP3   OH280197   3.583   3.812   4.671  0.6860  0.0121 -0.0243
19569TIP3    H180198   3.537   3.874   4.728  1.5873 -1.1540  2.0229
19569TIP3    H280199   3.584   3.854   4.585 -1.6627  1.3328  0.5575
19570TIP3   OH280200   0.965   1.795  11.549 -0.0037 -0.1708  0.3963
19570TIP3    H180201   0.916   1.742  11.612  0.3899 -0.4231  0.4947
19570TIP3    H280202   0.913   1.793  11.469 -0.7853  0.6011  0.8696
19571TIP3   OH280203   5.435   1.969  15.663 -0.0286 -0.9504 -0.3522
19571TIP3    H180204   5.421   2.063  15.665  0.1637 -0.9367  0.7019
19571TIP3    H280205   5.377   1.937  15.593  2.4805  0.3575 -3.1585
19572TIP3   OH280206   5.266   0.370  12.977 -0.3000  0.6327  0.0736
19572TIP3    H180207   5.232   0.413  13.056 -0.8904 -0.6628  0.5309
19572TIP3    H280208   5.361   0.378  12.985 -0.3591  0.5189  0.9055
19573TIP3   OH280209   6.799   5.842  14.057  0.0169  0.3232 -0.0814
19573TIP3    H180210   6.761   5.832  13.970 -0.0480 -0.1041 -0.0039
19573TIP3    H280211   6.749   5.914  14.096 -1.3117 -0.7935  0.3331
19574TIP3   OH280212   4.817   5.857  13.520 -0.1636  0.4960 -0.2371
19574TIP3    H180213   4.737   5.850  13.469 -2.5222 -0.0972  3.3388
19574TIP3    H280214   4.842   5.949  13.513 -2.7854  1.3311  0.8802
19575TIP3   OH280215   5.310   2.448  11.660 -0.1853 -0.3763 -0.2295
19575TIP3    H180216   5.393   2.470  11.618 -1.3174  0.8764 -1.8657
19575TIP3    H280217   5.293   2.521  11.719  0.8740 -1.6248  1.6595
19576TIP3   OH280218   5.556   3.321   5.216  0.1687 -0.0505  0.0554
19576TIP3    H180219   5.523   3.235   5.241 -1.2898  0.6235  0.5373
19576TIP3    H280220   5.649   3.319   5.237 -0.2503 -0.8307  1.8857
19577TIP3   OH280221   5.378   3.065   3.780  0.1520 -0.2945  0.1549
19577TIP3    H180222   5.435   3.120   3.833  0.3391  1.9036 -2.2199
19577TIP3    H280223   5.289   3.097   3.798  0.2954  1.2125 -1.5809
19578TIP3   OH280224   6.085   3.023  13.088  0.0594  0.0174 -0.0714
19578TIP3    H180225   6.139   2.981  13.020  1.9387 -0.5091  1.7134
19578TIP3    H280226   6.018   2.958  13.109  1.1861 -0.9478  0.5761
19579TIP3   OH280227   3.416   1.246  12.900  0.6310  0.1375 -0.1982
19579TIP3    H180228   3.481   1.176  12.901 -0.4028 -0.8297  0.9783
19579TIP3    H280229   3.399   1.263  12.807  0.7339 -1.3180 -0.4890
19580TIP3   OH280230   4.327   3.941  15.038  0.1835 -0.2835 -0.6426
19580TIP3    H180231   4.353   4.004  14.972  0.4762 -1.4032 -1.6140
19580TIP3    H280232   4.287   3.993  15.108  1.5150  1.0735 -0.8815
19581TIP3   OH280233   1.219   2.909  12.677 -0.2862  0.2526  0.2976
19581TIP3    H180234   1.189   2.929  12.588 -1.1711  0.6748  0.6842
19581TIP3    H280235   1.139   2.887  12.725  0.0654  1.0862  1.2669
19582TIP3   OH280236   4.189   1.247  14.925 -0.2512  0.2208  0.4835
19582TIP3    H180237   4.213   1.335  14.894 -1.5569  0.5463  0.3986
19582TIP3    H280238   4.193   1.253  15.020  0.7084  0.0638  0.4677
19583TIP3   OH280239   3.852   5.229  14.518 -0.6769  0.3208  0.3319
19583TIP3    H180240   3.838   5.314  14.477 -1.5836 -0.6967 -1.5309
19583TIP3    H280241   3.766   5.187  14.518 -0.1339 -0.8390  0.6733
19584TIP3   OH280242   2.108   1.665   2.064 -0.7856 -0.5157 -0.3088
19584TIP3    H180243   2.162   1.596   2.027 -2.2258 -0.1546 -3.1706
19584TIP3    H280244   2.021   1.626   2.072 -0.9772  0.0979  0.7284
19585TIP3   OH280245   6.780   0.634   6.941 -0.3670  0.2607 -0.1432
19585TIP3    H180246   6.870   0.626   6.909  0.1104 -1.3393  1.5298
19585TIP3    H280247   6.775   0.724   6.975  1.1485 -0.2082  1.3671
19586TIP3   OH280248   3.746   4.098   3.512  0.3638  0.1130 -0.6512
19586TIP3    H180249   3.701   4.175   3.478  0.4129  1.3139  1.9172
19586TIP3    H280250   3.700   4.024   3.471 -3.3628  1.3245  1.1059
19587TIP3   OH280251   0.055   6.322  17.128  0.0088  0.1479  1.0207
19587TIP3    H180252   0.111   6.261  17.080  1.7298  0.9637  1.9418
19587TIP3    H280253   0.076   6.408  17.092 -1.3946  0.3652  0.6848
19588TIP3   OH280254   4.113   0.635   4.151  0.0187 -0.2277 -0.2055
19588TIP3    H180255   4.038   0.679   4.112 -0.5167 -0.6027  0.3905
19588TIP3    H280256   4.186   0.694   4.137 -0.5294  0.4615 -0.1621
19589TIP3   OH280257   5.240   1.719  11.118  0.3042 -0.3645 -0.6691
19589TIP3    H180258   5.175   1.765  11.172 -1.0742 -1.7149 -1.1572
19589TIP3    H280259   5.190   1.687  11.043  1.8586 -0.0528 -1.8585
19590TIP3   OH280260   2.783   2.065   1.931 -0.0625  0.1475  0.0829
19590TIP3    H180261   2.819   1.978   1.949  2.1560  1.0875  0.4160
19590TIP3    H280262   2.847   2.106   1.872 -0.9543  1.6224  0.1023
19591TIP3   OH280263   4.171   5.957  10.273  0.3256 -0.1192 -0.3592
19591TIP3    H180264   4.228   5.933  10.200  0.4067 -0.7782 -0.0823
19591TIP3    H280265   4.231   5.965  10.348  0.0316 -1.0353 -0.0160
19592TIP3   OH280266   3.804   2.743  15.864  0.1085  0.0129  0.2858
19592TIP3    H180267   3.764   2.823  15.899 -0.4614  0.6637 -1.7834
19592TIP3    H280268   3.881   2.773  15.817  0.9158 -0.8613  1.0302
19593TIP3   OH280269   6.490   6.036  16.742 -0.2492  0.2668 -0.5025
19593TIP3    H180270   6.491   6.009  16.651  0.3474  1.3006 -0.8150
19593TIP3    H280271   6.542   5.969  16.788  0.1564  0.2062 -1.0510
19594TIP3   OH280272   3.208   5.415   2.840 -0.1861 -0.0237 -0.1334
19594TIP3    H180273   3.294   5.457   2.830 -0.3330  0.1568 -0.6920
19594TIP3    H280274   3.226   5.334   2.886  0.2758  0.0611 -0.1603
19595TIP3   OH280275   1.681   0.227   0.154 -0.1854 -0.8378  0.5458
19595TIP3    H180276   1.672   0.290   0.083 -3.0435  0.7239  2.2051
19595TIP3    H280277   1.752   0.262   0.208 -1.5041  0.7968  1.2512
19596TIP3   OH280278   6.238   3.674  16.972 -0.4451 -0.3350 -0.3132
19596TIP3    H180279   6.187   3.729  17.031 -0.7870 -1.2400  0.2571
19596TIP3    H280280   6.325   3.670  17.012 -0.5579 -0.6032 -0.0920
19597TIP3   OH280281   4.567   5.148   0.596  0.0542  0.1381  0.0507
19597TIP3    H180282   4.548   5.118   0.507 -3.8671 -0.3301  0.9674
19597TIP3    H280283   4.564   5.070   0.650  2.9688  0.3364  0.6009
19598TIP3   OH280284   1.232   3.802  12.912  0.5032 -0.4751  0.3136
19598TIP3    H180285   1.326   3.804  12.893  0.5044 -1.8171  0.1589
19598TIP3    H280286   1.193   3.857  12.843  1.3424  1.7223  1.5209
19599TIP3   OH280287   4.690   5.551   3.244 -0.1093  0.1485  0.2677
19599TIP3    H180288   4.661   5.641   3.229  0.6303  0.2708 -0.4698
19599TIP3    H280289   4.780   5.549   3.211  0.2563 -0.5828  1.2668
19600TIP3   OH280290   6.682   1.854  13.990  0.4559  0.5393  0.1455
19600TIP3    H180291   6.688   1.762  14.013 -0.0706  0.2996 -0.6364
19600TIP3    H280292   6.752   1.896  14.039  2.1734 -0.6288 -1.2346
19601TIP3   OH280293   1.882   2.715  14.931 -0.2670  0.7226  0.2425
19601TIP3    H180294   1.918   2.743  15.016 -0.3946  1.2438  0.1274
19601TIP3    H280295   1.798   2.760  14.925 -1.0105 -0.6028  0.5715
19602TIP3   OH280296   4.181   0.533   0.636 -0.3887 -0.2204 -0.3820
19602TIP3    H180297   4.156   0.591   0.707  3.2367  1.7051 -0.5720
19602TIP3    H280298   4.184   0.590   0.559  2.2582 -0.8181 -0.7542
19603TIP3   OH280299   4.886   0.619   3.811 -0.3590  0.5864 -0.0375
19603TIP3    H180300   4.795   0.598   3.793  0.1574  0.1910 -2.2952
19603TIP3    H280301   4.895   0.711   3.788  0.3132  0.0703 -1.9232
19604TIP3   OH280302   2.057   1.236  16.178 -0.4382  0.5940  0.2440
19604TIP3    H180303   2.101   1.161  16.219 -1.0742  0.0339 -0.0668
19604TIP3    H280304   2.118   1.308  16.186  0.0783  0.0990  0.7944
19605TIP3   OH280305   3.997   0.659  14.172 -0.1103 -0.2491  0.3902
19605TIP3    H180306   4.034   0.598  14.108  0.8466  0.4770  0.2326
19605TIP3    H280307   3.960   0.730  14.119 -1.9196 -1.0508  0.5383
19606TIP3   OH280308   4.907   1.613  12.215 -0.4751 -0.4379  0.3866
19606TIP3    H180309   4.903   1.667  12.137  0.7722 -0.3216  0.4028
19606TIP3    H280310   4.998   1.617  12.243 -1.1464  0.4982  2.5403
19607TIP3   OH280311   0.179   0.334   5.478  0.0919 -0.0253  1.1006
19607TIP3    H180312   0.272   0.355   5.484  0.0029  0.8795 -0.3833
19607TIP3    H280313   0.136   0.401   5.531  0.2348 -0.0250  1.2162
19608TIP3   OH280314   0.919   5.241  16.897 -0.1534 -0.5772 -0.3441
19608TIP3    H180315   0.887   5.215  16.984  1.3635  0.7759  0.6555
19608TIP3    H280316   0.918   5.160  16.846  0.7583 -1.7858  1.5071
19609TIP3   OH280317   6.314   3.905  16.838  0.2227  0.0440 -0.9189
19609TIP3    H180318   6.294   3.895  16.745 -0.5296 -0.1335 -0.7371
19609TIP3    H280319   6.263   3.836  16.881 -1.1299  1.5010 -0.1553
19610TIP3   OH280320   1.598   2.320  15.261 -0.1523 -0.4272 -0.1028
19610TIP3    H180321   1.508   2.336  15.288 -0.4398 -1.8738 -0.1914
19610TIP3    H280322   1.644   2.298  15.343  0.4186  1.5677  0.1358
19611TIP3   OH280323   1.263   3.541  14.324  0.2547  0.1598 -0.0744
19611TIP3    H180324   1.248   3.477  14.254  0.7216  0.8943 -0.8639
19611TIP3    H280325   1.209   3.616  14.299 -1.7146 -0.6007  1.8098
19612TIP3   OH280326   6.690   1.463   5.967  0.0676 -0.0755 -0.0755
19612TIP3    H180327   6.621   1.513   5.923  0.5408  0.7004  0.0609
19612TIP3    H280328   6.762   1.525   5.979  0.9893 -1.0184 -0.6553
19613TIP3   OH280329   5.928   6.431  13.435  0.4191  0.1212  0.5580
19613TIP3    H180330   5.919   6.337  13.449 -1.6466 -0.1367 -2.0348
19613TIP3    H280331   6.020   6.444  13.412  0.0473 -1.7664 -2.2435
19614TIP3   OH280332   3.824   3.850  14.123  0.2306  0.0284  0.1889
19614TIP3    H180333   3.764   3.884  14.057 -1.6424 -0.6670  1.4765
19614TIP3    H280334   3.815   3.911  14.197  1.1784 -0.0281  0.3559
19615TIP3   OH280335   0.531   0.429  16.287  0.9311  0.1447  0.4522
19615TIP3    H180336   0.538   0.397  16.377  0.4640 -0.0169  0.4341
19615TIP3    H280337   0.563   0.357  16.233 -1.8355 -1.0099  0.3094
19616TIP3   OH280338   0.409   1.516   1.182  0.0648 -0.2141 -0.1368
19616TIP3    H180339   0.358   1.570   1.121 -0.1023 -1.6975 -1.3323
19616TIP3    H280340   0.414   1.431   1.140 -0.4448 -1.4150  2.1698
19617TIP3   OH280341   1.251   4.238  13.976 -0.3151  0.2246 -0.5260
19617TIP3    H180342   1.157   4.235  13.957 -0.5598 -1.3602  0.8600
19617TIP3    H280343   1.257   4.291  14.056 -0.1225 -0.3497 -0.1544
19618TIP3   OH280344   1.002   3.216  10.749 -0.3356 -0.0611  0.0653
19618TIP3    H180345   1.070   3.215  10.816 -0.0657  0.3421 -0.1984
19618TIP3    H280346   0.959   3.131  10.757 -1.1049  0.4472  1.5747
19619TIP3   OH280347   2.557   4.944   6.228  0.4919 -0.2958 -0.0011
19619TIP3    H180348   2.634   4.887   6.222 -0.3698 -1.4845  0.0604
19619TIP3    H280349   2.569   4.993   6.309  0.4823 -1.5181  0.7454
19620TIP3   OH280350   6.493   0.542   4.585 -0.2895 -0.0372  0.2935
19620TIP3    H180351   6.459   0.615   4.533  0.5457  1.5757  1.9699
19620TIP3    H280352   6.572   0.515   4.539 -1.8767 -1.5339 -1.6820
19621TIP3   OH280353   3.560   5.789  13.640 -0.1885 -0.1945  0.2696
19621TIP3    H180354   3.566   5.872  13.686 -1.4169  0.4896 -0.7720
19621TIP3    H280355   3.469   5.761  13.652  0.3965 -1.7494  1.2279
19622TIP3   OH280356   0.245   4.128  16.642  0.6347  0.1459  0.0060
19622TIP3    H180357   0.191   4.179  16.582 -0.2120 -1.5441 -0.7173
19622TIP3    H280358   0.330   4.123  16.600  0.2655 -0.3618 -0.7007
19623TIP3   OH280359   1.006   6.223  15.992 -0.7204  0.2111 -0.3555
19623TIP3    H180360   1.093   6.246  15.960 -1.1100  1.3000 -0.6506
19623TIP3    H280361   0.959   6.195  15.913 -0.3976 -1.1668 -0.0740
19624TIP3   OH280362   4.345   0.928  16.662  0.3329  0.1779  0.1764
19624TIP3    H180363   4.276   0.862  16.658  1.0524 -0.7555  2.1642
19624TIP3    H280364   4.364   0.937  16.756  1.9772  1.3878 -0.2414
19625TIP3   OH280365   0.518   4.928  15.407  0.0264 -0.0327 -0.1888
19625TIP3    H180366   0.530   4.944  15.314  4.2661  0.4854  0.3353
19625TIP3    H280367   0.558   5.003  15.451 -2.4561  0.0585  2.1041
19626TIP3   OH280368   1.113   6.233  14.285  0.0212  0.0411  0.4345
19626TIP3    H180369   1.062   6.175  14.342 -2.0074  1.4675  0.1456
19626TIP3    H280370   1.080   6.321  14.305  1.4599  0.8715 -0.7439
19627TIP3   OH280371   2.308   3.792  11.349  0.1287  0.3043 -0.1280
19627TIP3    H180372   2.297   3.796  11.444  0.5294  0.7360 -0.0977
19627TIP3    H280373   2.221   3.766  11.316 -0.2472  0.9952  0.2989
19628TIP3   OH280374   1.494   3.826  12.845  0.4982  0.4001  0.1011
19628TIP3    H180375   1.563   3.845  12.781 -0.6218  3.3464 -0.2629
19628TIP3    H280376   1.541   3.815  12.927  1.7399 -1.3435 -0.7922
19629TIP3   OH280377   3.661   1.421   6.198 -0.0848  0.8549 -0.6264
19629TIP3    H180378   3.593   1.455   6.140 -0.3198 -0.1310 -0.9344
19629TIP3    H280379   3.722   1.494   6.209  0.4107  0.7995 -2.7827
19630TIP3   OH280380   6.290   3.126  16.998 -0.4975  0.1960  0.4047
19630TIP3    H180381   6.348   3.201  16.986  1.1720 -0.8931  1.3986
19630TIP3    H280382   6.222   3.158  17.059  0.4843  0.7624  1.2225
19631TIP3   OH280383   0.816   0.285  16.196  0.4351  0.0326 -0.0358
19631TIP3    H180384   0.746   0.287  16.130  0.8768  0.8603 -0.4929
19631TIP3    H280385   0.848   0.195  16.194 -1.4467 -0.6909  1.0657
19632TIP3   OH280386   1.599   4.507   1.208 -0.2216  0.5756  0.1364
19632TIP3    H180387   1.623   4.500   1.115  0.1796  0.3107  0.2599
19632TIP3    H280388   1.639   4.430   1.249  0.1415  1.0328  0.6403
19633TIP3   OH280389   5.656   3.393   2.003 -0.0965 -0.2714 -0.0472
19633TIP3    H180390   5.608   3.437   2.073 -0.9093 -1.2231 -0.0034
19633TIP3    H280391   5.598   3.398   1.927 -0.6523 -2.2017  0.2333
19634TIP3   OH280392   5.760   3.815  14.707 -0.2992 -0.5298  0.1935
19634TIP3    H180393   5.804   3.828  14.624  0.5108 -1.2559  0.5023
19634TIP3    H280394   5.705   3.893  14.718 -0.0822 -0.2311 -0.8034
19635TIP3   OH280395   1.931   4.959   1.099  0.6404  0.1338 -0.1354
19635TIP3    H180396   1.891   4.893   1.042  2.1531  0.7479 -1.9640
19635TIP3    H280397   1.890   5.041   1.072  0.7837  0.3155  0.2075
19636TIP3   OH280398   0.566   2.409  16.881 -0.1191  0.1031 -0.4235
19636TIP3    H180399   0.502   2.339  16.891 -0.4803  0.2437 -1.6261
19636TIP3    H280400   0.530   2.482  16.932 -0.7622  0.0744 -0.8236
19637TIP3   OH280401   5.441   4.586  13.300 -0.0279 -0.0053  0.4331
19637TIP3    H180402   5.409   4.529  13.230  0.1279  0.4711 -0.0283
19637TIP3    H280403   5.369   4.591  13.362 -0.3396 -0.0483  0.0745
19638TIP3   OH280404   4.416   3.015   5.237 -0.8228  0.4375 -0.8870
19638TIP3    H180405   4.431   3.102   5.272 -1.8040  0.2438  0.0330
19638TIP3    H280406   4.503   2.975   5.235 -0.5376  1.0127 -0.1936
19639TIP3   OH280407   3.430   3.076   2.770 -0.6755  0.0232  0.5119
19639TIP3    H180408   3.440   2.999   2.714 -0.9319  0.5562 -0.2802
19639TIP3    H280409   3.492   3.139   2.735 -1.7260  0.8084  0.0248
19640TIP3   OH280410   1.158   4.574   0.076 -0.3303 -0.2848  0.5142
19640TIP3    H180411   1.171   4.655   0.125 -0.9538  0.6845 -0.9015
19640TIP3    H280412   1.079   4.536   0.114 -1.6736  1.2268 -0.7474
19641TIP3   OH280413   2.632   0.083   2.053  0.8225 -0.2286 -0.0933
19641TIP3    H180414   2.712   0.129   2.029  1.4572 -1.1961  0.1200
19641TIP3    H280415   2.631   0.086   2.149  0.9312 -0.7569 -0.0743
19642TIP3   OH280416   5.729   4.730   3.487  0.2661 -0.1835 -0.3958
19642TIP3    H180417   5.735   4.671   3.412  1.6619  2.2149 -2.2733
19642TIP3    H280418   5.773   4.810   3.457 -1.4033  1.7287  2.0867
19643TIP3   OH280419   3.558   0.073  16.302 -0.3607  0.2260 -0.4459
19643TIP3    H180420   3.584   0.041  16.215  0.6408  0.5496 -0.2668
19643TIP3    H280421   3.462   0.081  16.296 -0.3455 -0.1499 -1.3835
19644TIP3   OH280422   3.913   1.756   4.086 -0.0301 -0.2054 -0.8532
19644TIP3    H180423   3.838   1.698   4.102 -1.2168  1.3258 -0.7550
19644TIP3    H280424   3.937   1.787   4.172 -0.4013  0.6643 -1.0596
19645TIP3   OH280425   0.131   4.695   4.569 -0.3434  0.3080  0.5700
19645TIP3    H180426   0.174   4.612   4.589 -0.6933  0.1439  0.6361
19645TIP3    H280427   0.203   4.753   4.543 -0.1554 -0.1574  0.0405
19646TIP3   OH280428   2.494   4.150  13.184  0.0896  0.6132 -0.5969
19646TIP3    H180429   2.514   4.075  13.241 -1.5825  1.4267  1.1248
19646TIP3    H280430   2.530   4.125  13.099  3.0255 -0.4751  0.8868
19647TIP3   OH280431   0.512   6.341  12.343 -0.7854 -0.5849 -0.4031
19647TIP3    H180432   0.481   6.430  12.323 -0.6941 -0.5802 -0.5238
19647TIP3    H280433   0.584   6.326  12.282 -0.7637 -0.7212 -0.3439
19648TIP3   OH280434   4.683   0.400  14.362  0.0899  0.4907 -0.2884
19648TIP3    H180435   4.589   0.382  14.359  0.0789  0.5691 -0.4353
19648TIP3    H280436   4.703   0.410  14.455  0.2268 -0.9720 -0.1481
19649TIP3   OH280437   3.863   2.511   1.042 -0.3990 -0.3633 -0.0975
19649TIP3    H180438   3.877   2.417   1.049 -1.8872 -0.5959 -0.0905
19649TIP3    H280439   3.774   2.525   1.074  0.1795  1.1838  0.8786
19650TIP3   OH280440   5.134   2.627  12.768 -0.4160  0.4547 -0.4699
19650TIP3    H180441   5.160   2.602  12.856 -2.1796  0.1787 -0.0087
19650TIP3    H280442   5.189   2.574  12.710  0.2391  0.1102  0.4633
19651TIP3   OH280443   3.904   2.090  15.547  0.0637  0.2161  0.3827
19651TIP3    H180444   3.872   2.086  15.636 -0.2413 -1.3499  0.2002
19651TIP3    H280445   3.899   2.001  15.514  1.4813  0.5155 -0.7455
19652TIP3   OH280446   4.015   0.198  11.486 -0.4876 -0.0909 -0.0540
19652TIP3    H180447   3.944   0.145  11.522 -1.6097  2.4515  1.5804
19652TIP3    H280448   3.995   0.205  11.393 -1.7718 -0.2970  0.2003
19653TIP3   OH280449   1.296   5.719  11.942  0.5405 -0.5604  0.5775
19653TIP3    H180450   1.369   5.724  11.880 -1.7882 -1.8516 -2.4491
19653TIP3    H280451   1.335   5.687  12.023  3.2906 -1.4010 -1.0019
19654TIP3   OH280452   2.671   5.699  13.237  0.2283  0.6292  0.3286
19654TIP3    H180453   2.590   5.683  13.189  0.4182  0.0481  0.2040
19654TIP3    H280454   2.677   5.795  13.242  0.5457  0.7143 -1.3635
19655TIP3   OH280455   3.661   1.053  13.209  0.4410 -0.1754 -0.1726
19655TIP3    H180456   3.591   1.106  13.248 -1.0691 -0.6905 -2.1051
19655TIP3    H280457   3.735   1.113  13.199 -0.1458  0.7073  0.6917
19656TIP3   OH280458   4.155   0.871   5.224  0.3348 -0.0413 -0.0432
19656TIP3    H180459   4.062   0.885   5.206  0.2389 -1.7163 -1.0092
19656TIP3    H280460   4.168   0.906   5.312 -1.7529 -1.7806  1.0234
19657TIP3   OH280461   0.554   0.521  11.717 -0.3951  0.7346 -0.3229
19657TIP3    H180462   0.554   0.580  11.641 -2.4060  0.5418 -0.4945
19657TIP3    H280463   0.462   0.498  11.730  0.2212 -1.4692  0.4383
19658TIP3   OH280464   5.697   5.353  14.936  0.5159  0.5955 -0.3932
19658TIP3    H180465   5.638   5.278  14.925  1.1550 -0.3696  2.2945
19658TIP3    H280466   5.785   5.316  14.926  0.7646  1.3607 -1.0158
19659TIP3   OH280467   0.877   3.108   3.064 -0.2717  0.2271  0.8395
19659TIP3    H180468   0.847   3.174   3.002 -0.1234  0.2776  0.8199
19659TIP3    H280469   0.971   3.123   3.071 -0.1518 -0.3278  0.4285
19660TIP3   OH280470   5.002   6.190  13.750  0.4293 -0.3420 -0.0935
19660TIP3    H180471   5.011   6.120  13.686 -0.7055 -2.4635  1.9950
19660TIP3    H280472   4.979   6.267  13.699  1.2750 -1.5734 -2.3878
19661TIP3   OH280473   2.463   0.047   0.453  0.0572 -0.1693  0.6919
19661TIP3    H180474   2.488  -0.028   0.507 -2.1973 -1.4676  0.0128
19661TIP3    H280475   2.433   0.008   0.371  1.0944  1.6385 -0.5785
19662TIP3   OH280476   5.004   6.718  14.263 -0.2458  0.0246  0.4652
19662TIP3    H180477   5.063   6.715  14.188  0.4312  1.9083  0.8828
19662TIP3    H280478   5.062   6.730  14.338 -1.0181 -0.2815  1.1146
19663TIP3   OH280479   4.705   0.196  14.087  0.4738 -0.3617 -0.2138
19663TIP3    H180480   4.724   0.171  14.177  0.5593  0.0483 -0.1213
19663TIP3    H280481   4.618   0.236  14.091 -0.3434 -2.0374 -0.5974
19664TIP3   OH280482   5.955   4.033  16.121  0.2311  0.1677  0.2274
19664TIP3    H180483   5.874   4.028  16.071  0.7232  4.6382 -1.2456
19664TIP3    H280484   6.016   3.976  16.074 -0.3640  1.5098 -2.2626
19665TIP3   OH280485   5.625   2.258   4.129  0.2469 -0.4086  0.5015
19665TIP3    H180486   5.647   2.259   4.222  1.0934  0.7659  0.3005
19665TIP3    H280487   5.671   2.334   4.093 -2.7520  1.1155 -0.2678
19666TIP3   OH280488   6.022   3.328  16.069  0.6207 -0.0512 -0.4444
19666TIP3    H180489   6.075   3.408  16.078  1.0502 -0.2769 -0.9888
19666TIP3    H280490   6.073   3.261  16.115  0.1013  0.0579  0.3027
19667TIP3   OH280491   6.528   4.553  14.472 -0.6754 -0.6824 -0.8381
19667TIP3    H180492   6.579   4.634  14.477 -2.0388  0.2295 -1.5964
19667TIP3    H280493   6.589   4.485  14.501  0.9315  0.4109 -1.5834
19668TIP3   OH280494   3.190   2.760  12.666  0.2832 -0.1127 -0.2704
19668TIP3    H180495   3.183   2.795  12.577 -0.1169 -2.7217 -1.3354
19668TIP3    H280496   3.268   2.706  12.664  0.4629  0.0902  1.0826
19669TIP3   OH280497   2.984   3.058   5.877 -1.0331 -0.2649 -0.0573
19669TIP3    H180498   2.969   3.131   5.817 -2.9726 -0.9475 -0.4463
19669TIP3    H280499   2.933   3.080   5.955  0.7664  0.1952  1.0286
19670TIP3   OH280500   0.589   5.265   1.018  0.9387 -0.1829 -0.3806
19670TIP3    H180501   0.625   5.335   0.963  0.2170  0.0726 -0.5269
19670TIP3    H280502   0.532   5.215   0.960 -1.1372  1.0803  0.5039
19671TIP3   OH280503   0.535   4.742   3.700 -0.0213  0.0259  0.1530
19671TIP3    H180504   0.616   4.787   3.725  1.7988 -2.0686 -1.8031
19671TIP3    H280505   0.526   4.672   3.764  0.3832 -0.5120 -0.3821
19672TIP3   OH280506   2.356   2.765  14.115  0.1221 -0.4566 -0.1161
19672TIP3    H180507   2.264   2.780  14.139  0.3754 -0.5687  0.9654
19672TIP3    H280508   2.403   2.840  14.152  0.4398 -0.2639 -0.8892
19673TIP3   OH280509   0.401   3.783  13.954  0.6025  0.3808  0.0655
19673TIP3    H180510   0.435   3.708  13.903 -0.7164 -0.2112  0.0280
19673TIP3    H280511   0.467   3.851  13.943  2.7777 -1.4154  1.6828
19674TIP3   OH280512   3.399   4.864  12.496  0.3472 -0.6208  0.3885
19674TIP3    H180513   3.484   4.852  12.539  0.0296 -2.0406  0.6632
19674TIP3    H280514   3.340   4.893  12.566  0.3449 -0.7773  0.4527
19675TIP3   OH280515   5.023   2.135   2.279 -0.2158  0.2661 -0.2641
19675TIP3    H180516   4.945   2.110   2.230  1.1614 -1.8175 -1.4353
19675TIP3    H280517   5.079   2.179   2.215  1.1887 -1.6316 -0.3725
19676TIP3   OH280518   5.264   2.520   3.357 -0.0770  0.0295 -0.4133
19676TIP3    H180519   5.253   2.547   3.266  1.2372 -0.7302 -0.8057
19676TIP3    H280520   5.206   2.444   3.367  1.1868 -1.0639 -1.1671
19677TIP3   OH280521   4.805   3.050   0.733 -0.2378  0.3553 -0.4497
19677TIP3    H180522   4.900   3.051   0.725 -0.1718  1.7667  0.2148
19677TIP3    H280523   4.790   3.042   0.828 -0.7245  3.0024 -0.2668
19678TIP3   OH280524   0.020   2.733  16.837 -0.5499 -0.5144 -0.0858
19678TIP3    H180525   0.087   2.801  16.838 -0.4702 -0.5921 -0.1810
19678TIP3    H280526   0.067   2.652  16.852 -0.6194 -0.5715 -0.1735
19679TIP3   OH280527   5.460   2.862   1.696 -0.0858 -0.1071  0.1418
19679TIP3    H180528   5.467   2.768   1.708  0.3576  0.1508  2.1546
19679TIP3    H280529   5.551   2.892   1.687 -0.1119  0.3055  1.1512
19680TIP3   OH280530   5.478   5.431   3.900  0.0257  0.2768 -0.4023
19680TIP3    H180531   5.519   5.414   3.815  3.0405  1.0519  0.8353
19680TIP3    H280532   5.485   5.348   3.947 -0.4208  0.2239 -0.4329
19681TIP3   OH280533   6.064   0.942   3.374  0.7129 -0.1154  0.2555
19681TIP3    H180534   6.100   0.857   3.402  1.7685 -0.3476 -1.7215
19681TIP3    H280535   5.978   0.920   3.339 -0.3554  0.0925  2.6411
19682TIP3   OH280536   5.889   1.903   3.361  0.1086  0.3303 -0.1477
19682TIP3    H180537   5.881   1.972   3.428 -2.3847 -0.3955  0.3210
19682TIP3    H280538   5.920   1.827   3.409 -1.0325 -0.0000  0.0787
19683TIP3   OH280539   1.126   3.426   3.897 -0.3174 -0.3308  0.1112
19683TIP3    H180540   1.147   3.492   3.831 -1.7029  0.7827  0.7491
19683TIP3    H280541   1.031   3.415   3.890 -0.4863 -0.1762  1.9227
19684TIP3   OH280542   6.692   1.532  12.848 -0.2871 -0.4239  0.1995
19684TIP3    H180543   6.779   1.496  12.831 -0.2427  0.3081 -1.1949
19684TIP3    H280544   6.688   1.612  12.796 -0.7081  1.1459  2.5948
19685TIP3   OH280545   2.644   1.122   6.282 -0.4407  0.0984  0.5757
19685TIP3    H180546   2.717   1.061   6.290 -0.5641 -0.2994 -1.2154
19685TIP3    H280547   2.685   1.205   6.257 -0.5149  0.1235  0.5378
19686TIP3   OH280548   6.491   4.876   1.049 -0.1166  0.2092 -0.1037
19686TIP3    H180549   6.424   4.893   1.116  0.6761 -0.4875  0.8756
19686TIP3    H280550   6.468   4.789   1.015 -0.4270  0.4971 -0.6267
19687TIP3   OH280551   4.499   4.541   1.432  0.2290  0.1395  0.2558
19687TIP3    H180552   4.586   4.512   1.403  0.3834  0.9172 -0.0833
19687TIP3    H280553   4.514   4.626   1.472 -0.5292  0.8112 -0.8462
19688TIP3   OH280554   6.578   0.433  12.836 -0.7229  0.0865 -0.1305
19688TIP3    H180555   6.542   0.500  12.894 -0.3858 -0.4877  0.7589
19688TIP3    H280556   6.501   0.394  12.794 -1.0352 -0.0334  0.5376
19689TIP3   OH280557   4.146   5.650   1.179 -0.5919 -0.2074  0.4602
19689TIP3    H180558   4.165   5.609   1.264 -2.2255 -1.1996  0.3696
19689TIP3    H280559   4.151   5.578   1.116 -1.2368  0.1624 -0.0219
19690TIP3   OH280560   5.612   6.239   0.928 -1.1178 -0.3273  0.1947
19690TIP3    H180561   5.612   6.320   0.877  0.1677 -0.6464 -0.3342
19690TIP3    H280562   5.626   6.267   1.018  0.7138 -0.0350 -0.1589
19691TIP3   OH280563   4.140   4.675  14.805  0.0542  0.1304 -0.4113
19691TIP3    H180564   4.137   4.746  14.740 -3.5058 -0.4691 -0.9952
19691TIP3    H280565   4.119   4.718  14.888 -3.5475 -0.3334 -0.9748
19692TIP3   OH280566   2.802   1.888  11.815  0.0987 -0.2809 -0.0011
19692TIP3    H180567   2.775   1.856  11.901 -0.5369 -0.1864 -0.1619
19692TIP3    H280568   2.880   1.940  11.832  0.5806 -1.1284  0.3835
19693TIP3   OH280569   5.886   3.973   0.366  0.5863  0.8166 -0.3779
19693TIP3    H180570   5.968   3.924   0.370  1.0967  1.7882  2.1239
19693TIP3    H280571   5.835   3.941   0.440 -0.2932  1.9173 -0.4893
19694TIP3   OH280572   4.539   6.667  11.387 -0.5232  0.0338 -0.5753
19694TIP3    H180573   4.545   6.722  11.309 -0.3492 -0.9482 -1.2502
19694TIP3    H280574   4.628   6.662  11.420 -0.7364  1.1967  0.2141
19695TIP3   OH280575   1.370   5.347   4.458 -0.3676 -0.1863 -0.7863
19695TIP3    H180576   1.378   5.317   4.548 -1.2594 -1.2492 -1.0469
19695TIP3    H280577   1.278   5.375   4.450 -0.8094 -1.8654 -1.8808
19696TIP3   OH280578   3.860   0.193   4.679 -0.4320 -0.4728 -0.5743
19696TIP3    H180579   3.918   0.218   4.607  0.2486 -1.9945 -0.5734
19696TIP3    H280580   3.886   0.249   4.752 -0.6228  0.5620 -1.2763
19697TIP3   OH280581   2.598   2.673  16.909 -0.0978  0.0699  0.3190
19697TIP3    H180582   2.674   2.636  16.863  1.4785  1.2700  1.9076
19697TIP3    H280583   2.531   2.681  16.841  0.1306 -3.8623 -0.4773
19698TIP3   OH280584   2.681   4.691   4.247  0.3893  0.4570 -0.2191
19698TIP3    H180585   2.630   4.768   4.274 -0.5237 -0.7981  1.7444
19698TIP3    H280586   2.705   4.649   4.330  2.1207 -0.5790 -1.2278
19699TIP3   OH280587   6.573   2.252   6.861 -0.3009  0.2989  0.3907
19699TIP3    H180588   6.665   2.231   6.850 -0.5644  0.3897 -2.4827
19699TIP3    H280589   6.572   2.337   6.904  0.9173  0.0361  0.9561
19700TIP3   OH280590   6.077   5.956   1.146 -0.2121  0.1257  0.6074
19700TIP3    H180591   6.059   6.016   1.073  0.9839  0.5895  0.6847
19700TIP3    H280592   6.169   5.933   1.136 -0.6019 -1.5114  0.7350
19701TIP3   OH280593   4.351   6.267  12.526 -0.3087 -0.1982  0.0479
19701TIP3    H180594   4.323   6.225  12.445 -1.9051 -0.6824  0.8315
19701TIP3    H280595   4.271   6.303  12.563  0.7142  1.6632  0.4750
19702TIP3   OH280596   5.648   1.968   4.090 -0.2918 -0.2882  0.4622
19702TIP3    H180597   5.605   2.030   4.148 -1.6254 -3.0383  2.5020
19702TIP3    H280598   5.600   1.975   4.007 -0.8273  0.8864  0.8600
19703TIP3   OH280599   5.824   0.572   4.343  0.0501  0.2537  0.2587
19703TIP3    H180600   5.867   0.621   4.273 -0.4441  1.1734  0.5933
19703TIP3    H280601   5.739   0.548   4.307  0.5549 -0.9637 -0.1504
19704TIP3   OH280602   3.585   1.178  14.967  0.3211 -0.6642 -0.3456
19704TIP3    H180603   3.534   1.250  15.002 -1.1220 -1.0046 -1.7152
19704TIP3    H280604   3.536   1.148  14.891  1.6878 -2.1002 -0.6908
19705TIP3   OH280605   6.356   6.236   6.732 -0.1044  0.2502  0.5073
19705TIP3    H180606   6.436   6.270   6.773  0.4214  0.2552 -0.5056
19705TIP3    H280607   6.327   6.307   6.674  1.0539 -1.0458 -1.7086
19706TIP3   OH280608   2.084   6.573   2.343 -0.1681 -0.1249  0.2899
19706TIP3    H180609   2.148   6.589   2.274 -1.0323  1.9115 -0.0806
19706TIP3    H280610   2.042   6.658   2.356 -1.3372 -0.9498  1.9850
19707TIP3   OH280611   4.212   0.183   5.778  0.6755  0.0550 -0.2066
19707TIP3    H180612   4.297   0.143   5.798  0.4396 -0.9742 -1.2307
19707TIP3    H280613   4.222   0.218   5.690  0.0257 -0.0811 -0.3335
19708TIP3   OH280614   6.380   1.530   2.577  0.3391 -0.4124  0.0030
19708TIP3    H180615   6.356   1.489   2.661 -0.4232 -1.8452 -0.8870
19708TIP3    H280616   6.442   1.468   2.538  1.8304  0.9514  0.1312
19709TIP3   OH280617   4.359   0.679   6.169 -0.3929  0.2892  0.5186
19709TIP3    H180618   4.298   0.751   6.186 -1.6461 -1.0639  1.7714
19709TIP3    H280619   4.418   0.680   6.244  0.3013  0.7108 -0.0206
19710TIP3   OH280620   1.726   5.574  14.580  0.2690  0.3593  0.6985
19710TIP3    H180621   1.693   5.485  14.585 -1.3244  0.8766 -0.4756
19710TIP3    H280622   1.731   5.593  14.487  3.8900  0.3193  0.8159
19711TIP3   OH280623   5.456   4.579  16.985 -0.3769 -0.3842  0.6082
19711TIP3    H180624   5.503   4.613  17.061 -0.5078  1.7984 -0.2600
19711TIP3    H280625   5.523   4.569  16.917 -0.6770  0.0102  0.2523
19712TIP3   OH280626   2.254   6.411  11.710  0.2416 -0.0181  0.0375
19712TIP3    H180627   2.260   6.356  11.631  0.4521  1.8634 -1.2837
19712TIP3    H280628   2.234   6.349  11.780 -0.4321 -1.6760 -1.5662
19713TIP3   OH280629   2.053   2.392  15.381  0.2166 -0.4195  0.7450
19713TIP3    H180630   2.149   2.389  15.384  0.1574 -1.7600  2.0067
19713TIP3    H280631   2.025   2.323  15.442 -1.5570 -1.2658 -0.9884
19714TIP3   OH280632   4.274   5.745   1.689 -0.0746 -0.2016 -0.4384
19714TIP3    H180633   4.278   5.780   1.600  0.6700 -3.1351 -1.6024
19714TIP3    H280634   4.191   5.697   1.693  0.0133 -0.2977  0.3709
19715TIP3   OH280635   5.366   2.852   0.589  0.5770  0.0712  0.1926
19715TIP3    H180636   5.285   2.863   0.538  1.4075  0.2990 -1.0977
19715TIP3    H280637   5.417   2.930   0.569  0.1490  1.1094  2.8570
19716TIP3   OH280638   1.198   5.128  17.132 -0.3693 -0.3636  0.4901
19716TIP3    H180639   1.149   5.164  17.207 -1.5981 -1.5225  0.2688
19716TIP3    H280640   1.243   5.204  17.095 -2.1541  0.7947  0.6100
19717TIP3   OH280641   1.504   3.461  13.567 -0.0238 -0.3111  0.2369
19717TIP3    H180642   1.571   3.401  13.600  0.5325 -0.7465 -1.6183
19717TIP3    H280643   1.488   3.431  13.477 -0.6255  1.5656 -0.2949
19718TIP3   OH280644   6.478   4.891  12.912 -0.3011 -0.2769  0.0224
19718TIP3    H180645   6.527   4.901  12.993 -0.0485 -0.1022 -0.1496
19718TIP3    H280646   6.504   4.966  12.859 -2.3261  0.9576  0.7226
19719TIP3   OH280647   1.113   6.113   2.743 -0.2425 -0.2047  0.8185
19719TIP3    H180648   1.170   6.186   2.768 -0.0379  0.7258 -2.2084
19719TIP3    H280649   1.044   6.154   2.691  0.4361 -2.2714 -1.7902
19720TIP3   OH280650   3.109   1.991   5.637 -0.1120 -0.0459 -0.1147
19720TIP3    H180651   3.103   1.905   5.596  0.1617  0.8975 -2.2430
19720TIP3    H280652   3.187   1.986   5.692 -0.0258 -1.1078 -0.3247
19721TIP3   OH280653   1.635   2.821  17.049 -0.3105  0.0946  0.4723
19721TIP3    H180654   1.667   2.749  16.994  0.1588  0.0969  0.7312
19721TIP3    H280655   1.568   2.864  16.996  1.4308  1.2522 -0.8983
19722TIP3   OH280656   0.143   0.944  14.545  0.1929 -0.1368 -0.0261
19722TIP3    H180657   0.113   0.869  14.494  0.6173  1.4160 -2.6158
19722TIP3    H280658   0.236   0.953  14.522  0.3129  0.7744  0.7846
19723TIP3   OH280659   6.395   1.477   2.978 -0.3381  0.3926 -0.3096
19723TIP3    H180660   6.431   1.397   2.940 -0.7315  0.0722 -0.0086
19723TIP3    H280661   6.429   1.547   2.923  0.8114  0.1004  0.0113
19724TIP3   OH280662   3.850   0.355   1.967  0.1528  0.1048 -0.2590
19724TIP3    H180663   3.796   0.424   2.007  1.0760  0.7259 -0.0646
19724TIP3    H280664   3.788   0.286   1.945 -0.6452  0.5774  0.4666
19725TIP3   OH280665   1.544   2.787   2.176 -0.2635 -0.2398  0.0138
19725TIP3    H180666   1.531   2.779   2.082  1.6662  0.3544 -0.3190
19725TIP3    H280667   1.507   2.707   2.212 -1.6150 -0.1794 -1.1647
19726TIP3   OH280668   0.029   5.276  13.399  0.3546 -0.0931 -0.5106
19726TIP3    H180669   0.100   5.224  13.362  2.9205  1.5371  1.9106
19726TIP3    H280670  -0.006   5.223  13.470  0.1786 -0.2230 -0.6920
19727TIP3   OH280671   0.175   3.627  14.148 -0.0784  0.0825 -0.3502
19727TIP3    H180672   0.206   3.594  14.063  2.1451 -4.2365  1.9838
19727TIP3    H280673   0.253   3.662  14.191 -0.4344 -1.1931  1.3903
19728TIP3   OH280674   4.258   3.132   4.253 -0.5696 -0.1789 -0.2636
19728TIP3    H180675   4.315   3.119   4.178 -0.2273 -0.2905  0.0152
19728TIP3    H280676   4.264   3.050   4.302 -0.4185  0.0714  0.1362
19729TIP3   OH280677   1.413   2.201   3.665 -0.7216  0.1066  0.8105
19729TIP3    H180678   1.459   2.134   3.615 -0.4184  2.8691 -2.8332
19729TIP3    H280679   1.332   2.159   3.693 -0.1163 -2.0331 -0.5567
19730TIP3   OH280680   4.241   5.868   1.430 -0.0172  0.0011  0.3309
19730TIP3    H180681   4.194   5.941   1.469 -1.0657 -2.1363  3.2292
19730TIP3    H280682   4.221   5.873   1.337  0.9437  4.0834  0.2522
19731TIP3   OH280683   2.482   2.838  16.685  0.1945  0.4539  0.0375
19731TIP3    H180684   2.538   2.894  16.631  0.5864 -0.6723 -0.7559
19731TIP3    H280685   2.404   2.823  16.631 -0.0225  0.4549  0.3504
19732TIP3   OH280686   3.945   4.009  14.957  0.2792 -0.2568 -0.2189
19732TIP3    H180687   4.020   3.994  14.900 -0.0379 -1.6078 -0.2974
19732TIP3    H280688   3.921   3.922  14.989  0.1023  0.4139  1.5397
19733TIP3   OH280689   2.883   1.295  11.537  0.3158 -0.1975  0.5270
19733TIP3    H180690   2.867   1.256  11.452  2.3337  2.4828 -1.1825
19733TIP3    H280691   2.957   1.245  11.573  1.3152  0.4661 -0.5769
19734TIP3   OH280692   1.813   4.706   5.868  0.6375 -0.2657  0.1074
19734TIP3    H180693   1.722   4.680   5.884 -0.2725  2.7695  0.1065
19734TIP3    H280694   1.860   4.672   5.944 -0.7380 -0.6991  0.7931
19735TIP3   OH280695   6.251   6.725   2.058 -0.3148 -0.6273  0.1207
19735TIP3    H180696   6.168   6.689   2.027  0.0997 -1.2057 -0.3476
19735TIP3    H280697   6.315   6.655   2.041  0.3978  0.1029 -0.2272
19736TIP3   OH280698   2.569   1.763   4.923 -0.0880  0.7992  0.3404
19736TIP3    H180699   2.641   1.732   4.867 -0.1535 -0.0708  0.7301
19736TIP3    H280700   2.600   1.748   5.012 -1.4167 -1.1949  0.5071
19737TIP3   OH280701   0.540   6.519  13.937  0.3174 -1.0341  0.0363
19737TIP3    H180702   0.461   6.493  13.985 -0.8556  2.8220  0.4492
19737TIP3    H280703   0.584   6.580  13.995  2.0832 -0.9251 -1.3768
19738TIP3   OH280704   6.431   6.512  17.285 -0.0052 -0.0554 -0.5989
19738TIP3    H180705   6.502   6.479  17.230  0.7403  0.3093  0.1305
19738TIP3    H280706   6.429   6.453  17.359  1.3981  1.5431  0.7563
19739TIP3   OH280707   1.339   4.412  14.845  0.6991 -0.0278  0.3127
19739TIP3    H180708   1.432   4.398  14.867  0.4546 -1.1898  0.6434
19739TIP3    H280709   1.292   4.395  14.926  0.3345  2.5494  0.6789
19740TIP3   OH280710   0.110   2.338  13.771 -0.4831 -0.3237 -1.0055
19740TIP3    H180711   0.142   2.424  13.798  1.2740 -0.9142 -1.1746
19740TIP3    H280712   0.127   2.335  13.677 -1.3757 -0.5165 -1.1692
19741TIP3   OH280713   4.222   2.025   5.777 -0.3000 -0.3553 -0.2471
19741TIP3    H180714   4.178   2.109   5.787  0.0156 -0.1139 -0.8406
19741TIP3    H280715   4.208   1.980   5.860 -3.5930 -1.2053 -1.1773
19742TIP3   OH280716   5.290   4.097   4.388  0.4959 -0.1703  0.4120
19742TIP3    H180717   5.213   4.132   4.344 -0.0650 -0.3595  1.2378
19742TIP3    H280718   5.352   4.170   4.389 -0.2336  0.4543  1.0825
19743TIP3   OH280719   2.695   5.947  10.852  0.5542 -0.1282  0.0759
19743TIP3    H180720   2.688   5.987  10.766 -0.7913  0.1880  0.3191
19743TIP3    H280721   2.746   5.867  10.838  0.1934 -0.1675 -1.0491
19744TIP3   OH280722   0.369   4.316   0.826 -0.4877 -0.2965 -0.1673
19744TIP3    H180723   0.346   4.409   0.832 -2.0947 -0.5947 -1.3713
19744TIP3    H280724   0.462   4.313   0.848 -0.2650  1.6890 -0.7637
19745TIP3   OH280725   1.666   5.315  15.026 -0.3850 -0.7474  0.2858
19745TIP3    H180726   1.598   5.279  15.083 -0.4723 -1.0677 -0.0254
19745TIP3    H280727   1.706   5.238  14.985 -1.6889 -0.4012 -1.6732
19746TIP3   OH280728   4.995   4.864   5.967  0.5617 -0.0317  0.5494
19746TIP3    H180729   5.071   4.907   5.926  0.4362 -0.1023  0.2386
19746TIP3    H280730   4.940   4.936   5.998  0.1072  0.0510 -0.4158
19747TIP3   OH280731   1.726   3.500  15.712  0.3014  0.3636  0.4852
19747TIP3    H180732   1.795   3.566  15.709 -0.1426  0.8673  1.2580
19747TIP3    H280733   1.667   3.524  15.640  0.7921  0.0777 -0.0173
19748TIP3   OH280734   5.837   4.320   3.380  0.1173  0.5071  0.2106
19748TIP3    H180735   5.844   4.256   3.451 -1.2514  1.8939  1.6286
19748TIP3    H280736   5.890   4.394   3.408  1.4681  0.1389 -1.3053
19749TIP3   OH280737   6.123   3.556   0.731  0.3929  0.2856 -0.0997
19749TIP3    H180738   6.140   3.537   0.639 -0.7153  0.3111 -0.3124
19749TIP3    H280739   6.058   3.627   0.730 -1.9628 -1.7781  0.6741
19750TIP3   OH280740   2.459   4.571   3.398 -0.8325 -0.6922  0.2883
19750TIP3    H180741   2.513   4.632   3.447 -0.4168 -1.2065  0.4761
19750TIP3    H280742   2.517   4.497   3.380 -1.0522 -0.6226 -0.7550
19751TIP3   OH280743   0.752   2.727   5.744  0.1217 -0.4137 -0.0147
19751TIP3    H180744   0.780   2.694   5.829  2.1515  0.6934 -0.2183
19751TIP3    H280745   0.657   2.715   5.743  0.0497 -0.2255  2.4939
19752TIP3   OH280746   1.191   6.565   5.084  0.3188  0.4012  0.5518
19752TIP3    H180747   1.219   6.656   5.081  0.1626  0.4045 -1.3297
19752TIP3    H280748   1.258   6.521   5.136 -0.0432  1.7128  2.1901
19753TIP3   OH280749   6.469   6.405  15.382 -0.0522  0.8077  0.2568
19753TIP3    H180750   6.521   6.472  15.338 -1.7523  0.5025 -2.3016
19753TIP3    H280751   6.510   6.322  15.358 -0.2661  0.6976  0.2720
19754TIP3   OH280752   5.197   3.890   3.819  0.4131 -0.4100  0.3304
19754TIP3    H180753   5.149   3.809   3.802 -0.3581  0.0656  0.2269
19754TIP3    H280754   5.196   3.899   3.915 -0.3521 -0.0159  0.2894
19755TIP3   OH280755   3.663   3.077  13.744 -0.0537 -0.1233  0.1656
19755TIP3    H180756   3.731   3.022  13.783 -1.7680 -3.0090 -0.7571
19755TIP3    H280757   3.683   3.077  13.650  0.1061  1.0990  0.1939
19756TIP3   OH280758   5.125   3.970  13.607  0.2605  0.1557  0.0842
19756TIP3    H180759   5.029   3.978  13.607  0.1982 -0.3958 -1.3506
19756TIP3    H280760   5.156   4.060  13.597 -0.1397  0.2112 -0.7122
19757TIP3   OH280761   0.262   3.051   4.312  0.2999 -0.4632 -0.2449
19757TIP3    H180762   0.289   2.966   4.348 -0.2561 -0.7575 -0.5110
19757TIP3    H280763   0.281   3.045   4.219  0.9425 -0.0198 -0.1436
19758TIP3   OH280764   2.295   1.887  14.573 -0.4787 -0.2443 -0.6700
19758TIP3    H180765   2.365   1.870  14.636  0.0895  2.4255 -0.5501
19758TIP3    H280766   2.216   1.850  14.614  0.5402 -1.8871 -0.1190
19759TIP3   OH280767   5.183   5.552   3.077  0.8836  0.4899 -0.1475
19759TIP3    H180768   5.220   5.502   3.150  0.8529  0.4037 -0.1908
19759TIP3    H280769   5.204   5.643   3.098 -1.0688  0.6778  1.0777
19760TIP3   OH280770   4.589   0.511   1.188  0.4512  0.4007  0.7008
19760TIP3    H180771   4.584   0.590   1.134  0.8376  0.5001  0.8058
19760TIP3    H280772   4.601   0.440   1.125  1.6978  0.6041  0.6987
19761TIP3   OH280773   0.760   2.836  15.928 -0.3971  0.3733  0.1274
19761TIP3    H180774   0.784   2.917  15.882 -0.5369 -0.1465 -0.8594
19761TIP3    H280775   0.826   2.772  15.902 -1.3002 -0.3182 -0.4868
19762TIP3   OH280776   0.338   2.694  16.121  0.0883  0.0618 -0.1105
19762TIP3    H180777   0.267   2.636  16.094 -0.0434  0.6714 -1.1163
19762TIP3    H280778   0.294   2.767  16.166  0.1758 -0.1225  0.2798
19763TIP3   OH280779   1.915   4.049   3.107 -0.0313  0.4743  0.0379
19763TIP3    H180780   1.957   3.991   3.043  0.2170  0.5241  0.1549
19763TIP3    H280781   1.972   4.045   3.184 -0.8967 -0.4235  0.6445
19764TIP3   OH280782   6.322   6.606   0.344 -0.4958 -0.1546 -0.1170
19764TIP3    H180783   6.332   6.526   0.291  2.0572  0.1177 -0.0864
19764TIP3    H280784   6.311   6.573   0.433 -0.1226 -0.4817 -0.1900
19765TIP3   OH280785   1.772   3.878   2.869  0.4129  0.3733  0.4306
19765TIP3    H180786   1.857   3.916   2.890  0.8958 -0.5837  0.2269
19765TIP3    H280787   1.720   3.888   2.949  1.2062 -0.3705  1.0520
19766TIP3   OH280788   1.687   1.747  14.187 -0.5106 -0.1307  0.4656
19766TIP3    H180789   1.757   1.723  14.127 -0.5822  0.1924  0.2472
19766TIP3    H280790   1.703   1.840  14.206  0.1488 -0.5097  1.8160
19767TIP3   OH280791   4.230   3.206   0.371  0.3635 -0.3446  0.3308
19767TIP3    H180792   4.283   3.268   0.321 -0.6498  0.2435 -0.0172
19767TIP3    H280793   4.257   3.218   0.462  0.0651  0.7004  0.2787
19768TIP3   OH280794   0.081   5.557  16.098  0.1799  0.2983  1.0407
19768TIP3    H180795   0.068   5.529  16.188 -0.6257  0.1735  0.8928
19768TIP3    H280796  -0.002   5.597  16.073 -0.3469 -1.6172 -0.3466
19769TIP3   OH280797   2.657   4.285  16.115  0.0548 -0.7953 -0.2411
19769TIP3    H180798   2.698   4.345  16.178 -0.2324 -0.6474 -0.1954
19769TIP3    H280799   2.686   4.198  16.144  3.0720 -0.5072 -2.1804
19770TIP3   OH280800   3.624   2.209   3.144  0.0253 -0.1050 -0.0073
19770TIP3    H180801   3.680   2.202   3.066 -1.7308  0.4696 -1.3385
19770TIP3    H280802   3.660   2.283   3.192 -1.2368  2.0095 -2.2404
19771TIP3   OH280803   2.154   4.519  11.289 -0.1196  0.7043  0.2206
19771TIP3    H180804   2.070   4.503  11.332  0.6949 -1.7290  0.9995
19771TIP3    H280805   2.156   4.457  11.216  2.5320 -1.9922  2.4495
19772TIP3   OH280806   5.551   3.575  16.561  0.2433 -0.5819  0.4749
19772TIP3    H180807   5.508   3.546  16.642  0.5536 -0.4569  0.6831
19772TIP3    H280808   5.644   3.569  16.580  0.3122  0.0233  0.3273
19773TIP3   OH280809   0.876   0.996   1.099  0.1992 -0.1035  0.9237
19773TIP3    H180810   0.813   0.967   1.165 -0.0912  0.2497  0.8006
19773TIP3    H280811   0.955   1.015   1.148  0.1104 -0.2358  1.1188
19774TIP3   OH280812   2.972   4.431  16.035 -0.0226 -0.1753  0.1578
19774TIP3    H180813   2.915   4.377  15.981  0.3100  0.7400 -1.1161
19774TIP3    H280814   2.916   4.459  16.108 -0.9136 -0.1279 -0.5371
19775TIP3   OH280815   1.895   3.681   1.581 -0.1337 -0.2900 -0.3731
19775TIP3    H180816   1.874   3.599   1.537 -2.4724  0.6811 -1.1263
19775TIP3    H280817   1.900   3.745   1.511  1.4867  0.2803  0.2356
19776TIP3   OH280818   3.844   5.247  15.231  0.0819 -0.0944 -0.9346
19776TIP3    H180819   3.901   5.321  15.211 -1.6752  1.2830 -0.9801
19776TIP3    H280820   3.763   5.266  15.183 -1.5934 -0.3394  1.6824
19777TIP3   OH280821   6.395   4.711  11.343 -0.2073  0.1842  0.4055
19777TIP3    H180822   6.455   4.722  11.417 -1.6305  3.5297  1.1828
19777TIP3    H280823   6.411   4.787  11.287 -2.4637  0.2233 -0.2462
19778TIP3   OH280824   0.910   6.604  15.046 -0.0263  0.3079  0.3071
19778TIP3    H180825   0.839   6.646  15.094  0.1327 -0.6280  1.3674
19778TIP3    H280826   0.956   6.551  15.111  0.8203 -0.1641 -0.6550
19779TIP3   OH280827   6.098   3.589  12.372  0.5536 -0.2562 -0.1115
19779TIP3    H180828   6.132   3.675  12.398 -1.6986  0.0615  1.9535
19779TIP3    H280829   6.152   3.527  12.421  1.3705  0.0140 -0.6539
19780TIP3   OH280830   3.724   3.575   4.621 -0.1672 -0.3379  0.0312
19780TIP3    H180831   3.729   3.581   4.526  0.0457  0.3334  0.0779
19780TIP3    H280832   3.682   3.657   4.648  2.2324  0.7082  0.7074
19781TIP3   OH280833   4.610   2.930   4.685 -0.8870  0.2310  0.1654
19781TIP3    H180834   4.698   2.937   4.650 -1.1462  1.3963 -0.2720
19781TIP3    H280835   4.556   2.904   4.611 -1.0706  0.5062  0.1995
19782TIP3   OH280836   6.549   5.346  16.459  0.3182 -0.3673  0.0608
19782TIP3    H180837   6.601   5.409  16.510 -0.2706 -1.1440  1.6632
19782TIP3    H280838   6.541   5.386  16.372  0.4493  1.4900  0.8761
19783TIP3   OH280839   5.693   2.412  12.372  0.4699  0.7606  0.3215
19783TIP3    H180840   5.709   2.396  12.279  1.8431  1.1309  0.4759
19783TIP3    H280841   5.641   2.337  12.401 -0.5057  0.9447 -0.8744
19784TIP3   OH280842   6.731   0.587   4.101 -0.2043 -0.1086 -0.1311
19784TIP3    H180843   6.690   0.611   4.018 -2.4056 -1.0244  0.6549
19784TIP3    H280844   6.823   0.609   4.089 -0.5357  0.0694 -2.7009
19785TIP3   OH280845   3.722   3.670  13.446  0.5537 -0.1988 -0.0174
19785TIP3    H180846   3.690   3.717  13.369 -2.0944  2.0303  2.3579
19785TIP3    H280847   3.720   3.578  13.420  1.9930  0.6333 -3.3839
19786TIP3   OH280848   0.004   3.439  12.131  0.0853  0.3089 -0.2742
19786TIP3    H180849  -0.026   3.520  12.172 -1.6080 -0.6672  0.4635
19786TIP3    H280850  -0.031   3.442  12.042  0.6624  0.7176 -0.4951
19787TIP3   OH280851   0.686   0.131   2.846 -0.0849  0.0358 -0.4147
19787TIP3    H180852   0.677   0.111   2.939 -2.0939  1.0950 -0.3373
19787TIP3    H280853   0.780   0.126   2.828  0.1685 -1.6503  1.3175
19788TIP3   OH280854   0.749   1.323   1.051  0.3903 -0.1560 -0.0986
19788TIP3    H180855   0.777   1.413   1.068  1.1238 -0.5949  1.0761
19788TIP3    H280856   0.820   1.286   0.998 -0.5960  0.3754 -1.8458
19789TIP3   OH280857   4.768   5.912  12.073  0.1568  0.2139  0.1612
19789TIP3    H180858   4.711   5.980  12.108  0.5173  0.9870 -0.7454
19789TIP3    H280859   4.759   5.839  12.135 -2.4210  0.0195 -0.3946
19790TIP3   OH280860   0.500   3.494  11.965 -0.3051  0.0229 -0.4965
19790TIP3    H180861   0.546   3.413  11.985 -0.4162 -0.0955 -0.7174
19790TIP3    H280862   0.546   3.530  11.888  1.3456  1.4600  1.1143
19791TIP3   OH280863   4.548   3.405   4.650 -0.3023 -0.2015  0.3524
19791TIP3    H180864   4.629   3.386   4.697 -0.4232  1.4186  1.2536
19791TIP3    H280865   4.489   3.334   4.676  0.0759 -0.0835  1.5942
19792TIP3   OH280866   5.846   6.739   5.120  0.0174  0.1297 -0.3067
19792TIP3    H180867   5.911   6.782   5.176 -1.7272  0.4151  1.5516
19792TIP3    H280868   5.819   6.807   5.058  1.9836 -0.2001 -1.5945
19793TIP3   OH280869   3.681   4.104   1.649 -0.3764 -0.2874  0.3557
19793TIP3    H180870   3.765   4.060   1.657 -0.2821 -0.0785  0.4980
19793TIP3    H280871   3.637   4.058   1.578  0.1336  0.0508 -0.1801
19794TIP3   OH280872   2.601   0.230  11.518  0.3335  0.0629  0.2830
19794TIP3    H180873   2.590   0.142  11.482  0.6967 -0.4510  1.3854
19794TIP3    H280874   2.524   0.278  11.489  0.3233 -0.5092 -0.6565
19795TIP3   OH280875   6.555   1.316  12.857 -0.7534  0.0007 -0.4712
19795TIP3    H180876   6.613   1.383  12.822 -0.0488 -0.4426 -0.1535
19795TIP3    H280877   6.517   1.356  12.935 -0.4533  0.0864 -0.3695
19796TIP3   OH280878   2.866   0.222   4.467  0.7161  0.8243 -0.1056
19796TIP3    H180879   2.862   0.317   4.478 -0.8119  1.1628 -3.1432
19796TIP3    H280880   2.778   0.198   4.437  1.5321 -1.3692 -0.8141
19797TIP3   OH280881   4.241   2.355   2.140  0.3892 -0.4840 -0.3227
19797TIP3    H180882   4.282   2.344   2.226 -0.2467 -1.0882 -0.0850
19797TIP3    H280883   4.152   2.323   2.153  0.2325 -0.3832 -1.1597
19798TIP3   OH280884   2.315   3.309   5.516 -0.0306 -0.3918 -0.0121
19798TIP3    H180885   2.254   3.336   5.448  0.6241  1.5988  0.1499
19798TIP3    H280886   2.386   3.265   5.469  0.8541  1.7581 -0.7336
19799TIP3   OH280887   4.933   2.070   4.799 -0.4932 -0.0183 -0.3352
19799TIP3    H180888   4.996   2.140   4.785  0.2042 -0.8405 -1.3484
19799TIP3    H280889   4.854   2.098   4.752 -0.6015  0.6016  0.2085
19800TIP3   OH280890   2.933   2.182   1.736  0.1388 -0.2519 -0.1952
19800TIP3    H180891   2.939   2.220   1.648  3.5312 -0.6887 -0.1892
19800TIP3    H280892   2.983   2.241   1.792 -1.5737 -0.2542  1.3924
19801TIP3   OH280893   0.872   2.622   3.301 -0.1370 -0.2349  0.0295
19801TIP3    H180894   0.865   2.706   3.254 -0.6053 -0.8895 -1.1015
19801TIP3    H280895   0.878   2.647   3.393  0.3937  1.0709 -0.3409
19802TIP3   OH280896   5.973   3.155   0.320 -0.1846  0.4883  0.4581
19802TIP3    H180897   6.020   3.228   0.278  1.1502 -0.9426 -0.5818
19802TIP3    H280898   5.889   3.152   0.274  0.1280  0.7721 -0.1527
19803TIP3   OH280899   4.336   5.633  12.567 -0.4765 -0.2709 -0.5426
19803TIP3    H180900   4.431   5.622  12.555 -0.6649 -2.3356 -0.3611
19803TIP3    H280901   4.299   5.611  12.482 -0.7230  1.7569 -0.9675
19804TIP3   OH280902   4.601   2.134   0.231 -0.4599 -0.0016  0.2483
19804TIP3    H180903   4.643   2.079   0.297 -0.6101 -0.5222 -0.0925
19804TIP3    H280904   4.674   2.173   0.183 -0.3567 -0.3707  0.1025
19805TIP3   OH280905   4.761   2.912  11.398  0.1392 -0.1505 -0.2372
19805TIP3    H180906   4.807   2.959  11.328  0.7972 -0.3953  0.0280
19805TIP3    H280907   4.674   2.893  11.361  0.2583  0.2936 -0.7487
19806TIP3   OH280908   0.454   6.557   4.731 -0.0270 -0.6522  0.3839
19806TIP3    H180909   0.533   6.534   4.780  0.2168  1.3291  0.9994
19806TIP3    H280910   0.382   6.541   4.792  0.2153  1.0234  1.1655
19807TIP3   OH280911   1.838   1.742  13.450  0.2133  0.2864 -0.7953
19807TIP3    H180912   1.897   1.785  13.388  1.2332  0.7657  0.5016
19807TIP3    H280913   1.825   1.654  13.414  2.6876 -0.2348 -0.4634
19808TIP3   OH280914   5.926   0.293   4.737 -0.0972  0.1811  0.1704
19808TIP3    H180915   5.835   0.315   4.715  0.0921  0.9080  0.0980
19808TIP3    H280916   5.964   0.375   4.767  0.4944 -0.1600  0.3712
19809TIP3   OH280917   3.280   1.271   0.746  0.0125  0.4050  0.2106
19809TIP3    H180918   3.236   1.356   0.739 -0.3045  0.1766 -0.7333
19809TIP3    H280919   3.239   1.229   0.821 -0.1227  0.9286  0.4286
19810TIP3   OH280920   2.455   0.112  16.230 -0.4611 -0.2613 -0.3443
19810TIP3    H180921   2.401   0.189  16.250 -0.5991 -0.5269  0.3148
19810TIP3    H280922   2.405   0.038  16.263 -0.6382 -0.7103 -1.5858
19811TIP3   OH280923   0.737   6.535   6.055  0.7115  0.1086  0.6435
19811TIP3    H180924   0.708   6.621   6.087  1.4510  1.0162 -1.0735
19811TIP3    H280925   0.820   6.552   6.012  0.0593 -1.1749 -1.1946
19812TIP3   OH280926   1.224   1.308   6.129  0.0848  0.4898  0.4524
19812TIP3    H180927   1.222   1.228   6.076 -0.4295  0.8420 -0.0674
19812TIP3    H280928   1.132   1.325   6.150  0.0408  1.6784 -0.5784
19813TIP3   OH280929   4.804   4.618  13.881 -0.9335  0.1870 -0.0982
19813TIP3    H180930   4.736   4.578  13.826  0.6578 -2.6289 -0.1112
19813TIP3    H280931   4.800   4.569  13.963  1.2967 -0.2667 -0.2254
19814TIP3   OH280932   3.238   4.196  15.407  0.2496 -0.5061 -0.3401
19814TIP3    H180933   3.332   4.209  15.391  1.1993 -2.3706  3.1370
19814TIP3    H280934   3.211   4.275  15.453  0.6787 -0.8728  0.5741
19815TIP3   OH280935   3.079   6.035  12.301  0.0784 -0.3278 -0.7235
19815TIP3    H180936   3.170   6.021  12.328  0.2008 -1.1283 -1.5283
19815TIP3    H280937   3.072   5.992  12.216 -1.2714 -0.9826 -0.2975
19816TIP3   OH280938   4.785   0.651   5.104  0.0335 -0.0677  0.5203
19816TIP3    H180939   4.694   0.638   5.131 -0.2859  1.2005  0.0848
19816TIP3    H280940   4.821   0.712   5.169 -0.2095  1.5389 -0.7967
19817TIP3   OH280941   0.422   3.570   4.124 -0.2060  0.1648 -0.0120
19817TIP3    H180942   0.337   3.527   4.138 -0.5172  0.5778 -0.5786
19817TIP3    H280943   0.468   3.512   4.063 -0.4464  0.3994 -0.4206
19818TIP3   OH280944   3.306   3.321  12.921 -0.3214 -0.0917 -0.0896
19818TIP3    H180945   3.355   3.239  12.921  1.2683  0.8358  0.2823
19818TIP3    H280946   3.267   3.326  12.834  2.0453  0.1857 -1.1884
19819TIP3   OH280947   4.848   4.073   4.661  0.3670 -0.0936 -0.0803
19819TIP3    H180948   4.791   4.079   4.584  0.0672 -0.3017  0.1227
19819TIP3    H280949   4.863   3.979   4.672 -2.2747 -0.3266  2.0632
19820TIP3   OH280950   2.601   6.276  14.187  0.0173 -0.3104  1.0370
19820TIP3    H180951   2.578   6.278  14.280 -0.5360 -0.8841  0.9186
19820TIP3    H280952   2.656   6.198  14.177  1.2453  0.5314  1.1402
19821TIP3   OH280953   1.861   6.780   0.131 -0.0251 -0.4828  0.2936
19821TIP3    H180954   1.855   6.806   0.223  0.7058 -2.0056  0.7901
19821TIP3    H280955   1.944   6.816   0.100 -0.1176 -0.2467  0.3232
19822TIP3   OH280956   5.615   3.023  13.595 -0.2161 -0.1503 -0.2684
19822TIP3    H180957   5.614   3.052  13.686  1.2506 -0.5649 -0.1029
19822TIP3    H280958   5.677   3.081  13.552 -0.3032 -0.4694 -0.8246
19823TIP3   OH280959   5.041   4.320  13.138  0.0029  0.4572  0.2402
19823TIP3    H180960   5.020   4.243  13.191  2.6109 -1.1302 -0.9715
19823TIP3    H280961   4.986   4.310  13.061  0.3776 -0.2481  0.0541
19824TIP3   OH280962   5.167   0.985  13.315  0.5812  0.3889 -0.4819
19824TIP3    H180963   5.125   1.047  13.255  2.0561  0.4683 -1.4597
19824TIP3    H280964   5.150   1.022  13.402 -1.2420  0.4746 -0.8561
19825TIP3   OH280965   4.359   1.337   3.938 -0.0152  0.0650  0.6792
19825TIP3    H180966   4.326   1.312   4.024 -0.6937 -1.0341  0.1060
19825TIP3    H280967   4.452   1.357   3.953  0.4272 -2.2980  1.2484
19826TIP3   OH280968   3.020   4.108  17.023  0.3642 -0.2486 -0.0961
19826TIP3    H180969   3.041   4.057  16.944  0.1642 -0.6445  0.1055
19826TIP3    H280970   2.966   4.180  16.992  0.1755 -0.4806 -0.2995
19827TIP3   OH280971   1.638   6.282   4.196  0.4055 -0.3806 -0.3070
19827TIP3    H180972   1.652   6.326   4.112 -2.1595  0.5443 -0.2715
19827TIP3    H280973   1.628   6.353   4.260  2.1597 -1.0780  0.7983
19828TIP3   OH280974   4.883   4.501   2.014 -0.4570  0.1748 -0.3383
19828TIP3    H180975   4.878   4.431   1.949 -0.4359 -0.4597  0.3347
19828TIP3    H280976   4.823   4.474   2.084 -0.5086  0.8656 -0.1106
19829TIP3   OH280977   5.694   4.684   4.751  0.8721  0.4039  0.0218
19829TIP3    H180978   5.666   4.775   4.744 -0.0283  0.4150  2.8661
19829TIP3    H280979   5.749   4.669   4.674 -0.4534  2.7958 -1.4412
19830TIP3   OH280980   2.909   6.090   1.839 -0.0800  0.0993 -0.0714
19830TIP3    H180981   2.831   6.036   1.856  0.0304  0.3508  1.2918
19830TIP3    H280982   2.953   6.095   1.924 -0.4882  2.9514  0.0320
19831TIP3   OH280983   2.836   0.490   0.419  0.3654  0.2480  0.5081
19831TIP3    H180984   2.930   0.499   0.400  0.3184 -0.8841 -0.2748
19831TIP3    H280985   2.799   0.452   0.340 -0.7018  0.3205  0.9635
19832TIP3   OH280986   4.384   2.612   0.659  0.2967 -0.1892 -0.2708
19832TIP3    H180987   4.379   2.531   0.711  1.1694 -0.2471 -0.2632
19832TIP3    H280988   4.477   2.633   0.657  0.1945  0.1979 -1.2330
19833TIP3   OH280989   1.568   6.133   2.483  0.1135  0.0796  0.0253
19833TIP3    H180990   1.546   6.160   2.394 -1.2361  1.1851  0.6584
19833TIP3    H280991   1.501   6.068   2.505 -0.4785  0.9255  0.7586
19834TIP3   OH280992   5.154   1.957  14.329 -0.2536  0.0536 -0.2449
19834TIP3    H180993   5.155   1.949  14.234 -0.4565 -1.6985 -0.1155
19834TIP3    H280994   5.212   1.887  14.360 -0.9385  0.0049  0.9562
19835TIP3   OH280995   0.842   2.115  12.245  1.0302  0.0300  0.1475
19835TIP3    H180996   0.805   2.099  12.158  1.7253  0.3647 -0.2148
19835TIP3    H280997   0.825   2.034  12.293 -1.3809  0.6577  0.4398
19836TIP3   OH280998   4.616   4.235   4.237  0.1149 -0.5564  0.6972
19836TIP3    H180999   4.640   4.236   4.145 -0.0557 -0.8418  0.6465
19836TIP3    H281000   4.531   4.191   4.239  0.4351 -1.1784  1.0609
19837TIP3   OH281001   5.252   4.432  16.887  0.0575 -0.1014  0.0375
19837TIP3    H181002   5.318   4.497  16.912  0.2455 -0.0319 -0.6317
19837TIP3    H281003   5.242   4.443  16.793 -1.1579  0.0992  0.1858
19838TIP3   OH281004   3.668   1.394  16.637 -0.0297  0.2392  0.1823
19838TIP3    H181005   3.577   1.390  16.666  0.1677 -0.2452  0.7431
19838TIP3    H281006   3.667   1.352  16.551 -0.1786 -0.6365  0.5988
19839TIP3   OH281007   6.757   3.975   5.011 -0.4154 -0.5176  0.5603
19839TIP3    H181008   6.804   3.898   5.041 -0.6447  0.2513  2.9923
19839TIP3    H281009   6.825   4.041   4.996 -0.2439 -1.0936 -1.2549
19840TIP3   OH281010   6.765   4.824  15.413 -1.0659 -0.0593 -0.0987
19840TIP3    H181011   6.774   4.844  15.320  0.4365  1.4325  0.3386
19840TIP3    H281012   6.817   4.744  15.426  0.4711  0.9278 -0.1447
19841TIP3   OH281013   0.510   0.557   4.749 -0.1114 -0.2341  0.2030
19841TIP3    H181014   0.504   0.628   4.685  1.3169  1.0873  1.4890
19841TIP3    H281015   0.419   0.533   4.767 -0.6544  1.9111  0.4465
19842TIP3   OH281016   4.759   0.696  16.933 -0.2556  0.0912  0.1883
19842TIP3    H181017   4.807   0.636  16.876 -2.2909  0.9693 -2.5608
19842TIP3    H281018   4.721   0.640  17.000  1.6334 -1.0548  0.3369
19843TIP3   OH281019   4.071   2.759   5.416  0.3759  0.5298 -0.4503
19843TIP3    H181020   4.017   2.711   5.479 -0.1764  1.0802 -0.4957
19843TIP3    H281021   4.151   2.707   5.409  1.1374  1.3231  1.9616
19844TIP3   OH281022   1.904   6.625   5.579  0.6882  0.5668  0.2223
19844TIP3    H181023   1.959   6.550   5.558  0.9232  1.4898 -2.7045
19844TIP3    H281024   1.961   6.701   5.569 -0.7697  1.4526 -1.6993
19845TIP3   OH281025   0.800   4.791  16.658 -0.3953  0.1536 -0.2475
19845TIP3    H181026   0.777   4.851  16.729  0.0134  0.4956 -0.3949
19845TIP3    H281027   0.762   4.707  16.683 -0.0080  0.1975  0.5229
19846TIP3   OH281028   2.887   5.884  15.050 -0.3856  0.4192 -0.8096
19846TIP3    H181029   2.895   5.932  15.132 -0.2692 -0.9698  0.0111
19846TIP3    H281030   2.946   5.929  14.990  1.0868  0.2239  0.4564
19847TIP3   OH281031   5.080   1.327  16.714  0.3194  0.3887 -0.2834
19847TIP3    H181032   5.090   1.236  16.684 -1.6335  0.4944 -1.3181
19847TIP3    H281033   5.158   1.343  16.766  0.1093 -2.3166  0.9760
19848TIP3   OH281034   1.073   3.193  16.206  0.3297  0.3793 -0.5389
19848TIP3    H181035   1.022   3.272  16.222  0.7824  0.4139  0.8422
19848TIP3    H281036   1.161   3.215  16.237  0.8023 -0.2070 -1.4245
19849TIP3   OH281037   4.871   6.026   5.758  0.0433 -0.4976 -0.0085
19849TIP3    H181038   4.963   6.027   5.782  0.2320  0.1866 -0.7322
19849TIP3    H281039   4.830   6.089   5.816 -0.3929 -2.4308  1.8726
19850TIP3   OH281040   2.523   1.430   0.189  0.0956  0.0503 -0.2806
19850TIP3    H181041   2.470   1.379   0.249  1.5272 -2.8461 -1.3599
19850TIP3    H281042   2.584   1.478   0.245  0.4390 -1.4758  0.6831
19851TIP3   OH281043   3.645   1.933   3.179 -0.1945 -0.6381  0.4683
19851TIP3    H181044   3.669   1.905   3.090 -3.2847 -2.8387  0.2129
19851TIP3    H281045   3.622   2.025   3.169  2.3688 -0.0544 -0.3829
19852TIP3   OH281046   3.708   1.614   3.112 -0.1308  0.2741 -0.3537
19852TIP3    H181047   3.753   1.650   3.189  0.7784  0.2004 -0.8339
19852TIP3    H281048   3.629   1.574   3.147  1.6411 -2.2573  0.9472
19853TIP3   OH281049   6.256   2.321   2.967  0.5697  0.1976 -0.1741
19853TIP3    H181050   6.169   2.286   2.986  1.2199 -1.5264 -0.3185
19853TIP3    H281051   6.292   2.343   3.053  0.6237 -0.6334  0.0217
19854TIP3   OH281052   2.860   0.149  16.553  0.2184  0.4124 -0.3270
19854TIP3    H181053   2.810   0.230  16.566  0.1201  0.5918 -1.7940
19854TIP3    H281054   2.951   0.178  16.548  0.2925  0.3000  0.2571
19855TIP3   OH281055   3.534   3.732   1.035  0.1243  0.4288  0.1939
19855TIP3    H181056   3.622   3.696   1.044 -0.3175 -1.1837 -1.5371
19855TIP3    H281057   3.512   3.764   1.123  1.6550 -0.9651  1.1176
19856TIP3   OH281058   6.491   2.483  15.098  0.4318  0.2429 -0.0686
19856TIP3    H181059   6.408   2.436  15.106 -1.0102  2.4305 -1.7998
19856TIP3    H281060   6.467   2.575  15.097  2.8365  0.9055 -1.1542
19857TIP3   OH281061   3.958   6.429   0.254 -0.0987 -0.2318  0.6233
19857TIP3    H181062   3.956   6.458   0.345  0.5689 -1.5430  1.0623
19857TIP3    H281063   3.880   6.468   0.214  0.2968  1.4364  1.4076
19858TIP3   OH281064   5.530   5.210   0.339 -0.4316 -0.1968 -0.4269
19858TIP3    H181065   5.600   5.254   0.388 -0.0115 -1.6733  0.3249
19858TIP3    H281066   5.517   5.128   0.386 -1.2007 -0.8763 -1.8237
19859TIP3   OH281067   3.450   4.392  13.061  0.1219 -0.3347 -0.1316
19859TIP3    H181068   3.508   4.373  12.987  0.4712 -1.7575  0.4929
19859TIP3    H281069   3.437   4.487  13.057  0.1872 -0.3764 -1.9743
19860TIP3   OH281070   4.188   2.461  13.987 -0.0830 -0.0205  0.1247
19860TIP3    H181071   4.258   2.404  14.017 -0.5371  0.4050  2.0791
19860TIP3    H281072   4.122   2.456  14.057 -0.6441  1.9516 -0.2394
19861TIP3   OH281073   0.203   4.717  13.421  0.0270  0.5188 -0.0913
19861TIP3    H181074   0.247   4.661  13.485 -0.2925 -0.7031 -0.9240
19861TIP3    H281075   0.235   4.805  13.440  2.8785 -0.3531 -0.7464
19862TIP3   OH281076   2.112   0.760  11.633  0.0654 -0.2363 -0.3883
19862TIP3    H181077   2.057   0.766  11.555 -2.1583  0.4230  1.1868
19862TIP3    H281078   2.149   0.848  11.644  2.9567 -1.1269 -2.4722
19863TIP3   OH281079   1.827   2.880  14.032  0.1144  0.5955  0.4750
19863TIP3    H181080   1.907   2.874  14.085  0.4142  2.8729  0.3425
19863TIP3    H281081   1.858   2.896  13.943 -0.4376 -1.6910 -0.1697
19864TIP3   OH281082   3.111   1.263   1.763  1.4652 -0.0243 -0.1182
19864TIP3    H181083   3.037   1.264   1.703  1.2731 -1.9752  0.0382
19864TIP3    H281084   3.140   1.172   1.764  3.8909  0.7015 -0.1951
19865TIP3   OH281085   0.081   0.344   3.509 -0.2291  0.0860  0.0664
19865TIP3    H181086  -0.007   0.345   3.547 -0.8063  0.6044 -1.2477
19865TIP3    H281087   0.094   0.434   3.477 -0.5042 -0.7863 -2.6027
19866TIP3   OH281088   5.199   1.585   2.469 -0.2100 -0.0501 -0.1925
19866TIP3    H181089   5.171   1.571   2.559  1.1882 -1.1988  0.0948
19866TIP3    H281090   5.226   1.676   2.466  3.2578 -0.9106  1.6043
19867TIP3   OH281091   3.620   2.017  12.601 -0.1352 -0.1647  0.2335
19867TIP3    H181092   3.568   2.091  12.631 -0.4152  0.4026 -1.5979
19867TIP3    H281093   3.598   2.008  12.509  1.6956 -1.0406 -0.1364
19868TIP3   OH281094   2.294   3.451   5.749 -0.2333 -0.0939  0.0980
19868TIP3    H181095   2.214   3.400   5.745  0.2157 -0.9057  1.1311
19868TIP3    H281096   2.340   3.431   5.668 -1.3110  0.7965 -0.7446
19869TIP3   OH281097   4.489   4.604  14.863 -0.5470  0.0676  0.0450
19869TIP3    H181098   4.490   4.699  14.860 -0.5742  0.0899  0.6680
19869TIP3    H281099   4.551   4.577  14.795  1.0029  0.5637  1.2365
19870TIP3   OH281100   2.100   1.748  12.324 -0.0920  0.4146  0.4118
19870TIP3    H181101   2.130   1.763  12.414 -1.7909  0.4319  0.9778
19870TIP3    H281102   2.005   1.758  12.328 -0.2828 -0.6134 -1.1834
19871TIP3   OH281103   4.589   1.641   6.570 -0.1759 -0.0038  0.2653
19871TIP3    H181104   4.668   1.595   6.542  0.2193  1.1306 -0.4895
19871TIP3    H281105   4.546   1.580   6.631 -0.5456 -2.1189 -2.0394
19872TIP3   OH281106   3.152   0.706  15.310  0.0061 -0.5488 -0.4447
19872TIP3    H181107   3.210   0.672  15.378  0.9230  2.7870  0.5544
19872TIP3    H281108   3.210   0.732  15.239 -0.7140 -1.5018 -1.4001
19873TIP3   OH281109   5.306   0.713  13.271 -0.3188 -0.3775 -0.1288
19873TIP3    H181110   5.279   0.688  13.183 -0.1073 -2.3529  0.3386
19873TIP3    H281111   5.260   0.795  13.288 -2.6662 -1.4820 -0.9761
19874TIP3   OH281112   1.611   0.985  16.138 -0.6789 -0.0731  0.4267
19874TIP3    H181113   1.610   0.917  16.071  1.3530 -0.1220  0.3905
19874TIP3    H281114   1.608   0.937  16.221  1.8170 -0.3348  0.4246
19875TIP3   OH281115   3.384   1.616   1.260  0.0885 -0.0249 -0.5290
19875TIP3    H181116   3.333   1.639   1.337 -0.5958  0.5538 -1.1436
19875TIP3    H281117   3.422   1.698   1.231 -0.7295 -0.0051 -1.5701
19876TIP3   OH281118   2.605   0.978   2.360  0.3650 -0.2785 -0.2562
19876TIP3    H181119   2.530   0.992   2.419  0.0516  0.3580 -0.8006
19876TIP3    H281120   2.567   0.935   2.284  0.5190  0.2893 -0.6480
19877TIP3   OH281121   0.849   0.736  15.902  0.7527 -0.5552  0.6585
19877TIP3    H181122   0.801   0.659  15.933 -2.6477  0.6781 -1.3266
19877TIP3    H281123   0.893   0.706  15.822  1.3573 -1.0476  1.1674
19878TIP3   OH281124   2.541   3.011  14.441  0.2648 -0.6755 -0.3646
19878TIP3    H181125   2.501   2.975  14.361 -2.4827  1.3161  0.0293
19878TIP3    H281126   2.527   2.944  14.507 -1.8821 -0.3371 -0.4236
19879TIP3   OH281127   1.306   0.069   3.217 -0.2327  0.5401 -0.3427
19879TIP3    H181128   1.351   0.097   3.138  2.2229  0.8228  1.1223
19879TIP3    H281129   1.218   0.107   3.210 -0.1345  0.3427 -3.0245
19880TIP3   OH281130   6.046   2.746  12.614  0.4660  0.2121  0.1157
19880TIP3    H181131   6.099   2.685  12.665  1.3507  0.2036 -0.7929
19880TIP3    H281132   5.970   2.694  12.587  0.1843  0.1094  1.0916
19881TIP3   OH281133   3.036   0.661  16.922 -0.4088 -0.0659  0.0747
19881TIP3    H181134   3.106   0.634  16.981 -1.7648 -1.4981  1.0587
19881TIP3    H281135   3.077   0.726  16.864  1.1126  0.8869  2.1494
19882TIP3   OH281136   0.849   1.063   6.126  0.4618 -0.1018 -0.4366
19882TIP3    H181137   0.759   1.088   6.104  0.2549  0.3574  0.9252
19882TIP3    H281138   0.887   1.141   6.166  1.0327 -0.7280  0.2597
19883TIP3   OH281139   4.605   3.739  11.222 -0.3371 -0.7218  0.3292
19883TIP3    H181140   4.597   3.791  11.142 -0.2854 -1.0155  0.1307
19883TIP3    H281141   4.514   3.727  11.251 -0.5698 -2.6659 -1.0236
19884TIP3   OH281142   2.807   2.268  13.538 -0.4718  0.4649 -0.4209
19884TIP3    H181143   2.808   2.233  13.627  1.2470 -0.6687 -0.8598
19884TIP3    H281144   2.892   2.312  13.529 -0.6185  0.5201 -1.5264
19885TIP3   OH281145   4.863   2.860  12.493  0.2624 -0.4201  0.2192
19885TIP3    H181146   4.929   2.929  12.496 -1.2488  1.1345 -1.4914
19885TIP3    H281147   4.891   2.798  12.561  1.5332  1.9327  1.9184
19886TIP3   OH281148   0.780   3.256  11.981  0.0596 -0.7413  0.2067
19886TIP3    H181149   0.759   3.219  11.895  0.2968 -1.7051  0.5514
19886TIP3    H281150   0.872   3.233  11.995  0.7753  1.6877 -0.4081
19887TIP3   OH281151   5.591   0.328   0.725  0.0439 -0.4486  0.5072
19887TIP3    H181152   5.535   0.345   0.801  1.6955  2.2156  1.1991
19887TIP3    H281153   5.666   0.279   0.761  0.4669  0.1732  0.4908
19888TIP3   OH281154   2.918   3.802   0.859 -0.5918  0.0244 -0.0319
19888TIP3    H181155   2.943   3.883   0.814 -1.2518  0.9603  1.2392
19888TIP3    H281156   2.843   3.827   0.913 -1.0629 -1.5402  0.0639
19889TIP3   OH281157   0.229   6.692  15.372  0.2564 -0.3033  0.2529
19889TIP3    H181158   0.145   6.651  15.395  0.3502 -0.3969  0.4270
19889TIP3    H281159   0.242   6.669  15.280 -0.2499  0.3040  0.0306
19890TIP3   OH281160   2.424   6.169  12.161  0.0994 -0.2412  0.2613
19890TIP3    H181161   2.336   6.177  12.199 -0.0332  0.4201 -0.1660
19890TIP3    H281162   2.475   6.123  12.227 -0.1253  0.9120  1.2651
19891TIP3   OH281163   2.258   5.739   3.128  0.1292  0.0705  0.5048
19891TIP3    H181164   2.172   5.751   3.089  0.5050  0.8293 -0.1162
19891TIP3    H281165   2.270   5.644   3.133 -0.7819 -0.0311  0.6937
19892TIP3   OH281166   3.615   5.106  14.851  0.3020 -0.5526 -0.5063
19892TIP3    H181167   3.669   5.184  14.863  0.1730 -0.5709  0.2458
19892TIP3    H281168   3.608   5.095  14.757 -0.7410  1.0801 -0.6214
19893TIP3   OH281169   4.860   0.845  11.599 -0.1225  0.3841 -0.6089
19893TIP3    H181170   4.774   0.821  11.565  0.4412 -3.5071  0.4258
19893TIP3    H281171   4.842   0.892  11.680 -1.2873 -1.2607  0.1043
19894TIP3   OH281172   2.314   5.336  14.864 -0.1377  0.7968 -0.1345
19894TIP3    H181173   2.283   5.421  14.832  0.1770  1.1978  0.6178
19894TIP3    H281174   2.247   5.274  14.836  0.4600  1.0216 -2.1943
19895TIP3   OH281175   3.433   3.808   1.556 -0.4379 -0.1516 -0.0592
19895TIP3    H181176   3.368   3.878   1.549 -2.3456 -1.7271  1.2844
19895TIP3    H281177   3.384   3.728   1.537  1.2393 -1.3364  0.4778
19896TIP3   OH281178   4.172   4.291   4.362 -0.8728 -0.1742 -0.6212
19896TIP3    H181179   4.097   4.338   4.325 -0.7944  0.6695  0.2415
19896TIP3    H281180   4.134   4.240   4.434 -0.5382  0.7223  0.2005
19897TIP3   OH281181   0.051   3.063  10.510  0.3030 -0.4555  0.2816
19897TIP3    H181182  -0.000   3.131  10.467  0.9363  0.0489  0.3113
19897TIP3    H281183  -0.003   2.985  10.506 -0.4005  0.0376  0.1805
19898TIP3   OH281184   3.322   3.189  11.582 -0.1512 -0.2738 -0.4048
19898TIP3    H181185   3.255   3.252  11.557 -1.9217 -0.3456  3.7867
19898TIP3    H281186   3.403   3.239  11.583 -1.0729  1.2274  0.1128
19899TIP3   OH281187   0.312   6.183  13.184 -0.0011  0.1625 -0.9394
19899TIP3    H181188   0.357   6.103  13.210 -1.3390  0.5160  2.6127
19899TIP3    H281189   0.242   6.154  13.125  0.4445 -1.0884 -0.8551
19900TIP3   OH281190   2.184   3.817  12.240  0.1312  0.4847 -0.1022
19900TIP3    H181191   2.172   3.756  12.167 -0.0207 -1.3461  1.4141
19900TIP3    H281192   2.255   3.780  12.291 -0.7010  0.9947  1.4542
19901TIP3   OH281193   4.372   2.334   2.499 -0.3864 -0.2219 -0.3911
19901TIP3    H181194   4.279   2.324   2.478 -0.7179  1.5310  0.1756
19901TIP3    H281195   4.415   2.266   2.448 -1.9871 -1.1140 -0.5997
19902TIP3   OH281196   6.169   6.652  13.625  0.3898 -0.0503 -0.0408
19902TIP3    H181197   6.132   6.564  13.628 -0.6987  0.4143  0.5580
19902TIP3    H281198   6.261   6.640  13.645 -0.0192 -0.9241  1.4539
19903TIP3   OH281199   3.781   0.646   0.058  0.5408  0.7823  0.3652
19903TIP3    H181200   3.717   0.690   0.114 -0.3657  0.7231 -0.6005
19903TIP3    H281201   3.760   0.553   0.065  1.5866  0.6069  1.3352
19904TIP3   OH281202   5.179   6.022   2.328 -0.1406  0.1995 -0.1681
19904TIP3    H181203   5.200   5.933   2.299  1.0634  0.9071 -1.5316
19904TIP3    H281204   5.221   6.031   2.413 -1.0895 -0.8598  0.4212
19905TIP3   OH281205   4.293   2.993   0.750  0.3380  0.3713  0.3505
19905TIP3    H181206   4.342   2.964   0.673  0.7367  1.5309  0.1620
19905TIP3    H281207   4.253   3.076   0.725 -2.7698 -1.1247  0.1060
19906TIP3   OH281208   3.318   0.286   0.743  0.5218 -0.1319  0.1265
19906TIP3    H181209   3.292   0.366   0.697 -0.7099 -0.0363  0.9717
19906TIP3    H281210   3.379   0.316   0.811 -0.5204  0.1896  0.9257
19907TIP3   OH281211   5.604   2.141   2.644  0.5263 -0.1456  0.0854
19907TIP3    H181212   5.632   2.124   2.734  1.4498 -0.3750 -0.2402
19907TIP3    H281213   5.603   2.236   2.637 -2.0150 -0.0791  1.0970
19908TIP3   OH281214   0.906   1.162  13.487  0.2394  0.0638 -0.0845
19908TIP3    H181215   0.993   1.139  13.519  0.8301  2.1779 -0.0925
19908TIP3    H281216   0.915   1.163  13.392 -0.4103 -2.0102 -0.1776
19909TIP3   OH281217   2.577   4.787  14.975 -0.3362  0.3867  0.2023
19909TIP3    H181218   2.639   4.812  15.043 -2.6510 -0.0308  2.5432
19909TIP3    H281219   2.527   4.866  14.956  0.6457  0.6419 -1.4483
19910TIP3   OH281220   4.704   1.276   1.200  0.4639 -0.7685 -0.0230
19910TIP3    H181221   4.748   1.345   1.150 -0.8588 -0.3625 -0.6509
19910TIP3    H281222   4.719   1.196   1.149 -1.0000 -0.3320 -1.1927
19911TIP3   OH281223   6.541   3.556   0.619 -0.5267 -0.4274  0.1043
19911TIP3    H181224   6.502   3.588   0.700  0.6477 -0.6485  0.7766
19911TIP3    H281225   6.574   3.469   0.642 -2.0388 -1.3550 -1.1878
19912TIP3   OH281226   0.150   1.391  17.240  0.9131  0.0782  0.3813
19912TIP3    H181227   0.151   1.319  17.303 -0.7463 -0.1013  0.2244
19912TIP3    H281228   0.077   1.446  17.267 -0.7843 -0.7943 -2.2166
19913TIP3   OH281229   1.163   3.602  14.973  0.6592 -0.3061  0.0274
19913TIP3    H181230   1.249   3.577  15.007  0.0724 -0.8477  1.1676
19913TIP3    H281231   1.103   3.540  15.014 -0.5037  1.3076  0.7994
19914TIP3   OH281232   3.158   5.600  14.684  0.1662  0.2992  0.2373
19914TIP3    H181233   3.169   5.505  14.692  5.1002  0.7734  0.3769
19914TIP3    H281234   3.160   5.632  14.774  0.6038  0.7264  0.0769
19915TIP3   OH281235   2.738   1.825  17.231 -0.5710 -0.0796  0.0023
19915TIP3    H181236   2.721   1.882  17.307  1.7318  1.2980 -0.4501
19915TIP3    H281237   2.710   1.877  17.156  1.5227  0.4819 -0.4133
19916TIP3   OH281238   0.696   1.741   2.480  0.5916  0.5184  0.4833
19916TIP3    H181239   0.783   1.747   2.519  0.8024  0.6586 -0.0098
19916TIP3    H281240   0.636   1.742   2.555  0.9279  2.1185  0.7570
19917TIP3   OH281241   4.924   5.840   1.879 -0.1630  0.7211 -0.2977
19917TIP3    H181242   4.923   5.930   1.912 -0.3804  0.5573  0.1413
19917TIP3    H281243   4.831   5.816   1.875 -0.0530  0.1335  0.6240
19918TIP3   OH281244   0.194   6.362   6.611 -0.4613 -0.3197 -0.1471
19918TIP3    H181245   0.160   6.352   6.699 -0.0150 -0.7955 -0.0236
19918TIP3    H281246   0.230   6.450   6.608  0.1463 -0.5423  0.3682
19919TIP3   OH281247   6.109   0.932  12.148 -0.1258  0.1703 -0.1073
19919TIP3    H181248   6.051   0.945  12.072  0.3309  0.5088 -0.3952
19919TIP3    H281249   6.163   0.856  12.124  0.7827  0.9604 -0.5870
19920TIP3   OH281250   1.220   4.045  11.822 -0.0549 -0.2108  0.5227
19920TIP3    H181251   1.225   4.077  11.912  2.2222 -1.5238  0.8850
19920TIP3    H281252   1.155   4.103  11.780  0.6503  1.9646  2.3411
19921TIP3   OH281253   5.948   6.348   4.810  0.1681 -0.3117 -0.0931
19921TIP3    H181254   5.961   6.428   4.759  1.2123 -1.0408 -0.9956
19921TIP3    H281255   6.000   6.361   4.889 -0.1610  0.1532  0.0516
19922TIP3   OH281256   0.101   4.381   5.645  0.2160  0.0357  0.2726
19922TIP3    H181257   0.046   4.458   5.644 -1.3200 -1.0535 -1.0867
19922TIP3    H281258   0.088   4.343   5.732 -0.6257  0.1845  0.2127
19923TIP3   OH281259   5.403   4.936   0.406 -0.3340  0.4288 -0.4768
19923TIP3    H181260   5.440   4.896   0.484  1.0980  2.1716 -0.2300
19923TIP3    H281261   5.367   4.863   0.356  0.3333 -0.8977  0.9485
19924TIP3   OH281262   5.500   2.155   1.065 -0.0785  0.5319 -0.5697
19924TIP3    H181263   5.514   2.241   1.105  3.9520  0.0837 -0.8679
19924TIP3    H281264   5.470   2.099   1.136 -0.5201  1.6153  0.1088
19925TIP3   OH281265   3.649   3.951  14.919  0.6192 -0.3205 -0.0027
19925TIP3    H181266   3.617   3.905  14.997  0.6510 -0.5933 -0.1500
19925TIP3    H281267   3.605   3.907  14.846 -2.0569  2.1129  0.0506
19926TIP3   OH281268   1.575   3.871   5.966 -0.1845  0.2739  0.3644
19926TIP3    H181269   1.653   3.836   6.009 -0.4553 -0.3183  0.3697
19926TIP3    H281270   1.577   3.965   5.986  0.3853  0.2186  0.5797
19927TIP3   OH281271   3.792   5.699   1.776  0.0194 -0.5145  0.1020
19927TIP3    H181272   3.804   5.771   1.838 -0.5183  1.6975 -2.2724
19927TIP3    H281273   3.878   5.686   1.737  0.3267 -1.8121  1.1907
19928TIP3   OH281274   4.439   6.146  14.711 -0.3400 -0.2373  0.3096
19928TIP3    H181275   4.499   6.160  14.784  0.4669 -0.4620 -0.3096
19928TIP3    H281276   4.352   6.164  14.748  0.1891  1.1191  0.9331
19929TIP3   OH281277   6.793   2.271   4.126  0.2799 -0.2534  0.0392
19929TIP3    H181278   6.769   2.349   4.176  2.1892  1.5058 -1.7413
19929TIP3    H281279   6.709   2.229   4.107 -0.9048  2.2195 -0.3562
19930TIP3   OH281280   0.831   0.625  13.988 -0.2192 -0.3036  1.0659
19930TIP3    H181281   0.809   0.626  13.895  1.5119 -0.5579  0.6373
19930TIP3    H281282   0.888   0.548  13.999  0.6041  0.4240  2.0768
19931TIP3   OH281283   6.106   6.513  12.578  0.1341  0.0020 -0.0197
19931TIP3    H181284   6.015   6.536  12.562  0.4292  0.6682 -0.7599
19931TIP3    H281285   6.118   6.525  12.672 -0.3152  0.7122 -0.0495
19932TIP3   OH281286   6.534   5.359  15.541  0.4402 -0.2112 -0.4493
19932TIP3    H181287   6.605   5.368  15.477  1.0714 -0.0598  0.2648
19932TIP3    H281288   6.563   5.290  15.600 -1.7449 -2.9190 -2.4040
19933TIP3   OH281289   2.559   1.347  15.541  0.1229  0.0395 -0.0980
19933TIP3    H181290   2.637   1.337  15.597  0.2672  0.4639 -0.2169
19933TIP3    H281291   2.594   1.351  15.452  0.0129  0.7933 -0.1105
19934TIP3   OH281292   3.912   1.646   4.472 -0.4002 -0.1074  0.0162
19934TIP3    H181293   3.864   1.609   4.546  0.3359 -2.1953 -0.5160
19934TIP3    H281294   3.994   1.596   4.470  0.4942  1.3773 -0.9138
19935TIP3   OH281295   2.901   0.132   3.645  0.0390 -0.1787  0.3732
19935TIP3    H181296   2.970   0.076   3.680  0.3641 -0.9654 -1.4448
19935TIP3    H281297   2.916   0.217   3.685  0.1641 -1.1069  2.3815
19936TIP3   OH281298   1.738   5.170  12.252 -0.1059  0.1975  0.4634
19936TIP3    H181299   1.725   5.080  12.280 -2.8533 -0.2906 -2.1004
19936TIP3    H281300   1.833   5.180  12.249  0.2742 -1.1175  5.1367
19937TIP3   OH281301   2.882   1.452   4.996  0.4933 -0.7283  0.0466
19937TIP3    H181302   2.867   1.456   4.902 -1.8216 -1.1551  0.3809
19937TIP3    H281303   2.911   1.362   5.012  0.4818 -0.7733 -0.1898
19938TIP3   OH281304   5.433   4.101  15.282  0.3916 -0.3477  0.3171
19938TIP3    H181305   5.455   4.015  15.247  0.7245  0.4276 -1.4193
19938TIP3    H281306   5.488   4.110  15.360  0.9703 -1.3608  0.0301
19939TIP3   OH281307   5.381   5.524  12.830 -0.5626 -0.1144  0.4747
19939TIP3    H181308   5.384   5.532  12.925  0.2837  2.2422  0.2705
19939TIP3    H281309   5.455   5.469  12.808  0.1867  0.6361  1.0697
19940TIP3   OH281310   3.860   4.313   5.073  0.1732  0.0982  0.4519
19940TIP3    H181311   3.781   4.260   5.077  0.5615 -0.4746  0.6412
19940TIP3    H281312   3.882   4.331   5.164  0.6932 -0.4037  0.4322
19941TIP3   OH281313   0.746   6.018   0.255 -0.2372  0.2207 -0.0641
19941TIP3    H181314   0.735   6.006   0.161  0.8272 -1.8923  0.0606
19941TIP3    H281315   0.821   6.077   0.263 -0.6161  0.7714 -0.5342
19942TIP3   OH281316   4.618   1.420  13.695  0.0255 -0.5907  0.3404
19942TIP3    H181317   4.702   1.417  13.740  0.5222 -1.0731 -0.5883
19942TIP3    H281318   4.601   1.513  13.679  1.4579 -0.5921 -1.4004
19943TIP3   OH281319   3.546   0.322   2.186 -0.4894  0.0878  0.8825
19943TIP3    H181320   3.626   0.322   2.238 -0.9485 -2.6107  1.6598
19943TIP3    H281321   3.565   0.379   2.112  2.2229 -0.7280  0.9084
19944TIP3   OH281322   5.447   1.683   1.205  0.3643  0.7569  0.0448
19944TIP3    H181323   5.365   1.732   1.201 -0.2712 -0.1785  1.2402
19944TIP3    H281324   5.480   1.699   1.293  0.7994  0.0656  0.0132
19945TIP3   OH281325   6.771   0.641  12.422  0.8569  0.3873 -0.3157
19945TIP3    H181326   6.741   0.565  12.472  1.2801  0.2322 -0.2987
19945TIP3    H281327   6.865   0.644  12.437  0.4818  2.4690  1.8175
19946TIP3   OH281328   1.920   1.016  13.457  0.0129 -0.0835  0.7251
19946TIP3    H181329   1.942   0.926  13.480 -2.5970 -0.2666  2.7071
19946TIP3    H281330   1.826   1.015  13.441  0.5203  1.5553 -3.0699
19947TIP3   OH281331   0.416   4.874   3.000  0.0425  0.3276  0.0222
19947TIP3    H181332   0.461   4.791   3.016 -1.6594 -0.3735  1.3410
19947TIP3    H281333   0.475   4.940   3.037  0.8733 -0.3953  0.0062
19948TIP3   OH281334   2.469   3.405   3.544 -0.4785  0.4343 -0.1209
19948TIP3    H181335   2.415   3.353   3.603  0.2860 -0.4282 -0.1765
19948TIP3    H281336   2.422   3.488   3.535 -1.5523 -0.1380  0.1967
19949TIP3   OH281337   0.629   6.681  15.430 -0.2299 -0.2304 -0.1551
19949TIP3    H181338   0.569   6.739  15.478 -0.6442 -0.4333 -0.4198
19949TIP3    H281339   0.572   6.611  15.397  0.3566 -1.0915  0.6387
19950TIP3   OH281340   1.960   6.637  11.336  0.7309  0.2730 -0.3405
19950TIP3    H181341   2.005   6.720  11.353  0.9454  0.1173 -0.1468
19950TIP3    H281342   1.916   6.650  11.252 -1.7281  1.6499  1.0859
19951TIP3   OH281343   4.274   4.985   5.252 -0.9599  0.8367  0.3025
19951TIP3    H181344   4.363   5.019   5.252 -0.7192  0.2143  0.4207
19951TIP3    H281345   4.261   4.950   5.340 -0.7292 -0.5831 -0.2106
19952TIP3   OH281346   1.333   0.110  11.215  0.0110 -0.5148 -0.3993
19952TIP3    H181347   1.424   0.093  11.192  0.2667 -0.3584  0.4534
19952TIP3    H281348   1.284   0.037  11.177  0.6205 -1.1285 -0.0203
19953TIP3   OH281349   0.671   0.419  13.462  0.3050  0.2366  0.1826
19953TIP3    H181350   0.686   0.449  13.372  0.0785  0.8768  0.3560
19953TIP3    H281351   0.626   0.335  13.452  1.8333 -0.5483 -0.3137
19954TIP3   OH281352   3.631   4.253  13.957  0.0199 -0.5175 -0.1772
19954TIP3    H181353   3.594   4.280  13.874 -0.1567  0.7451  0.2902
19954TIP3    H281354   3.715   4.299  13.961  1.8693 -3.6300 -1.4002
19955TIP3   OH281355   1.195   0.347  11.453  0.1073 -0.1816 -0.0243
19955TIP3    H181356   1.145   0.266  11.440  0.1769  0.1329 -2.3555
19955TIP3    H281357   1.284   0.325  11.427  0.6512  0.0091  1.6024
19956TIP3   OH281358   1.073   4.918  12.953  0.3290 -0.6855  0.0553
19956TIP3    H181359   1.097   4.860  12.881 -1.2208 -0.7123 -0.4580
19956TIP3    H281360   0.977   4.916  12.955  0.2447  1.6863  0.1588
19957TIP3   OH281361   0.467   0.293   2.104  0.4298  0.4111  0.5933
19957TIP3    H181362   0.389   0.340   2.075  0.0694  0.4022  1.5122
19957TIP3    H281363   0.539   0.333   2.057 -0.1231  0.4586 -0.2256
19958TIP3   OH281364   5.987   0.631  12.585 -0.3382  0.3825 -0.1058
19958TIP3    H181365   5.899   0.661  12.563 -0.6792 -0.7492 -0.3332
19958TIP3    H281366   6.017   0.692  12.652 -0.7475  1.6210 -1.0429
19959TIP3   OH281367   5.065   6.194  11.478 -0.4395  0.5603 -0.3308
19959TIP3    H181368   5.143   6.232  11.517 -0.3358 -0.7068  0.7114
19959TIP3    H281369   5.095   6.161  11.393  0.5080 -1.2557  0.6915
19960TIP3   OH281370   0.812   2.004   2.077  0.1804  0.0185 -0.5953
19960TIP3    H181371   0.717   1.993   2.067  0.4558 -2.9096 -0.2660
19960TIP3    H281372   0.846   1.999   1.988  0.1748 -0.4490 -0.5712
19961TIP3   OH281373   3.403   6.034  11.915 -0.4477 -0.5824 -0.1674
19961TIP3    H181374   3.498   6.023  11.916 -0.2236  1.1179 -1.1335
19961TIP3    H281375   3.384   6.074  11.830 -1.8140  0.7497  0.7346
19962TIP3   OH281376   6.316   4.371  15.027 -0.3315 -0.3548 -0.0904
19962TIP3    H181377   6.315   4.375  15.122  0.3248 -2.9946  0.0734
19962TIP3    H281378   6.224   4.378  15.001 -0.6558 -1.1244  0.8407
19963TIP3   OH281379   1.495   5.705   2.988 -0.6204  0.2449  0.2017
19963TIP3    H181380   1.461   5.697   3.077 -0.2503  2.6402  0.5875
19963TIP3    H281381   1.589   5.715   2.999 -0.4605 -0.3691 -0.5334
19964TIP3   OH281382   4.697   2.242   5.490 -0.3024 -0.1326 -0.1279
19964TIP3    H181383   4.685   2.161   5.540  0.3637 -0.7551 -0.9635
19964TIP3    H281384   4.672   2.311   5.551 -0.3035 -0.9304  0.7920
19965TIP3   OH281385   1.269   4.949  10.697 -0.3012  0.2441 -0.0996
19965TIP3    H181386   1.309   5.021  10.649 -0.8809 -0.8382 -2.2721
19965TIP3    H281387   1.229   4.894  10.630 -3.4398  0.0466  1.8150
19966TIP3   OH281388   2.881   3.438   5.035 -0.2123  0.2590 -0.3077
19966TIP3    H181389   2.967   3.405   5.062 -0.0116  1.7008  0.8930
19966TIP3    H281390   2.895   3.532   5.021 -1.1094  0.1381 -2.2028
19967TIP3   OH281391   5.571   3.095  11.330  0.0849 -0.0598 -0.1368
19967TIP3    H181392   5.539   3.013  11.292  0.4389  0.4958 -1.6744
19967TIP3    H281393   5.492   3.141  11.359 -0.3170  0.0855 -1.4232
19968TIP3   OH281394   4.734   4.412  12.297 -0.0193  0.4650  0.3570
19968TIP3    H181395   4.648   4.447  12.273  0.2004  0.3093 -0.6797
19968TIP3    H281396   4.742   4.432  12.390 -0.3419  2.2666  0.0205
19969TIP3   OH281397   1.210   2.322  17.060  0.3614  0.3130 -0.4133
19969TIP3    H181398   1.240   2.349  17.147  0.5488  2.8226 -1.2271
19969TIP3    H281399   1.263   2.245  17.040  1.8428  0.9799  0.8015
19970TIP3   OH281400   3.880   5.779  11.312  0.1768  0.1705 -0.4777
19970TIP3    H181401   3.785   5.774  11.323  0.1714 -0.2694 -0.7360
19970TIP3    H281402   3.910   5.823  11.392 -0.0106 -1.7506  0.6898
19971TIP3   OH281403   0.500   1.738  14.066 -0.0644  0.1293  0.3078
19971TIP3    H181404   0.455   1.822  14.061 -0.6185 -0.1894 -0.1917
19971TIP3    H281405   0.561   1.747  14.139 -0.8161  0.6320  0.8800
19972TIP3   OH281406   2.715   3.834   4.422  0.1401  0.5035 -0.2604
19972TIP3    H181407   2.687   3.917   4.461  2.8236  1.2757  0.1400
19972TIP3    H281408   2.726   3.775   4.496  0.7583  0.5979 -0.2692
19973TIP3   OH281409   6.613   6.370   6.171 -0.8602 -0.3928 -0.6141
19973TIP3    H181410   6.658   6.352   6.089  0.3588  1.1242 -0.3063
19973TIP3    H281411   6.541   6.428   6.146 -0.1764  0.4928 -0.5531
19974TIP3   OH281412   2.414   0.226  15.172 -0.2238 -0.0731  0.5608
19974TIP3    H181413   2.459   0.295  15.123 -1.2013  0.5715  0.5557
19974TIP3    H281414   2.408   0.260  15.261 -0.2279 -0.3881  0.6821
19975TIP3   OH281415   3.201   3.984   3.483  0.1987 -0.2408 -0.1453
19975TIP3    H181416   3.295   3.978   3.503  0.6499  0.3705 -2.0151
19975TIP3    H281417   3.179   3.898   3.447  0.2123 -0.1457 -0.3832
19976TIP3   OH281418   4.373   2.969  12.811 -0.2053  0.2907 -0.1834
19976TIP3    H181419   4.429   2.909  12.763  0.2240  1.1975 -0.8377
19976TIP3    H281420   4.416   2.978  12.897 -0.3984 -0.5125 -0.0064
19977TIP3   OH281421   5.236   3.248  15.231  0.0120  0.5674 -0.4672
19977TIP3    H181422   5.244   3.240  15.136  2.1718  0.9389 -0.3401
19977TIP3    H281423   5.278   3.331  15.252 -1.2118  0.8939  0.7303
19978TIP3   OH281424   2.253   4.846  16.416 -0.2743  0.4288  0.0152
19978TIP3    H181425   2.319   4.779  16.433 -0.8232  0.6285  3.0797
19978TIP3    H281426   2.182   4.799  16.371  0.2943 -0.5780  0.1681
19979TIP3   OH281427   1.295   0.986   4.148 -0.1617 -0.0736 -0.2176
19979TIP3    H181428   1.366   1.049   4.158 -0.5963  0.2637  0.8890
19979TIP3    H281429   1.217   1.040   4.132 -0.3814 -0.3680 -0.1530
19980TIP3   OH281430   3.542   3.761  14.726 -0.3993  0.2164  0.7135
19980TIP3    H181431   3.471   3.715  14.682  0.7695  1.0040 -2.0961
19980TIP3    H281432   3.616   3.700  14.723  0.1333  0.8816  0.1653
19981TIP3   OH281433   2.208   4.607  15.973  0.6580 -0.0054  0.0994
19981TIP3    H181434   2.216   4.619  15.879 -2.5493  1.2131 -0.0986
19981TIP3    H281435   2.200   4.696  16.008 -1.3616 -0.5390  1.1073
19982TIP3   OH281436   5.875   2.410  14.564 -0.0064 -0.4376 -0.3084
19982TIP3    H181437   5.868   2.495  14.521  2.2396  0.1490  0.4018
19982TIP3    H281438   5.877   2.347  14.493  0.1128  0.2626 -0.9343
19983TIP3   OH281439   2.758   3.838   4.122  0.4338  0.0557 -0.1512
19983TIP3    H181440   2.752   3.744   4.107 -0.7125 -0.0630  0.9291
19983TIP3    H281441   2.775   3.846   4.216  0.4030  0.9313 -0.2140
19984TIP3   OH281442   5.830   2.447   5.607 -0.5323 -0.0466 -0.7130
19984TIP3    H181443   5.772   2.375   5.583 -1.0377  0.3625 -0.7079
19984TIP3    H281444   5.860   2.483   5.523 -3.0383  1.9926 -0.7963
19985TIP3   OH281445   0.472   4.050   1.084 -0.1067 -0.0443 -0.1702
19985TIP3    H181446   0.388   4.013   1.059 -0.0560  0.5158 -1.1810
19985TIP3    H281447   0.454   4.143   1.097  0.3074  0.0391 -0.1767
19986TIP3   OH281448   4.648   3.130  16.639  0.1955  0.4925  0.7544
19986TIP3    H181449   4.571   3.109  16.586  1.6401  0.2634 -1.3092
19986TIP3    H281450   4.710   3.060  16.619  0.6620  0.2503  3.0001
19987TIP3   OH281451   2.722   4.143  13.460 -0.1275  0.2501  0.8029
19987TIP3    H181452   2.718   4.139  13.555  0.9543  1.5928  0.9234
19987TIP3    H281453   2.811   4.114  13.439 -0.1422  0.6068  0.2398
19988TIP3   OH281454   0.701   3.230   0.579  0.2234 -0.0207  0.9607
19988TIP3    H181455   0.691   3.285   0.501  2.4267 -0.4070  0.3531
19988TIP3    H281456   0.781   3.263   0.620  1.0654 -2.1664  1.0753
19989TIP3   OH281457   6.051   5.882  13.854 -0.1283 -0.7564 -0.2334
19989TIP3    H181458   6.070   5.797  13.894 -2.7200 -1.0634  0.4291
19989TIP3    H281459   6.060   5.867  13.760 -0.5960 -1.7625 -0.1209
19990TIP3   OH281460   2.063   5.286  13.790  0.2682 -0.2887  0.4867
19990TIP3    H181461   1.971   5.308  13.782 -0.0103 -1.4042  0.6396
19990TIP3    H281462   2.085   5.306  13.881  0.0619 -0.4901  0.5787
19991TIP3   OH281463   0.981   4.316  13.925  0.0785  0.0246  0.1538
19991TIP3    H181464   0.954   4.312  13.834  1.8691  0.3295 -0.4063
19991TIP3    H281465   1.009   4.406  13.938 -2.9673  0.8015  1.8542
19992TIP3   OH281466   2.246   1.478   4.565 -0.6646  0.0472 -0.0386
19992TIP3    H181467   2.211   1.526   4.641 -0.7122 -0.6270  0.3730
19992TIP3    H281468   2.308   1.539   4.525 -0.5011  0.3425  0.6536
19993TIP3   OH281469   4.289   6.659  14.330  0.4732 -0.7313 -0.0095
19993TIP3    H181470   4.237   6.723  14.379 -0.2839  0.6128 -2.4717
19993TIP3    H281471   4.289   6.581  14.385  1.1074  1.2207  2.9087
19994TIP3   OH281472   3.401   2.531  15.963 -0.5345  0.1268  0.1715
19994TIP3    H181473   3.447   2.592  15.905 -0.2520 -0.9779 -0.7697
19994TIP3    H281474   3.471   2.495  16.019 -0.3835 -0.8458 -0.6312
19995TIP3   OH281475   4.864   2.547   4.218  0.0358 -0.7062 -0.0009
19995TIP3    H181476   4.771   2.531   4.205 -0.2381 -1.2812  2.4665
19995TIP3    H281477   4.868   2.597   4.300  1.6915  2.0183 -1.6552
19996TIP3   OH281478   3.746   4.711  14.316  0.3621 -0.4482  0.3461
19996TIP3    H181479   3.670   4.673  14.361 -0.0128  1.2595  1.1870
19996TIP3    H281480   3.719   4.800  14.294  2.3524  0.4177  1.2576
19997TIP3   OH281481   4.126   2.433  14.426  0.2471  0.1094  0.0366
19997TIP3    H181482   4.213   2.431  14.386  1.1629 -0.9024  2.0322
19997TIP3    H281483   4.102   2.526  14.426  1.2220  0.3731 -0.7224
19998TIP3   OH281484   3.772   4.806  14.604  0.1194  0.7802 -0.6423
19998TIP3    H181485   3.824   4.843  14.675 -1.7795 -0.5797  1.4997
19998TIP3    H281486   3.707   4.874  14.584  0.2403  0.8974 -0.6418
19999TIP3   OH281487   0.922   0.764   0.558 -0.4686  0.0138 -0.4168
19999TIP3    H181488   0.885   0.775   0.471 -2.2033 -1.5254  0.0788
19999TIP3    H281489   0.853   0.795   0.618  0.5644  0.7324  0.4124
20000TIP3   OH281490   4.344   2.915   5.547 -0.2682 -0.3965 -0.7199
20000TIP3    H181491   4.426   2.868   5.530  0.3050  0.3980 -0.1754
20000TIP3    H281492   4.367   2.981   5.613 -1.9280 -1.8556  1.3664
20001TIP3   OH281493   2.964   1.271  15.517  0.2094 -0.5666  0.6757
20001TIP3    H181494   2.923   1.290  15.601  0.0828 -1.1563  0.7505
20001TIP3    H281495   2.961   1.354  15.469  0.4405 -0.1858  1.3164
20002TIP3   OH281496   1.402   6.393  12.552  0.2257 -0.2193 -0.3366
20002TIP3    H181497   1.351   6.458  12.599 -2.8888 -0.7846 -2.7361
20002TIP3    H281498   1.428   6.437  12.471  1.4427 -0.7451 -0.2414
20003TIP3   OH281499   6.496   6.448  14.684 -0.5307 -0.2013 -0.6192
20003TIP3    H181500   6.585   6.428  14.711 -0.4285  1.3802  0.2256
20003TIP3    H281501   6.457   6.494  14.759 -1.5930  0.4035 -1.5254
20004TIP3   OH281502   2.308   4.317   2.947  0.7269  0.1020  0.7524
20004TIP3    H181503   2.375   4.277   3.002  0.2829 -1.0187  0.4822
20004TIP3    H281504   2.278   4.393   2.998  1.5334  0.0748  1.2852
20005TIP3   OH281505   3.081   5.857   0.653 -0.0830 -0.1746  0.1385
20005TIP3    H181506   2.986   5.848   0.654 -0.1616  0.7362  1.1756
20005TIP3    H281507   3.104   5.863   0.560 -1.0823  0.2254 -0.0827
20006TIP3   OH281508   4.163   1.546   4.546 -0.7102  0.0739  0.1338
20006TIP3    H181509   4.154   1.453   4.566 -1.3110  0.0858 -0.0594
20006TIP3    H281510   4.245   1.553   4.498 -1.9068 -0.7414 -2.1150
20007TIP3   OH281511   0.854   6.422  12.675 -0.1694  0.1159 -0.2330
20007TIP3    H181512   0.849   6.341  12.727  0.7605  0.6556  0.7229
20007TIP3    H281513   0.936   6.414  12.627  1.0663  1.4683  1.5741
20008TIP3   OH281514   3.629   4.400  14.797 -0.2737  0.1411 -0.1261
20008TIP3    H181515   3.676   4.339  14.854 -1.4359 -0.3008  0.3632
20008TIP3    H281516   3.559   4.348  14.758 -0.7473  0.9484 -0.3612
20009TIP3   OH281517   1.456   0.252  11.414 -0.2555 -0.1982 -0.0036
20009TIP3    H181518   1.425   0.197  11.342 -1.3277  0.2963  0.0724
20009TIP3    H281519   1.539   0.288  11.382 -0.4403 -0.4357 -0.7610
20010TIP3   OH281520   4.050   6.393   5.157 -0.5661 -0.1047 -0.0204
20010TIP3    H181521   4.017   6.473   5.116 -1.4068 -0.9980 -1.0865
20010TIP3    H281522   4.010   6.322   5.109 -0.1311 -1.1919  1.1806
20011TIP3   OH281523   5.811   6.761  15.096 -0.5943 -0.0405  0.0940
20011TIP3    H181524   5.899   6.771  15.133 -0.3150 -1.6943 -0.0540
20011TIP3    H281525   5.819   6.795  15.007 -0.0474 -0.2963  0.0388
20012TIP3   OH281526   5.887   0.111  15.591  0.3115  0.0727 -0.6099
20012TIP3    H181527   5.914   0.202  15.608  0.2140  0.3040 -1.6898
20012TIP3    H281528   5.797   0.107  15.625  0.5245  0.2154 -0.0251
20013TIP3   OH281529   3.672   2.653   0.025 -0.2168 -0.0849  0.7740
20013TIP3    H181530   3.584   2.627  -0.003 -0.0540 -0.3477  0.5075
20013TIP3    H281531   3.659   2.687   0.114 -0.4434 -0.9921  1.0967
20014TIP3   OH281532   1.665   0.589  10.587 -0.0344 -0.4118 -0.8786
20014TIP3    H181533   1.737   0.642  10.553  0.3669 -0.2840  0.1607
20014TIP3    H281534   1.591   0.649  10.593  0.1297 -0.2278 -0.7058
20015TIP3   OH281535   3.666   1.949  13.938  0.0818  0.5912  0.7526
20015TIP3    H181536   3.745   1.927  13.987 -0.0082  0.7327  0.9593
20015TIP3    H281537   3.632   2.028  13.980  0.8209  1.5776 -0.4411
20016TIP3   OH281538   3.380   6.203  12.659  0.2591  0.0083 -0.6797
20016TIP3    H181539   3.460   6.207  12.711  1.1047 -1.4366 -1.8036
20016TIP3    H281540   3.406   6.236  12.573 -0.7698  1.0728 -0.5916
20017TIP3   OH281541   0.403   2.912   2.046  0.0096  0.0232  0.5918
20017TIP3    H181542   0.319   2.925   2.002  0.6589 -1.5998 -1.1995
20017TIP3    H281543   0.384   2.851   2.117 -0.7686  1.5103  1.6700
20018TIP3   OH281544   6.784   0.310  12.669 -0.2447  0.1455 -0.1756
20018TIP3    H181545   6.714   0.322  12.733 -0.2074  1.8031 -0.4257
20018TIP3    H281546   6.743   0.332  12.585 -0.0745 -1.2336 -0.6448
20019TIP3   OH281547   0.747   0.209  14.107  0.1118 -0.1649 -0.2190
20019TIP3    H181548   0.809   0.194  14.178 -0.0061 -1.7064 -0.4118
20019TIP3    H281549   0.678   0.263  14.145 -0.8085 -2.3830  1.3521
20020TIP3   OH281550   4.082   4.315  13.106 -0.1785 -0.6763 -0.4517
20020TIP3    H181551   4.019   4.304  13.177 -2.2103  3.4486 -1.4931
20020TIP3    H281552   4.126   4.398  13.126  2.1555 -1.5198 -1.8782
20021TIP3   OH281553   6.095   5.144   4.762 -0.1498  0.0577 -0.3392
20021TIP3    H181554   6.090   5.187   4.847  2.0786 -1.0210  0.3698
20021TIP3    H281555   6.138   5.061   4.779  1.9040  0.5640 -2.7662
20022TIP3   OH281556   4.985   5.717   1.409  0.3146  0.0295 -0.2632
20022TIP3    H181557   4.909   5.674   1.371  0.0488  1.2952 -1.1889
20022TIP3    H281558   4.955   5.805   1.431  0.8888 -0.1881  1.5083
20023TIP3   OH281559   1.769   1.836   6.061 -0.0314  0.6854  0.4962
20023TIP3    H181560   1.862   1.824   6.046  0.6532  3.0621  2.6104
20023TIP3    H281561   1.756   1.813   6.154 -2.1388 -2.6801 -0.5199
20024TIP3   OH281562   0.803   1.719  13.242  0.0722 -0.1447  0.0953
20024TIP3    H181563   0.747   1.732  13.318  0.6512 -1.9751  0.8647
20024TIP3    H281564   0.888   1.753  13.269  0.1865 -0.4669  0.1419
20025TIP3   OH281565   2.745   0.509  16.011  0.4930  0.1327  0.8038
20025TIP3    H181566   2.764   0.603  16.006  1.5277 -0.0282  1.4898
20025TIP3    H281567   2.821   0.467  15.972 -0.9810 -0.3684 -1.6273
20026TIP3   OH281568   4.593   3.042   6.707  0.1222 -0.2053  0.3845
20026TIP3    H181569   4.588   2.962   6.656  1.6146 -0.0489 -0.0275
20026TIP3    H281570   4.508   3.085   6.693  0.7448  0.1758 -2.5290
20027TIP3   OH281571   1.590   4.580  12.646  0.2728  0.8059 -0.1726
20027TIP3    H181572   1.661   4.566  12.708  0.3258  1.3523 -0.1016
20027TIP3    H281573   1.579   4.675  12.645 -1.2876  0.6399  0.7491
20028TIP3   OH281574   4.089   6.133  15.345  0.2284  0.3326 -0.3374
20028TIP3    H181575   4.042   6.056  15.314 -0.4487  0.5042  0.2506
20028TIP3    H281576   4.020   6.195  15.370  0.7643  1.3337 -1.3162
20029TIP3   OH281577   5.228   0.372   0.606  0.1622 -0.2365 -0.3465
20029TIP3    H181578   5.291   0.441   0.627  0.3136 -0.7021  0.7588
20029TIP3    H281579   5.143   0.415   0.615  0.2483 -0.2378  0.5261
20030TIP3   OH281580   3.520   2.356   2.905  0.0351 -0.5754 -0.0928
20030TIP3    H181581   3.499   2.310   2.824 -2.1673  0.9412 -0.4172
20030TIP3    H281582   3.470   2.311   2.973  0.2417 -0.5179  0.1011
20031TIP3   OH281583   6.768   1.086  16.079  0.0242  0.6374  0.3632
20031TIP3    H181584   6.676   1.091  16.107 -0.5065  1.5147 -1.4223
20031TIP3    H281585   6.782   1.167  16.028  0.8654 -0.9062 -1.9455
20032TIP3   OH281586   2.586   2.770   2.571  0.3429 -0.0569 -0.3801
20032TIP3    H181587   2.618   2.810   2.490  2.4708 -1.5423 -0.3270
20032TIP3    H281588   2.643   2.694   2.584 -2.4182 -2.0744  0.4574
20033TIP3   OH281589   2.672   5.054  14.658  0.1417 -0.1902 -0.1093
20033TIP3    H181590   2.718   5.129  14.697  0.3888  0.4717 -1.6075
20033TIP3    H281591   2.588   5.090  14.630 -1.8011 -1.6399  3.5671
20034TIP3   OH281592   1.785   0.686   2.141  0.5888  0.0022 -0.3263
20034TIP3    H181593   1.750   0.653   2.058  1.8382 -1.2969 -0.3470
20034TIP3    H281594   1.879   0.696   2.125  0.5008  1.8924  0.2413
20035TIP3   OH281595   6.648   0.950  12.633  0.3626 -0.3933 -0.2910
20035TIP3    H181596   6.619   1.009  12.563  0.3554  0.0381  0.0746
20035TIP3    H281597   6.689   1.007  12.698 -0.2979 -0.7065  0.4091
20036TIP3   OH281598   0.930   4.314  11.288 -0.1075  0.2839 -0.3538
20036TIP3    H181599   0.924   4.355  11.374 -1.7960  0.4144 -0.5143
20036TIP3    H281600   0.989   4.370  11.238 -0.2028  0.9615  0.2986
20037TIP3   OH281601   4.051   5.002   5.655 -0.2437 -0.9289 -0.2892
20037TIP3    H181602   4.043   4.925   5.712 -2.4146  1.9312  3.5930
20037TIP3    H281603   3.966   5.008   5.612 -0.5783 -0.0211  0.4639
20038TIP3   OH281604   1.086   5.673  15.804 -0.3794 -0.1887  0.2994
20038TIP3    H181605   1.166   5.709  15.842  0.3463 -1.5261  0.0645
20038TIP3    H281606   1.056   5.607  15.866 -0.9087 -0.2044  0.0377
20039TIP3   OH281607   0.032   5.705   6.537  0.3804  0.1836 -0.3625
20039TIP3    H181608   0.121   5.742   6.540  0.4611 -0.0631  0.6220
20039TIP3    H281609   0.025   5.667   6.450  1.1983  0.3415 -0.5069
20040TIP3   OH281610   0.931   3.493  16.509  0.4557 -0.6036 -0.2631
20040TIP3    H181611   0.962   3.580  16.537  2.5967 -1.4430  0.0620
20040TIP3    H281612   0.881   3.460  16.583  0.1335  0.0995 -0.1585
20041TIP3   OH281613   3.794   2.244  13.178  0.0731  0.7990  0.0489
20041TIP3    H181614   3.826   2.180  13.115  0.1105  2.4683 -1.6336
20041TIP3    H281615   3.742   2.192  13.240  1.6379 -1.1262 -0.2148
20042TIP3   OH281616   5.853   4.442  13.266 -0.0587 -0.1426 -0.5698
20042TIP3    H181617   5.945   4.442  13.240 -0.1754 -1.0200 -1.0012
20042TIP3    H281618   5.831   4.349  13.275 -0.1721  0.0990  2.1022
20043TIP3   OH281619   3.892   0.908  12.515 -0.7115 -0.0521 -0.1866
20043TIP3    H181620   3.948   0.935  12.588  0.8090  0.2843 -1.4677
20043TIP3    H281621   3.920   0.819  12.494 -1.5763 -0.3872  0.0245
20044TIP3   OH281622   0.056   2.319   2.236  0.0668 -0.0515  0.1329
20044TIP3    H181623   0.098   2.233   2.238  1.2338  0.4749 -0.8050
20044TIP3    H281624   0.083   2.356   2.152  1.2902  2.0806  1.4198
20045TIP3   OH281625   4.102   3.556  16.273 -0.8610  0.3468  0.0997
20045TIP3    H181626   4.193   3.527  16.278 -0.8909  0.0021 -1.0732
20045TIP3    H281627   4.060   3.519  16.350 -0.5463 -1.4724 -0.5926
20046TIP3   OH281628   3.179   2.327  12.888 -0.0647  0.5927 -0.2679
20046TIP3    H181629   3.186   2.400  12.950 -0.6761  0.4681 -0.0405
20046TIP3    H281630   3.095   2.286  12.910  0.9027 -1.0036  0.5108
20047TIP3   OH281631   3.197   4.891   1.061 -1.0040 -0.3662  0.0230
20047TIP3    H181632   3.119   4.838   1.046 -2.2884  1.4637  0.1517
20047TIP3    H281633   3.263   4.853   1.003 -1.8063 -2.2813  0.3323
20048TIP3   OH281634   5.534   0.661   5.849  0.0275 -0.1419 -0.1333
20048TIP3    H181635   5.572   0.697   5.928 -0.4279 -0.6640  0.3318
20048TIP3    H281636   5.440   0.677   5.857 -0.3417 -2.4605  0.6610
20049TIP3   OH281637   2.947   5.401  13.099 -0.0436 -0.1900  0.2056
20049TIP3    H181638   2.920   5.401  13.191 -0.0081  0.5500  0.2217
20049TIP3    H281639   2.870   5.372  13.051 -0.5519  0.9271  0.3355
20050TIP3   OH281640   4.996   6.521  17.096  0.0172 -0.2072  0.3635
20050TIP3    H181641   4.993   6.608  17.056 -0.7515 -0.2972  0.2146
20050TIP3    H281642   4.948   6.532  17.178 -1.6675 -0.9174 -0.5049
20051TIP3   OH281643   3.747   6.070   4.709  0.3319  0.4034  0.5938
20051TIP3    H181644   3.841   6.084   4.715  0.1861  1.3566  0.6749
20051TIP3    H281645   3.709   6.138   4.765 -0.4366  0.5369 -0.0846
20052TIP3   OH281646   4.354   3.303   3.037 -0.1525  0.2941  0.4840
20052TIP3    H181647   4.284   3.239   3.022  0.5110 -1.2425  3.5157
20052TIP3    H281648   4.426   3.274   2.981 -0.8461  0.0657 -0.2994
20053TIP3   OH281649   0.383   0.052   4.046  0.8189 -0.1006  0.3773
20053TIP3    H181650   0.365   0.027   4.137  0.5651  0.4109  0.4723
20053TIP3    H281651   0.338  -0.014   3.993  1.3311 -0.6536  0.6225
20054TIP3   OH281652   1.513   3.291  14.293  0.4407  0.1223 -0.2925
20054TIP3    H181653   1.502   3.336  14.376 -1.2978  1.6476 -1.3159
20054TIP3    H281654   1.565   3.352  14.239  1.1441 -0.6448 -0.4952
20055TIP3   OH281655   5.972   6.204  13.298 -0.4199 -0.2365 -0.0303
20055TIP3    H181656   5.941   6.118  13.328 -0.1669 -0.0218  0.8444
20055TIP3    H281657   6.067   6.197  13.298 -0.2409  1.2230  3.6434
20056TIP3   OH281658   5.552   1.319   0.863  0.2086 -0.6757 -0.3386
20056TIP3    H181659   5.562   1.345   0.954 -2.3126 -2.3785  0.4747
20056TIP3    H281660   5.509   1.395   0.822 -0.0637 -0.5119  0.2402
20057TIP3   OH281661   6.667   2.156   1.125 -0.2171  0.4683  0.2434
20057TIP3    H181662   6.583   2.153   1.170 -1.3620 -0.7708 -1.9231
20057TIP3    H281663   6.680   2.248   1.103 -1.0487  0.6421  0.4771
20058TIP3   OH281664   2.689   2.909   4.294 -0.1867  0.2944  0.8765
20058TIP3    H181665   2.651   2.915   4.382  0.1900 -2.5715  1.2722
20058TIP3    H281666   2.774   2.867   4.307  0.1386  0.3983 -0.7857
20059TIP3   OH281667   5.872   4.178   2.180  0.0694 -0.3365  0.4766
20059TIP3    H181668   5.822   4.221   2.110 -1.0715  2.0155  2.6675
20059TIP3    H281669   5.858   4.085   2.165 -0.3963  0.1194 -2.2570
20060TIP3   OH281670   1.266   4.720   5.589  0.5939 -0.1422 -0.4989
20060TIP3    H181671   1.345   4.764   5.619  1.7538 -1.0019 -2.1643
20060TIP3    H281672   1.222   4.691   5.668  1.7782  0.6552  0.4634
20061TIP3   OH281673   5.438   3.497   5.566 -0.3460 -0.0064  0.1290
20061TIP3    H181674   5.349   3.467   5.547 -1.0483  2.2754 -0.3954
20061TIP3    H281675   5.427   3.588   5.594  1.9035  0.6539 -0.9840
20062TIP3   OH281676   6.479   4.820  16.472  0.7076 -0.3269  0.3410
20062TIP3    H181677   6.501   4.908  16.502 -1.9088  0.5643 -0.2523
20062TIP3    H281678   6.451   4.831  16.381  2.0068 -2.0400 -0.3069
20063TIP3   OH281679   3.874   6.668  10.835 -0.2064 -0.0601 -0.0244
20063TIP3    H181680   3.877   6.639  10.925  1.4212  0.2618  0.0437
20063TIP3    H281681   3.951   6.628  10.794 -1.1191 -0.4907 -1.3607
20064TIP3   OH281682   0.493   2.414   6.746 -0.3238  0.1426 -0.4831
20064TIP3    H181683   0.459   2.336   6.790  0.6506 -0.0473 -0.0587
20064TIP3    H281684   0.534   2.465   6.816  2.0201 -0.5840 -1.2901
20065TIP3   OH281685   0.291   5.443   5.268  0.1769 -0.0254  0.1406
20065TIP3    H181686   0.288   5.537   5.254  0.8428 -0.1120 -0.6055
20065TIP3    H281687   0.200   5.415   5.267  0.0410  0.4524 -0.7353
20066TIP3   OH281688   3.443   4.443   0.597  0.0791  0.4279 -0.2549
20066TIP3    H181689   3.425   4.428   0.690 -1.3835 -0.1131 -0.6169
20066TIP3    H281690   3.373   4.397   0.551  1.9100 -1.0520 -1.6924
20067TIP3   OH281691   4.961   1.291   0.180 -0.4262 -0.0460  0.0139
20067TIP3    H181692   5.020   1.366   0.169 -0.0068 -0.2020  1.0869
20067TIP3    H281693   4.891   1.324   0.237 -0.5814 -0.2829 -0.0391
20068TIP3   OH281694   4.241   5.621   4.847 -0.0188 -0.1299 -0.6289
20068TIP3    H181695   4.250   5.571   4.928  1.0852  1.5729  0.3389
20068TIP3    H281696   4.154   5.599   4.814 -0.5301 -0.7469  1.1006
20069TIP3   OH281697   5.007   4.091  13.313  0.3138 -0.7573  0.1131
20069TIP3    H181698   4.919   4.112  13.343 -0.0082 -2.3785  0.3229
20069TIP3    H281699   5.027   4.007  13.353  2.1956 -0.1196  0.5478
20070TIP3   OH281700   4.607   2.862   5.479 -0.0398 -0.1287  0.0696
20070TIP3    H181701   4.584   2.774   5.452  1.1288 -1.0174  1.8930
20070TIP3    H281702   4.696   2.854   5.514  1.0811  2.2348 -2.0202
20071TIP3   OH281703   3.039   4.402  12.742 -0.2089  0.1656  0.5363
20071TIP3    H181704   3.025   4.311  12.717 -0.2750  0.6525 -1.2932
20071TIP3    H281705   2.953   4.443  12.735 -0.1450  0.4114  1.1740
20072TIP3   OH281706   5.907   0.728   5.509  0.4833  0.1825 -0.1956
20072TIP3    H181707   5.890   0.653   5.453  1.0669 -0.9786  1.1485
20072TIP3    H281708   5.822   0.770   5.521 -0.3607 -1.8872  1.3222
20073TIP3   OH281709   3.537   5.955  12.688 -0.3510 -0.0125 -0.2587
20073TIP3    H181710   3.546   5.892  12.617 -0.6347 -0.5816  0.2081
20073TIP3    H281711   3.491   6.030  12.649 -0.8932 -0.5031 -0.5697
20074TIP3   OH281712   6.579   1.783   5.729 -0.1237 -0.3416  0.7315
20074TIP3    H181713   6.501   1.804   5.678  1.2562 -0.3116 -1.3983
20074TIP3    H281714   6.574   1.688   5.741  1.2286 -0.8655 -2.3717
20075TIP3   OH281715   3.584   2.099   5.458 -0.3578 -0.2633 -0.1992
20075TIP3    H181716   3.513   2.115   5.520 -0.5973 -0.2179 -0.4869
20075TIP3    H281717   3.622   2.016   5.485 -0.2256 -0.0646  0.2338
20076TIP3   OH281718   4.017   5.065  15.066 -0.2308  0.0043 -0.0923
20076TIP3    H181719   4.015   4.971  15.084  1.9825 -0.0879 -0.1658
20076TIP3    H281720   3.942   5.101  15.114 -0.4854 -1.6541  0.7715
20077TIP3   OH281721   1.557   4.513  11.439  0.4218  0.8087  0.7766
20077TIP3    H181722   1.585   4.598  11.473 -0.8182  1.7990 -0.6320
20077TIP3    H281723   1.628   4.454  11.463  1.2596  2.2118  1.8656
20078TIP3   OH281724   0.913   1.368  15.761 -0.0067  0.3588 -0.4768
20078TIP3    H181725   0.897   1.299  15.826  0.2863 -1.7192 -2.5199
20078TIP3    H281726   1.007   1.382  15.764  0.2671 -1.0776 -1.7101
20079TIP3   OH281727   0.079   4.812   1.825 -0.5193  0.3466  0.0406
20079TIP3    H181728   0.039   4.742   1.774 -1.0469  0.5512  0.1778
20079TIP3    H281729   0.101   4.880   1.760 -2.7403  1.3449  0.2868
20080TIP3   OH281730   2.770   6.443  11.293  0.3720  0.1358  0.2146
20080TIP3    H181731   2.861   6.418  11.276  0.3787  1.4357 -1.9002
20080TIP3    H281732   2.729   6.440  11.206 -1.0895  1.5633  0.8484
20081TIP3   OH281733   0.144   1.139  11.588 -0.1694 -0.3617  0.3033
20081TIP3    H181734   0.228   1.131  11.634 -1.2686  1.5443  2.7897
20081TIP3    H281735   0.086   1.079  11.634 -1.0015  0.7589  0.7425
20082TIP3   OH281736   0.359   6.539   1.616 -0.1107 -0.1431  0.0022
20082TIP3    H181737   0.303   6.499   1.683 -1.5512 -0.9595 -1.6575
20082TIP3    H281738   0.371   6.629   1.647 -1.1949 -0.3457  1.0916
20083TIP3   OH281739   6.480   4.581  17.200  0.1609  0.0005  0.2872
20083TIP3    H181740   6.551   4.643  17.183 -0.7168  0.9850  0.1034
20083TIP3    H281741   6.462   4.590  17.293 -0.3189  0.4192  0.1595
20084TIP3   OH281742   2.126   0.966   2.382  0.0088 -0.1423 -0.9443
20084TIP3    H181743   2.131   0.877   2.416  0.3045  0.1263 -0.2759
20084TIP3    H281744   2.207   1.008   2.410  0.0570  0.2204 -1.6019
20085TIP3   OH281745   2.593   4.517  13.427  0.7156  0.3054 -0.0625
20085TIP3    H181746   2.530   4.450  13.454 -0.5213  1.2354 -0.5502
20085TIP3    H281747   2.631   4.549  13.508  0.6847 -0.4030  0.2302
20086TIP3   OH281748   0.577   5.897  16.914 -0.5913  0.0223 -0.4290
20086TIP3    H181749   0.657   5.916  16.963  0.5140 -0.6747 -1.9242
20086TIP3    H281750   0.522   5.974  16.927  0.4872  0.6863  0.2830
20087TIP3   OH281751   0.538   3.741   2.887 -0.1885  0.2334 -0.1097
20087TIP3    H181752   0.452   3.770   2.918 -0.5802  0.6585 -1.5623
20087TIP3    H281753   0.566   3.677   2.952 -1.2503  0.6707  0.8052
20088TIP3   OH281754   1.299   5.969   0.480  0.5356 -0.0166 -0.1869
20088TIP3    H181755   1.330   6.042   0.534  1.7628 -1.4607  1.1276
20088TIP3    H281756   1.224   5.934   0.528  0.7807 -0.4501 -0.1175
20089TIP3   OH281757   0.629   0.539  14.267 -1.0777  0.0895 -0.1546
20089TIP3    H181758   0.581   0.594  14.205 -3.3161 -1.6153  0.0149
20089TIP3    H281759   0.622   0.586  14.350 -1.5110  0.3771 -0.3491
20090TIP3   OH281760   1.735   2.539  13.073  0.1790 -0.3950  0.5478
20090TIP3    H181761   1.799   2.472  13.048  0.4531 -0.2933  0.9612
20090TIP3    H281762   1.741   2.606  13.005 -0.2747 -0.9063 -0.0035
20091TIP3   OH281763   6.563   0.883   0.361 -0.7040 -0.5589 -0.1520
20091TIP3    H181764   6.592   0.794   0.342  0.9224 -0.1007  0.1382
20091TIP3    H281765   6.555   0.885   0.457 -1.6504 -0.6553 -0.2205
20092TIP3   OH281766   5.730   2.406   2.583  0.0273 -0.5335  0.3409
20092TIP3    H181767   5.707   2.440   2.497  0.2436  0.4043  0.6531
20092TIP3    H281768   5.668   2.448   2.643  0.3081 -0.6713  0.7286
20093TIP3   OH281769   0.444   1.114   3.398 -0.5154  0.5196  0.4625
20093TIP3    H181770   0.370   1.165   3.430 -0.8221  1.9306 -2.3072
20093TIP3    H281771   0.415   1.023   3.406 -1.8500  0.9834  1.0707
20094TIP3   OH281772   3.978   6.099   5.065 -0.2069  0.0492 -0.1188
20094TIP3    H181773   3.892   6.107   5.105 -0.4822  2.9025 -1.1633
20094TIP3    H281774   3.964   6.118   4.972  1.4121 -0.3125 -0.4624
20095TIP3   OH281775   1.505   1.987  11.890 -0.3185 -0.5141  0.6753
20095TIP3    H181776   1.435   1.986  11.955  0.0669  0.0861  1.1048
20095TIP3    H281777   1.473   2.044  11.820 -0.7864 -1.2622  0.2765
20096TIP3   OH281778   2.544   5.773   3.030  0.1547  0.2274 -0.4242
20096TIP3    H181779   2.485   5.842   2.999 -0.4830 -0.5154 -0.9071
20096TIP3    H281780   2.613   5.819   3.077 -1.5149  1.0570  1.3057
20097TIP3   OH281781   4.599   6.801  15.538  0.5479 -0.1089 -0.3572
20097TIP3    H181782   4.561   6.859  15.605 -0.9615 -0.6661 -0.7064
20097TIP3    H281783   4.689   6.788  15.566 -0.0110 -0.1758  1.4751
20098TIP3   OH281784   2.521   3.914  13.349 -0.3555 -0.0124 -0.0404
20098TIP3    H181785   2.589   3.948  13.407 -0.8290  1.3406 -0.2623
20098TIP3    H281786   2.477   3.846  13.400  0.4144 -0.0921  0.5140
20099TIP3   OH281787   1.184   0.396   1.867 -0.6636  0.4402  0.1407
20099TIP3    H181788   1.264   0.438   1.897 -0.3622 -0.9052  1.2249
20099TIP3    H281789   1.206   0.362   1.780 -0.2476  0.6072  0.1788
20100TIP3   OH281790   2.369   5.609  15.233  0.4995  0.2712  0.5030
20100TIP3    H181791   2.457   5.647  15.232  0.8870 -0.6228  0.6330
20100TIP3    H281792   2.323   5.656  15.303  0.1758  2.2841 -0.9829
20101TIP3   OH281793   0.229   2.097  10.773  0.3384  0.5453  0.4034
20101TIP3    H181794   0.175   2.083  10.695 -1.7032  1.0054  1.7075
20101TIP3    H281795   0.286   2.171  10.749 -1.7967  2.1451  0.0899
20102TIP3   OH281796   4.050   1.228   3.544  0.3748  0.6436 -0.1377
20102TIP3    H181797   4.050   1.321   3.568  0.1138  0.9645 -1.3741
20102TIP3    H281798   4.142   1.203   3.549  0.2645  0.5379  1.8060
20103TIP3   OH281799   2.693   1.984  11.581  0.7844  0.1913 -0.0961
20103TIP3    H181800   2.709   1.933  11.660 -0.5760  0.1937  0.1964
20103TIP3    H281801   2.702   2.076  11.609 -1.2759  0.2560  0.4595
20104TIP3   OH281802   5.894   3.293  14.432  0.4031 -0.2003  0.4503
20104TIP3    H181803   5.974   3.345  14.427  0.4392 -0.2261  0.8035
20104TIP3    H281804   5.824   3.357  14.450  0.5189 -0.3409  1.3949
20105TIP3   OH281805   0.277   4.473   2.877 -1.2259 -0.0022  0.0762
20105TIP3    H181806   0.261   4.404   2.941 -2.4808 -0.0522 -0.2770
20105TIP3    H281807   0.209   4.461   2.811 -0.2291  0.3329 -1.0418
20106TIP3   OH281808   0.615   0.056  12.041  0.3680 -0.3502 -0.5900
20106TIP3    H181809   0.653   0.030  12.125 -0.2248 -0.4854 -0.3625
20106TIP3    H281810   0.685   0.042  11.977  1.6740  2.2186  0.2409
20107TIP3   OH281811   3.976   4.701   4.043  0.6276  0.1626  0.1477
20107TIP3    H181812   3.999   4.742   4.127 -0.7563  0.7173  0.2649
20107TIP3    H281813   3.903   4.642   4.064 -0.4438  1.1139 -0.8463
20108TIP3   OH281814   0.350   3.171  12.046 -0.1950  0.3147  0.5073
20108TIP3    H181815   0.338   3.244  12.108 -0.3490  1.6974 -1.1020
20108TIP3    H281816   0.273   3.177  11.988  0.7728  0.0721 -0.8147
20109TIP3   OH281817   4.320   5.897   5.070 -0.4237 -0.3984  0.0546
20109TIP3    H181818   4.237   5.869   5.109 -0.6046  0.5738  0.3791
20109TIP3    H281819   4.300   5.909   4.977 -0.9231  0.9053  0.3259
20110TIP3   OH281820   1.799   2.737  16.676  0.0906  0.0307 -0.1665
20110TIP3    H181821   1.868   2.795  16.708 -0.3260  1.3070 -1.5231
20110TIP3    H281822   1.775   2.684  16.752  2.2388 -0.1291  0.4402
20111TIP3   OH281823   5.905   1.309  12.111  0.2389 -0.1858  0.0906
20111TIP3    H181824   5.873   1.367  12.041 -0.8798 -0.3907  0.4243
20111TIP3    H281825   5.848   1.329  12.186  0.8427 -0.6205  0.6661
20112TIP3   OH281826   3.164   6.786   4.043 -0.6040  0.4497 -0.1844
20112TIP3    H181827   3.220   6.855   4.076  0.8793 -1.6695  1.8365
20112TIP3    H281828   3.091   6.781   4.105  0.6599 -1.5448  1.1887
20113TIP3   OH281829   0.322   5.490  16.932  0.6899 -0.0812 -0.5308
20113TIP3    H181830   0.409   5.454  16.911  0.0185 -2.1452  0.1969
20113TIP3    H281831   0.340   5.562  16.992  1.9769  0.1718 -1.2012
20114TIP3   OH281832   3.313   3.300   0.138 -0.2464  0.1755 -0.7588
20114TIP3    H181833   3.279   3.361   0.073  0.7068  0.5370 -0.9347
20114TIP3    H281834   3.322   3.353   0.218 -1.1394 -0.1924 -0.4109
20115TIP3   OH281835   6.648   6.543  16.931  0.0197 -0.6771 -0.0632
20115TIP3    H181836   6.669   6.608  16.998  0.6845  0.7162 -1.5888
20115TIP3    H281837   6.626   6.464  16.980 -3.6563  1.4779  1.9525
20116TIP3   OH281838   6.759   2.627  11.214 -0.2173 -0.1463 -0.0341
20116TIP3    H181839   6.719   2.542  11.197  0.3060 -0.7021  1.4708
20116TIP3    H281840   6.838   2.608  11.265  0.5263  1.1500 -0.6491
20117TIP3   OH281841   1.659   0.484  14.332 -0.1056  0.2880  0.5411
20117TIP3    H181842   1.633   0.429  14.258  1.4735  1.1317 -0.6667
20117TIP3    H281843   1.577   0.523  14.362 -1.2034 -2.3550  1.1706
20118TIP3   OH281844   2.290   3.663  11.060 -0.8618  0.2298 -0.6278
20118TIP3    H181845   2.205   3.684  11.097  0.2903  0.0973  2.1610
20118TIP3    H281846   2.285   3.569  11.039 -1.0228 -0.0357  0.6010
20119TIP3   OH281847   2.723   5.799  11.989 -0.4883 -0.2514 -0.0200
20119TIP3    H181848   2.627   5.793  11.988 -0.5345  0.2428  1.0832
20119TIP3    H281849   2.751   5.732  12.051  0.1087 -2.8556 -2.9307
20120TIP3   OH281850   6.023   0.922  14.667 -0.3242  0.1253 -0.5363
20120TIP3    H181851   6.102   0.880  14.701 -0.1818  0.8112 -0.0173
20120TIP3    H281852   5.961   0.850  14.654  0.1844 -0.3378 -0.3836
20121TIP3   OH281853   2.967   2.183  13.310  0.5208  0.2784  0.0300
20121TIP3    H181854   2.910   2.125  13.361  0.0266  0.5352 -0.2234
20121TIP3    H281855   3.030   2.216  13.373 -1.3890  2.2750  0.9588
20122TIP3   OH281856   4.114   4.168  14.340  0.4805 -0.2006  0.2838
20122TIP3    H181857   4.085   4.191  14.252  0.9237 -0.4699  0.0679
20122TIP3    H281858   4.081   4.079  14.354  2.2605 -1.0005 -0.4429
20123TIP3   OH281859   6.784   5.750  16.315  0.4609 -0.3199 -0.1365
20123TIP3    H181860   6.737   5.677  16.356  1.1136 -1.3872 -1.2729
20123TIP3    H281861   6.832   5.791  16.386 -1.4505  0.2127  0.8745
20124TIP3   OH281862   3.612   5.840   4.145  0.3171 -0.1838  0.4371
20124TIP3    H181863   3.697   5.801   4.125  1.3410  1.8015  0.8002
20124TIP3    H281864   3.589   5.804   4.231  1.7052  0.7663  1.2134
20125TIP3   OH281865   4.323   0.783   4.396  0.0383  0.2949  0.1503
20125TIP3    H181866   4.406   0.751   4.361  0.9722  1.3275  1.3656
20125TIP3    H281867   4.268   0.705   4.404  0.6728 -0.3161 -1.2035
20126TIP3   OH281868   2.208   2.848  13.853 -0.1867 -0.2057  0.7039
20126TIP3    H181869   2.293   2.860  13.810 -0.4821 -2.2102 -0.5351
20126TIP3    H281870   2.229   2.832  13.945  0.7681 -0.3860  0.4570
20127TIP3   OH281871   2.039   4.290  13.526 -0.0255 -0.4973 -0.3221
20127TIP3    H181872   2.098   4.254  13.592  1.4912  2.2064 -0.1048
20127TIP3    H281873   2.097   4.341  13.468 -2.1698  2.7190  0.2412
20128TIP3   OH281874   0.268   5.130   3.778  0.2800  0.7809  0.6505
20128TIP3    H181875   0.342   5.108   3.836  0.6098 -1.2249 -0.4788
20128TIP3    H281876   0.273   5.066   3.708 -3.6559 -0.6113  1.5050
20129TIP3   OH281877   0.565   0.301  15.300  0.0452  0.6139  0.1852
20129TIP3    H181878   0.596   0.259  15.380 -1.0281 -1.5453 -0.5201
20129TIP3    H281879   0.476   0.328  15.320 -0.8395 -1.4907 -0.8325
20130TIP3   OH281880   6.715   1.745  11.477  0.3507 -0.8273 -0.1306
20130TIP3    H181881   6.678   1.724  11.391  0.6070  0.6582 -0.6175
20130TIP3    H281882   6.717   1.840  11.479  1.5134 -0.8717  1.0383
20131TIP3   OH281883   5.172   3.662   5.199  0.1073  0.3902 -0.1851
20131TIP3    H181884   5.153   3.713   5.120  0.6119 -0.8899 -1.1523
20131TIP3    H281885   5.261   3.629   5.185 -0.1002 -0.5135  0.5602
20132TIP3   OH281886   3.061   1.767   0.693 -0.0385 -0.4141  0.3500
20132TIP3    H181887   3.079   1.797   0.604  1.3113  0.7091  0.9848
20132TIP3    H281888   3.045   1.847   0.743  0.0465 -0.9803  1.2993
20133TIP3   OH281889   1.783   0.624   6.497  0.0770  0.4124 -0.4741
20133TIP3    H181890   1.724   0.552   6.515  1.7589 -0.6631  0.8886
20133TIP3    H281891   1.766   0.687   6.568  0.9005 -0.1353  0.2268
20134TIP3   OH281892   3.374   3.939   5.794  0.1897 -0.8156  0.3436
20134TIP3    H181893   3.283   3.967   5.792 -0.2893 -2.2759  0.6218
20134TIP3    H281894   3.373   3.860   5.848  1.4271 -1.4953 -0.6049
20135TIP3   OH281895   2.109   0.025   5.577  0.5988  0.1380 -0.0956
20135TIP3    H181896   2.086   0.116   5.597 -0.7769 -0.2404  0.0652
20135TIP3    H281897   2.121   0.025   5.482 -4.7671 -0.6266 -0.9173
20136TIP3   OH281898   3.469   4.318   6.246 -0.2269 -0.4807 -0.8573
20136TIP3    H181899   3.473   4.371   6.166  3.0178 -0.8779 -1.0124
20136TIP3    H281900   3.541   4.350   6.300 -3.5423  1.1389  2.8809
20137TIP3   OH281901   2.882   5.756   3.659 -0.3890  0.2026 -0.0683
20137TIP3    H181902   2.844   5.826   3.712 -0.5636 -0.8266  1.1981
20137TIP3    H281903   2.854   5.675   3.703  2.7167 -0.6153  0.5538
20138TIP3   OH281904   2.530   2.048  15.017  0.2852  0.2626  0.3616
20138TIP3    H181905   2.594   2.119  15.016  1.7115 -0.9801 -0.2406
20138TIP3    H281906   2.512   2.033  15.110  0.2791  1.1541  0.5024
20139TIP3   OH281907   3.062   2.879  14.235 -0.4409  0.7278  0.6599
20139TIP3    H181908   3.115   2.857  14.312  0.0784 -1.1759 -0.2278
20139TIP3    H281909   3.091   2.966  14.210  2.7203 -0.5241 -0.1826
20140TIP3   OH281910   6.594   0.606  16.751  0.0558 -0.3184 -0.6594
20140TIP3    H181911   6.648   0.545  16.700  0.4392 -0.0537 -0.5747
20140TIP3    H281912   6.574   0.558  16.831 -0.8137 -0.8534 -1.1956
20141TIP3   OH281913   1.798   1.160   5.789 -0.0712  0.1339  0.4872
20141TIP3    H181914   1.875   1.213   5.809 -0.0189 -0.3864  1.7169
20141TIP3    H281915   1.765   1.195   5.706  0.7396  1.2015  0.6118
20142TIP3   OH281916   3.860   4.923   2.640  0.1265  0.8396 -0.3515
20142TIP3    H181917   3.951   4.950   2.651  0.6454 -0.8064 -0.4881
20142TIP3    H281918   3.859   4.873   2.559 -0.6836 -0.0572  0.1964
20143TIP3   OH281919   2.718   5.893  16.016 -0.5961  0.0302  0.1753
20143TIP3    H181920   2.786   5.826  16.005  1.8010  2.6827 -1.6104
20143TIP3    H281921   2.760   5.961  16.068 -2.2711  1.1738  0.0419
20144TIP3   OH281922   2.252   4.439  14.011  0.8606 -0.0893  0.0110
20144TIP3    H181923   2.295   4.507  14.063  0.7510  0.3402 -0.4523
20144TIP3    H281924   2.238   4.367  14.072  0.8506  0.3612  0.5421
20145TIP3   OH281925   5.819   3.500  12.276  0.0737  0.8393  0.3091
20145TIP3    H181926   5.832   3.499  12.181 -0.3346  1.6599  0.2357
20145TIP3    H281927   5.904   3.527  12.311  0.1942  0.6405  0.1709
20146TIP3   OH281928   1.045   2.871   4.960  0.5421 -0.1889  0.6299
20146TIP3    H181929   1.140   2.878   4.954  0.4848  0.2244  0.1835
20146TIP3    H281930   1.028   2.777   4.951  0.7985 -0.1006 -0.9591
20147TIP3   OH281931   3.570   2.253  16.999 -0.0645 -0.3713  0.5614
20147TIP3    H181932   3.656   2.252  16.957 -0.3085 -0.2187  0.0450
20147TIP3    H281933   3.545   2.346  17.002 -0.6662 -0.4947 -0.2601
20148TIP3   OH281934   6.409   3.352  11.703  0.0287  0.6556 -0.1474
20148TIP3    H181935   6.458   3.390  11.630 -0.1521  0.8115 -0.1896
20148TIP3    H281936   6.476   3.320  11.763  0.2097  2.4887  0.6610
20149TIP3   OH281937   3.931   0.629  16.839  0.0030  0.0406  0.4765
20149TIP3    H181938   3.892   0.627  16.927 -1.6709  0.1984 -0.2314
20149TIP3    H281939   3.905   0.545  16.800  1.0311 -0.1740  0.2397
20150TIP3   OH281940   0.453   6.374  17.025 -0.1512  0.0041  0.3284
20150TIP3    H181941   0.364   6.346  17.007  0.0787  0.1937 -1.1693
20150TIP3    H281942   0.473   6.438  16.956  0.4289  1.4962  1.8266
20151TIP3   OH281943   2.933   4.974   3.852  0.1918  0.1068 -0.4844
20151TIP3    H181944   3.014   5.020   3.829  0.8920 -0.6027  0.5171
20151TIP3    H281945   2.946   4.947   3.943 -1.2700  0.1831 -0.2395
20152TIP3   OH281946   6.341   5.348   6.154 -0.5982  0.5598  0.0260
20152TIP3    H181947   6.406   5.284   6.182  0.4396  2.4454  2.0827
20152TIP3    H281948   6.389   5.431   6.147 -1.9673  1.2173 -2.2860
20153TIP3   OH281949   5.909   2.372   4.072 -0.2141 -0.6860  0.2254
20153TIP3    H181950   5.890   2.280   4.056  0.0917 -0.9305  1.2576
20153TIP3    H281951   5.980   2.371   4.136  2.0183  0.2285 -2.1591
20154TIP3   OH281952   5.173   4.800  14.966 -0.0614  0.1998  0.4533
20154TIP3    H181953   5.170   4.799  15.061  0.5860  0.5106  0.4751
20154TIP3    H281954   5.196   4.711  14.941  0.5605  0.3154  0.6152
20155TIP3   OH281955   4.237   0.663   3.501 -0.0114 -0.2374  0.0099
20155TIP3    H181956   4.155   0.633   3.540 -1.6972  1.0373 -2.4049
20155TIP3    H281957   4.215   0.748   3.463  2.8189  0.7796  0.5101
20156TIP3   OH281958   5.499   1.101  13.797  0.1680 -0.4554 -0.0361
20156TIP3    H181959   5.468   1.075  13.884 -1.0635  0.5010 -0.1770
20156TIP3    H281960   5.475   1.193  13.790 -1.5780 -1.0285 -2.1656
20157TIP3   OH281961   2.863   3.668  14.784  0.0772 -0.0880 -0.6943
20157TIP3    H181962   2.895   3.607  14.718 -0.1578  0.2002 -1.0780
20157TIP3    H281963   2.882   3.755  14.748 -0.7560  0.0799 -0.7406
20158TIP3   OH281964   5.930   1.820  17.119  0.2378  0.2898 -0.5979
20158TIP3    H181965   5.882   1.818  17.202 -0.7830 -1.5880 -1.1819
20158TIP3    H281966   5.902   1.901  17.077 -1.7189 -0.2952 -0.4864
20159TIP3   OH281967   1.974   5.857   5.254  0.3671  0.1655 -0.8721
20159TIP3    H181968   1.901   5.910   5.287 -0.0468 -0.2615 -1.0939
20159TIP3    H281969   2.028   5.918   5.204 -0.8768  0.1002 -2.3460
20160TIP3   OH281970   2.933   0.779  16.641 -0.0287  0.1682  0.0479
20160TIP3    H181971   2.979   0.735  16.569  0.4717  1.1837 -0.2667
20160TIP3    H281972   2.898   0.860  16.601 -1.0937 -0.0268  0.5631
20161TIP3   OH281973   5.620   5.088  13.242  0.4716  0.5911 -0.2245
20161TIP3    H181974   5.650   5.063  13.155 -2.1238  2.5797 -1.7692
20161TIP3    H281975   5.674   5.164  13.265  0.1079  1.0392 -0.8142
20162TIP3   OH281976   3.960   4.151   2.434 -0.0429  0.0981  0.2245
20162TIP3    H181977   3.890   4.164   2.370 -1.4213  1.1144  1.8775
20162TIP3    H281978   4.039   4.144   2.382 -0.9611  2.1397 -1.5494
20163TIP3   OH281979   1.165   5.604   5.732  0.1268  0.0091 -0.0053
20163TIP3    H181980   1.130   5.536   5.675 -0.2765 -0.7719  1.1644
20163TIP3    H281981   1.193   5.557   5.811  1.1001  1.0142  0.2589
20164TIP3   OH281982   1.720   5.468   4.935  0.1470  0.5814  0.1763
20164TIP3    H181983   1.721   5.472   5.030  0.6025 -1.0211  0.2459
20164TIP3    H281984   1.684   5.381   4.915  2.7798 -0.2708 -1.0670
20165TIP3   OH281985   3.888   0.741  11.155  0.1856 -0.5445  0.1256
20165TIP3    H181986   3.948   0.686  11.105  0.8739 -0.3820  0.7598
20165TIP3    H281987   3.829   0.679  11.199  0.9001 -0.7875  0.7635
20166TIP3   OH281988   3.248   4.668   0.340  0.3730 -0.0953  0.4482
20166TIP3    H181989   3.232   4.621   0.258  0.2904  1.8184 -0.6719
20166TIP3    H281990   3.167   4.718   0.354  0.5647 -0.0642  1.4706
20167TIP3   OH281991   1.444   5.132   2.249 -0.0566 -0.0434  0.0278
20167TIP3    H181992   1.477   5.197   2.187  1.8064 -0.0161  0.9995
20167TIP3    H281993   1.475   5.048   2.216  2.4671  0.1288  1.8039
20168TIP3   OH281994   2.256   3.660   6.118 -0.0953  0.5561  0.1575
20168TIP3    H181995   2.271   3.566   6.127  0.8250  0.3756 -2.6750
20168TIP3    H281996   2.166   3.667   6.087  0.0299  0.5838 -0.1963
20169TIP3   OH281997   1.274   1.650  11.531  0.3002 -0.1634 -0.0809
20169TIP3    H181998   1.279   1.692  11.616  0.7035  0.2242 -0.2969
20169TIP3    H281999   1.187   1.611  11.528 -0.2004  0.9543 -0.0250
20170TIP3   OH282000   0.453   0.856   1.321  0.2543 -0.1478  0.2649
20170TIP3    H182001   0.536   0.902   1.336 -0.5155  0.6679  2.2319
20170TIP3    H282002   0.478   0.773   1.280  2.1088 -0.1952  1.4311
20171TIP3   OH282003   0.050   2.806   1.728 -0.0197 -0.1419 -0.0711
20171TIP3    H182004   0.084   2.882   1.681 -2.0261  0.2501 -0.9517
20171TIP3    H282005   0.044   2.834   1.819  0.2983  0.3723 -0.2052
20172TIP3   OH282006   2.478   5.135  14.102  0.0723 -0.2730  0.3943
20172TIP3    H182007   2.513   5.073  14.038 -1.3277 -1.0812  0.3814
20172TIP3    H282008   2.513   5.105  14.185  1.9795  0.8394  0.0157
20173TIP3   OH282009   5.087   0.622  17.014  0.2253  0.1489  0.1586
20173TIP3    H182010   5.006   0.673  17.017  0.3668  0.3828  0.0901
20173TIP3    H282011   5.142   0.661  17.082 -0.8600 -1.9989  2.3191
20174TIP3   OH282012   1.888   3.504  11.901  0.0408 -0.7645 -0.3407
20174TIP3    H182013   1.967   3.465  11.865  0.5015  0.2553 -0.4243
20174TIP3    H282014   1.866   3.575  11.841  0.9075  1.0536  1.4338
20175TIP3   OH282015   4.612   2.927   4.256 -0.3183  0.6171 -0.0168
20175TIP3    H182016   4.542   2.991   4.245 -1.2202 -0.4696 -0.7240
20175TIP3    H282017   4.572   2.843   4.232  0.2424 -0.5393  2.9507
20176TIP3   OH282018   0.252   3.972  16.993 -0.6175  0.7022 -0.5109
20176TIP3    H182019   0.179   3.922  17.029 -0.0141  0.0496 -0.1971
20176TIP3    H282020   0.245   4.058  17.035 -0.6750  0.3568  0.1884
20177TIP3   OH282021   0.347   2.009   2.667 -0.0924  0.4169 -0.0982
20177TIP3    H182022   0.260   1.968   2.675  0.3149 -0.8251 -1.8628
20177TIP3    H282023   0.404   1.954   2.722 -0.0344  0.0558 -0.5164
20178TIP3   OH282024   0.896   4.069   1.707  0.2045 -0.2170 -0.1334
20178TIP3    H182025   0.809   4.099   1.680  0.6769  1.7964  0.4682
20178TIP3    H282026   0.947   4.069   1.626 -0.5191 -2.1053 -0.6197
20179TIP3   OH282027   5.081   2.741  15.834  0.0768  0.1368 -0.1423
20179TIP3    H182028   5.125   2.692  15.904  2.2700  0.4226 -1.2658
20179TIP3    H282029   4.990   2.713  15.838  1.0587 -3.1692 -0.0305
20180TIP3   OH282030   6.784   3.751   6.298  0.4302  0.3653 -0.1157
20180TIP3    H182031   6.713   3.717   6.243  0.6036  0.1118 -0.1862
20180TIP3    H282032   6.807   3.678   6.356  0.1819  0.6669  0.3611
20181TIP3   OH282033   1.937   2.230   4.380  0.3501  0.4441 -0.2633
20181TIP3    H182034   2.011   2.290   4.368  0.7806 -0.2867 -1.3688
20181TIP3    H282035   1.950   2.194   4.468 -0.2991  2.4580  0.6979
20182TIP3   OH282036   3.984   2.263   3.205  0.5560 -0.2631 -0.4444
20182TIP3    H182037   3.945   2.239   3.290  1.9160 -0.1184  0.2361
20182TIP3    H282038   3.964   2.189   3.148 -0.9543 -0.0637 -0.1959
20183TIP3   OH282039   4.776   4.315   2.426  0.0581 -0.7660  0.4507
20183TIP3    H182040   4.766   4.240   2.484 -0.8405 -1.1787 -0.2180
20183TIP3    H282041   4.816   4.383   2.480  0.1055 -1.4551  1.2821
20184TIP3   OH282042   2.607   4.365   1.102  0.3687  0.3563 -0.0170
20184TIP3    H182043   2.661   4.292   1.069  1.3274  0.3992  1.4082
20184TIP3    H282044   2.596   4.346   1.195  0.2915  1.8276  0.2850
20185TIP3   OH282045   2.654   1.854  15.304  0.1263  0.2066  0.0459
20185TIP3    H182046   2.746   1.881  15.305  0.0185  0.6856 -1.1999
20185TIP3    H282047   2.645   1.803  15.223 -0.1707 -1.8064  1.3263
20186TIP3   OH282048   2.530   6.331   4.452 -0.4544  0.4725  0.0272
20186TIP3    H182049   2.475   6.404   4.479 -0.0734  0.7159  0.1496
20186TIP3    H282050   2.538   6.277   4.531 -0.8196  0.2406 -0.0892
20187TIP3   OH282051   3.773   1.357   0.738  0.2551 -0.2411  0.0943
20187TIP3    H182052   3.799   1.275   0.694 -0.7457 -0.0184 -0.9418
20187TIP3    H282053   3.745   1.329   0.825  1.9722 -0.7313  0.5118
20188TIP3   OH282054   4.628   4.055   1.081  0.2868  0.2683 -0.3778
20188TIP3    H182055   4.715   4.092   1.095 -0.2658  2.1714 -1.8218
20188TIP3    H282056   4.641   3.990   1.012  1.0655 -1.6249  1.4619
20189TIP3   OH282057   1.037   3.368  11.585 -0.0390  0.5186 -0.6926
20189TIP3    H182058   1.002   3.284  11.555 -0.7044  0.9473 -1.1300
20189TIP3    H282059   1.030   3.365  11.680 -1.1755  0.5641 -0.7744
20190TIP3   OH282060   2.918   0.958   4.171  0.2695  0.2763 -0.4018
20190TIP3    H182061   2.884   0.992   4.253 -0.1811 -1.5591  0.2000
20190TIP3    H282062   2.857   0.989   4.104 -0.9541 -0.5635  0.3103
20191TIP3   OH282063   2.719   0.999   0.848 -0.2894 -0.3107  0.0976
20191TIP3    H182064   2.785   0.957   0.903 -0.1275  2.5970  2.2438
20191TIP3    H282065   2.637   0.990   0.897 -0.2553  1.7531  0.6103
20192TIP3   OH282066   5.944   4.477  11.746 -0.3089 -0.3212 -0.2381
20192TIP3    H182067   6.033   4.441  11.747 -0.3317 -0.3748 -0.1619
20192TIP3    H282068   5.887   4.400  11.743 -0.3597 -0.2973  0.0921
20193TIP3   OH282069   0.669   6.343   1.297  0.3597 -0.1233 -0.5207
20193TIP3    H182070   0.675   6.249   1.315  1.7714  0.1499  0.5776
20193TIP3    H282071   0.730   6.357   1.225  0.3065 -0.0264 -0.5467
20194TIP3   OH282072   3.926   4.016   3.164 -0.7240 -0.5285  0.3017
20194TIP3    H182073   3.844   3.999   3.211  0.0430 -0.1496  1.8230
20194TIP3    H282074   3.906   3.997   3.072 -3.1224  1.5522  0.3384
20195TIP3   OH282075   5.076   1.475   2.243  0.2576 -0.1200 -0.6344
20195TIP3    H182076   5.078   1.549   2.183  1.3781 -0.0542 -0.5364
20195TIP3    H282077   5.131   1.503   2.317 -1.1102 -0.1990  0.4213
20196TIP3   OH282078   0.717   2.525   1.472 -0.3167 -0.2653  0.6303
20196TIP3    H182079   0.766   2.443   1.473 -0.2102 -0.2088  0.2816
20196TIP3    H282080   0.763   2.582   1.532 -0.0606 -0.2744  0.4433
20197TIP3   OH282081   3.470   1.112   0.637 -0.0734  0.3240  0.5474
20197TIP3    H182082   3.406   1.153   0.696 -1.1108 -2.1620  1.2053
20197TIP3    H282083   3.553   1.155   0.659 -1.0118  1.6598  1.6103
20198TIP3   OH282084   2.336   3.410  10.776  0.7876 -0.3201 -0.2275
20198TIP3    H182085   2.246   3.438  10.759  0.4114 -0.3935  1.5210
20198TIP3    H282086   2.335   3.316  10.762  0.2322 -0.5346  1.1209
20199TIP3   OH282087   4.277   0.658   0.353 -0.0506 -0.1586 -0.3118
20199TIP3    H182088   4.314   0.668   0.265 -0.5535  0.1013 -0.4920
20199TIP3    H282089   4.185   0.683   0.344  0.3250  1.6848  0.6725
20200TIP3   OH282090   0.316   1.881   4.132 -0.4619  0.6905 -0.4529
20200TIP3    H182091   0.299   1.929   4.213  1.3662 -0.2835  0.5407
20200TIP3    H282092   0.242   1.903   4.075 -1.6377  1.6034  1.3719
20201TIP3   OH282093   3.613   2.656   0.499  0.2744 -0.3584  0.5153
20201TIP3    H182094   3.611   2.747   0.528  0.6020 -0.3003  0.3550
20201TIP3    H282095   3.589   2.606   0.577 -0.0409 -0.1296  0.5696
20202TIP3   OH282096   6.015   0.459  13.938  1.0828 -0.1494  0.3890
20202TIP3    H182097   6.029   0.552  13.924  2.5131 -0.5806 -1.3107
20202TIP3    H282098   5.920   0.448  13.943  0.9563  1.5622  1.9475
20203TIP3   OH282099   6.375   2.301  16.129  0.1144  0.0351  0.1776
20203TIP3    H182100   6.359   2.346  16.046  1.2141  0.0380 -0.0399
20203TIP3    H282101   6.401   2.212  16.104  1.8214  0.4328  0.4435
20204TIP3   OH282102   6.157   4.748  11.472  0.1272 -0.4452 -0.6140
20204TIP3    H182103   6.238   4.700  11.451  0.7338  0.1382  0.3632
20204TIP3    H282104   6.090   4.680  11.477  0.9701 -1.2010  0.7001
20205TIP3   OH282105   2.937   4.219   3.177  0.3987 -0.5173  0.7365
20205TIP3    H182106   3.016   4.174   3.147  0.6435 -1.4965  2.7250
20205TIP3    H282107   2.866   4.161   3.152  0.3408  0.1656 -0.6904
20206TIP3   OH282108   4.890   2.966   4.245  0.2216  0.3031 -0.2008
20206TIP3    H182109   4.799   2.944   4.264 -0.2350  0.4969 -2.0793
20206TIP3    H282110   4.939   2.927   4.316 -1.2231 -0.8317  0.2015
20207TIP3   OH282111   4.784   1.631   5.537  0.4374 -0.0717 -0.4781
20207TIP3    H182112   4.718   1.686   5.494 -1.8248 -2.7265 -0.5706
20207TIP3    H282113   4.823   1.581   5.465  1.6460  0.5319 -0.2521
20208TIP3   OH282114   6.023   3.572   5.056 -0.0683  0.0051 -0.2755
20208TIP3    H182115   5.936   3.533   5.061  0.0606 -0.1134  1.4602
20208TIP3    H282116   6.082   3.504   5.086  0.5025  0.4748 -0.3159
20209TIP3   OH282117   2.013   4.232  12.180 -0.4014  1.0822  0.2801
20209TIP3    H182118   1.920   4.247  12.170 -0.6094 -0.7435 -0.8779
20209TIP3    H282119   2.033   4.258  12.270 -2.6137 -1.1524  1.4845
20210TIP3   OH282120   5.807   4.948   4.272  0.1769  0.6335  0.9359
20210TIP3    H182121   5.849   4.960   4.358 -0.8898 -0.2049  1.5942
20210TIP3    H282122   5.714   4.951   4.291 -0.0633  0.5851 -0.2278
20211TIP3   OH282123   2.356   2.893   2.477 -0.8507 -0.1716  0.4138
20211TIP3    H182124   2.342   2.805   2.442 -0.5502 -0.6847  1.5855
20211TIP3    H282125   2.428   2.884   2.539 -1.6097  0.6578  1.4432
20212TIP3   OH282126   3.798   2.182  13.556 -0.1765  0.3730  0.0855
20212TIP3    H182127   3.762   2.251  13.500 -0.4622  0.8665  0.8609
20212TIP3    H282128   3.880   2.219  13.589  0.3355 -0.1872 -0.5481
20213TIP3   OH282129   0.406   5.608  14.147  0.2053  0.1653 -0.2303
20213TIP3    H182130   0.410   5.546  14.074 -0.0464  2.8384 -2.6317
20213TIP3    H282131   0.316   5.638  14.148  0.0692 -0.2771  1.5997
20214TIP3   OH282132   0.875   2.871   6.287  0.1516 -0.3292 -0.0779
20214TIP3    H182133   0.842   2.796   6.337  1.9528  1.2936  3.7663
20214TIP3    H282134   0.796   2.917   6.257 -0.9603 -2.3108 -0.2809
20215TIP3   OH282135   5.914   2.968   4.865 -0.3113  0.8013  0.1465
20215TIP3    H182136   5.952   2.886   4.833 -2.3348 -0.2909  0.5135
20215TIP3    H282137   5.879   3.010   4.786 -1.8170 -0.0574  0.3341
20216TIP3   OH282138   4.815   2.102   2.113  0.0091 -0.1025 -0.4031
20216TIP3    H182139   4.744   2.156   2.079  2.9183  3.1000 -1.7780
20216TIP3    H282140   4.843   2.049   2.037  0.2758  0.0210 -0.3935
20217TIP3   OH282141   0.326   1.723  11.616 -0.5998  0.1745  0.1395
20217TIP3    H182142   0.339   1.717  11.710 -0.3822 -0.5318  0.0636
20217TIP3    H282143   0.355   1.639  11.581 -1.4712  0.1155 -0.4744
20218TIP3   OH282144   6.785   5.475   5.774 -0.3830  0.1670 -0.6732
20218TIP3    H182145   6.755   5.386   5.757 -1.3785  0.5942 -1.2117
20218TIP3    H282146   6.874   5.478   5.738  0.9326 -1.5457  2.2309
20219TIP3   OH282147   0.523   4.191  13.089  0.0386  0.3307 -0.3371
20219TIP3    H182148   0.508   4.119  13.028  0.0977  1.4699 -1.7231
20219TIP3    H282149   0.439   4.238  13.092  0.6772  1.5658 -1.2657
20220TIP3   OH282150   3.337   6.400  13.809 -0.0227  0.2124 -0.0795
20220TIP3    H182151   3.362   6.411  13.717  0.8591  0.5801  0.2013
20220TIP3    H282152   3.360   6.483  13.851 -1.0385  0.2865  0.3438
20221TIP3   OH282153   2.687   4.385  14.774 -0.6193  0.1184 -0.3627
20221TIP3    H182154   2.623   4.315  14.785 -0.9462  0.7355  2.1309
20221TIP3    H282155   2.634   4.464  14.763 -0.2530  0.0903 -2.5369
20222TIP3   OH282156   4.377   6.137  13.052  0.1543 -0.3099  0.0413
20222TIP3    H182157   4.343   6.151  12.963 -0.0271  1.0953  0.3191
20222TIP3    H282158   4.344   6.051  13.077  0.7938 -1.0411 -1.5245
20223TIP3   OH282159   3.396   4.255  11.233 -0.3509  0.7660 -0.2859
20223TIP3    H182160   3.318   4.252  11.288  1.0502  1.7140  1.7969
20223TIP3    H282161   3.418   4.163  11.218 -0.9277  0.4999  0.4622
20224TIP3   OH282162   0.662   6.721  16.205  0.0971 -0.0946 -0.1192
20224TIP3    H182163   0.750   6.754  16.186  0.1939 -0.5027 -0.4033
20224TIP3    H282164   0.629   6.692  16.120 -0.8250  1.2628 -0.2345
20225TIP3   OH282165   5.337   5.746  16.116 -0.4531 -0.8419 -0.0421
20225TIP3    H182166   5.414   5.720  16.065 -0.8057  0.5179 -1.3193
20225TIP3    H282167   5.322   5.674  16.176  0.9565 -1.7678 -0.7832
20226TIP3   OH282168   2.476   1.919   2.149 -0.0690 -0.1664  0.2850
20226TIP3    H182169   2.473   1.872   2.065 -2.5051  1.2616 -0.4955
20226TIP3    H282170   2.481   2.012   2.124 -0.7592  0.2619  1.7105
20227TIP3   OH282171   5.746   2.123   4.412  0.0371 -0.5438 -0.5349
20227TIP3    H182172   5.834   2.099   4.440  1.5836  2.7204 -2.3435
20227TIP3    H282173   5.734   2.213   4.443 -2.7859 -1.0377 -0.0452
20228TIP3   OH282174   2.435   5.150  14.564  0.3781 -0.4203 -0.3170
20228TIP3    H182175   2.340   5.145  14.556  0.2797 -0.3031  0.7011
20228TIP3    H282176   2.453   5.241  14.586  0.6418 -0.6540  0.4631
20229TIP3   OH282177   2.906   1.655  16.987 -0.1390 -0.0890 -0.1155
20229TIP3    H182178   2.822   1.665  16.942 -0.4124  1.0348  0.6182
20229TIP3    H282179   2.901   1.570  17.030 -1.4608  0.5514  1.0406
20230TIP3   OH282180   3.542   4.679  16.522  0.2298  0.0538 -0.0872
20230TIP3    H182181   3.451   4.648  16.512 -0.7392  1.9118  2.4624
20230TIP3    H282182   3.538   4.772  16.503  1.4605  0.2999  0.8197
20231TIP3   OH282183   4.514   4.787  14.030  0.4327 -0.3205  0.2375
20231TIP3    H182184   4.478   4.737  14.103  1.9514 -0.1942  1.0917
20231TIP3    H282185   4.603   4.810  14.058 -0.6996  4.1586  0.5133
20232TIP3   OH282186   3.288   1.847  17.267 -0.3109 -0.6064 -0.5281
20232TIP3    H182187   3.247   1.909  17.329 -0.9397 -2.9749  1.5211
20232TIP3    H282188   3.328   1.902  17.201 -1.9768  1.9749  0.5239
20233TIP3   OH282189   6.273   3.604  11.828 -0.2028  0.6123 -0.1527
20233TIP3    H182190   6.369   3.603  11.824 -0.2782  0.2881 -2.1399
20233TIP3    H282191   6.251   3.531  11.885  0.7798  2.0666  2.2001
20234TIP3   OH282192   5.724   2.622  16.276 -0.1362 -0.5543 -0.1898
20234TIP3    H182193   5.693   2.562  16.344 -0.2915 -0.5521 -0.2584
20234TIP3    H282194   5.811   2.589  16.253  0.6917  0.5178  1.3084
20235TIP3   OH282195   6.452   4.099   5.387 -0.1172 -0.4273 -0.2803
20235TIP3    H182196   6.459   4.117   5.481 -0.1469  1.6371 -0.6574
20235TIP3    H282197   6.358   4.089   5.372 -0.1749  0.0667 -0.2428
20236TIP3   OH282198   6.687   4.871  15.683 -0.2838  0.0149  0.4575
20236TIP3    H182199   6.698   4.859  15.589 -0.2838  1.4094  0.2594
20236TIP3    H282200   6.748   4.809  15.723  0.8642  0.5061 -0.4961
20237TIP3   OH282201   6.805   4.441  16.316 -0.4967  0.5813 -0.2913
20237TIP3    H182202   6.730   4.462  16.371  0.9957  1.0379  1.5823
20237TIP3    H282203   6.825   4.523  16.271  0.6385  1.2138  1.3477
20238TIP3   OH282204   4.956   4.332  14.811  0.3900  0.2789  0.0476
20238TIP3    H182205   4.933   4.287  14.892  1.3860  0.8056  0.6253
20238TIP3    H282206   4.954   4.425  14.833  1.5069  0.3935 -0.3048
20239TIP3   OH282207   6.041   6.054  11.522 -0.2969 -0.3990 -0.3345
20239TIP3    H182208   5.949   6.074  11.537  0.1345  0.3176  1.4502
20239TIP3    H282209   6.072   6.017  11.605  0.7218 -1.7857 -1.2975
20240TIP3   OH282210   3.798   1.517  13.560 -0.7129  0.7414 -0.4397
20240TIP3    H182211   3.885   1.527  13.599  0.2800 -0.7991 -2.1573
20240TIP3    H282212   3.762   1.605  13.556  0.3334  1.2665  1.2490
20241TIP3   OH282213   3.515   3.957  16.620 -0.0731 -0.0130 -0.1849
20241TIP3    H182214   3.562   3.938  16.539 -0.3551 -0.4844 -0.2359
20241TIP3    H282215   3.556   4.037  16.653  0.0610  0.1622 -0.7749
20242TIP3   OH282216   6.279   4.605   6.629 -0.2515  0.7802 -0.8583
20242TIP3    H182217   6.196   4.623   6.673 -1.4488 -0.0504 -2.6850
20242TIP3    H282218   6.282   4.668   6.557  1.0826  1.3084 -0.3620
20243TIP3   OH282219   3.463   3.029  14.150 -0.1348 -0.0480  0.6753
20243TIP3    H182220   3.426   3.002  14.234 -2.3918 -1.4696 -0.7050
20243TIP3    H282221   3.468   2.948  14.099  3.0273  0.4641  0.0769
20244TIP3   OH282222   6.345   1.841   5.621 -0.3589 -0.3410 -0.1462
20244TIP3    H182223   6.322   1.913   5.563  0.9246  0.1307 -0.0959
20244TIP3    H282224   6.271   1.832   5.680 -0.0264  1.7637  0.6386
20245TIP3   OH282225   0.199   3.917   4.081  0.2188  0.2366  0.2241
20245TIP3    H182226   0.217   3.876   3.997  1.1328  0.5700  0.2434
20245TIP3    H282227   0.129   3.980   4.063  2.1303  2.1359 -0.8600
20246TIP3   OH282228   6.351   0.089  15.071 -0.0066  0.1475  0.2418
20246TIP3    H182229   6.401   0.171  15.070 -2.2653  1.6016  0.8810
20246TIP3    H282230   6.304   0.089  14.987 -1.3693  0.4057  0.9871
20247TIP3   OH282231   0.378   5.118  15.838 -0.0317 -0.5551  0.5129
20247TIP3    H182232   0.381   5.055  15.911 -1.4596 -0.2771  0.8225
20247TIP3    H282233   0.303   5.174  15.857  1.4343  1.4941  0.4132
20248TIP3   OH282234   4.504   5.439  12.220  0.0993 -0.0223 -0.5336
20248TIP3    H182235   4.510   5.343  12.225 -0.6573 -0.1034 -1.2151
20248TIP3    H282236   4.577   5.469  12.274  1.3399 -0.9880 -1.6103
20249TIP3   OH282237   2.329   2.012  12.114 -0.7534  0.5522  0.0191
20249TIP3    H182238   2.270   2.037  12.043 -1.6932 -1.8584 -0.0964
20249TIP3    H282239   2.274   1.964  12.175  0.5815  0.4338  1.1416
20250TIP3   OH282240   5.295   2.413   0.957 -0.4977  0.0163 -0.5974
20250TIP3    H182241   5.207   2.448   0.943 -0.1915  1.5759  1.0808
20250TIP3    H282242   5.342   2.435   0.877 -1.3069  0.3055 -1.0006
20251TIP3   OH282243   3.241   0.319   2.028  0.0512 -0.3128  0.4855
20251TIP3    H182244   3.308   0.251   2.018 -0.7191 -0.9597 -0.4482
20251TIP3    H282245   3.196   0.320   1.944 -0.0320  1.2913  0.5358
20252TIP3   OH282246   3.731   3.333   1.198  0.6919  0.2608 -0.4934
20252TIP3    H182247   3.680   3.353   1.120 -1.0351  0.9885  0.7790
20252TIP3    H282248   3.739   3.417   1.244  0.8805 -0.3239  0.5732
20253LIG      O82249   1.721   5.163  16.170  0.2859  0.1956  0.6080
20253LIG      N82250   1.629   5.284  16.620 -0.0917  0.0080  0.3649
20253LIG     C182251   1.907   5.187  16.300 -0.1477 -0.9314  0.2598
20253LIG     C282252   1.763   5.134  16.300  0.1025 -0.3062  0.9118
20253LIG     C382253   2.016   5.117  16.213  0.2740  0.4045 -0.3086
20253LIG     C482254   1.921   5.340  16.270 -0.0690  0.4452  0.1767
20253LIG     C582255   1.662   5.204  16.395 -0.3842 -0.1036  1.0001
20253LIG     C682256   2.155   5.169  16.240  0.3720 -0.3742 -0.0379
20253LIG     C782257   2.062   5.393  16.295  0.3347  0.1982 -0.1012
20253LIG     C882258   2.160   5.315  16.203  0.4194 -0.3236 -0.3197
20253LIG     C982259   1.678   5.171  16.541 -0.1770 -0.3020 -0.8329
20253LIG    C1082260   1.763   4.985  16.327 -0.6150  0.2506 -0.5933
20253LIG    C1182261   1.718   5.399  16.645 -0.5818  0.6028 -0.1640
20253LIG    C1282262   1.490   5.305  16.637 -0.3713  0.6287  0.3544
20253LIG    C1382263   1.666   5.518  16.561  0.3048 -0.2104  0.6112
20253LIG    C1482264   1.439   5.412  16.536  0.2274 -0.0795 -0.4980
20253LIG    C1582265   1.512   5.542  16.556  0.1703  0.6439 -0.0965
20253LIG    C1682266   1.847   4.916  16.423  0.3046 -0.4807  0.0194
20253LIG    C1782267   1.671   4.896  16.259  0.3864 -0.7556 -0.3933
20253LIG    C1882268   1.839   4.781  16.452  0.8520  0.5318  0.3270
20253LIG    C1982269   1.660   4.761  16.281 -0.4580  0.6991 -0.9965
20253LIG    C2082270   1.753   4.699  16.376  0.9562  0.0586 -0.3851
20253LIG     H182271   1.935   5.188  16.407 -2.9512  1.7601  1.0387
20253LIG     H282272   1.997   5.114  16.104 -0.9856  0.9962 -0.1080
20253LIG     H382273   2.015   5.014  16.255 -1.9444  0.3873 -0.3407
20253LIG     H482274   1.854   5.403  16.333 -1.4856 -0.0923 -0.7832
20253LIG     H582275   1.884   5.352  16.166  0.2443  0.3261  0.0489
20253LIG     H682276   1.556   5.184  16.367  0.0827  0.4458 -1.2180
20253LIG     H782277   1.672   5.312  16.373  2.0721 -0.2627  1.1690
20253LIG     H882278   2.248   5.133  16.192 -0.0353 -1.5367  0.0101
20253LIG     H982279   2.178   5.156  16.348 -0.2643  0.6714  0.2292
20253LIG    H1082280   2.088   5.372  16.401 -3.0890 -2.1100  0.3635
20253LIG    H1182281   2.065   5.500  16.268  0.3348  1.0265  2.9605
20253LIG    H1282282   2.115   5.323  16.102  1.4402 -0.5079 -0.7955
20253LIG    H1382283   2.266   5.348  16.200  0.8533 -1.6165  0.1130
20253LIG    H1482284   1.621   5.077  16.561 -1.3091  0.6403  0.4211
20253LIG    H1582285   1.783   5.146  16.568  0.2436 -1.5176 -3.4275
20253LIG    H1682286   1.823   5.373  16.624 -0.1164  1.4309  1.0878
20253LIG    H1782287   1.737   5.435  16.748  2.1276 -1.1145 -0.0399
20253LIG    H1882288   1.471   5.347  16.738  0.9226  1.3068  0.3250
20253LIG    H1982289   1.424   5.216  16.631 -0.2085  0.5108  0.3279
20253LIG    H2082290   1.737   5.257  16.158  3.7339 -0.3343  0.4530
20253LIG    H2182291   1.702   5.499  16.457  2.0050  0.0146  1.1377
20253LIG    H2282292   1.722   5.607  16.595  0.6912 -0.6817  1.2044
20253LIG    H2382293   1.332   5.432  16.557  0.3894  1.1028 -0.7912
20253LIG    H2482294   1.439   5.383  16.429 -2.5925 -0.2723 -0.4924
20253LIG    H2582295   1.493   5.625  16.485  1.1993 -0.3578 -1.5851
20253LIG    H2682296   1.489   5.586  16.655 -1.8896  0.4133 -0.4537
20253LIG    H2782297   1.907   4.969  16.495 -1.1582  0.8388  0.3086
20253LIG    H2882298   1.616   4.948  16.182 -2.3278  0.3954  2.1839
20253LIG    H2982299   1.905   4.733  16.522  1.2506 -2.3995 -1.9368
20253LIG    H3082300   1.585   4.702  16.230  0.5262 -2.0495  0.6094
20253LIG    H3182301   1.734   4.596  16.401  1.6254 -0.3010 -1.3158
   6.82013   6.82013  17.29240
